
                                 *****************
                                 * O   R   C   A *
                                 *****************

           --- An Ab Initio, DFT and Semiempirical electronic structure package ---

                  #######################################################
                  #                        -***-                        #
                  #          Department of theory and spectroscopy      #
                  #               Directorship: Frank Neese             #
                  #        Max Planck Institute fuer Kohlenforschung    #
                  #                Kaiser Wilhelm Platz 1               #
                  #                 D-45470 Muelheim/Ruhr               #
                  #                      Germany                        #
                  #                                                     #
                  #                  All rights reserved                #
                  #                        -***-                        #
                  #######################################################


                         Program Version 4.1.1  - RELEASE  -


 With contributions from (in alphabetic order):
   Daniel Aravena         : Magnetic Properties
   Michael Atanasov       : Ab Initio Ligand Field Theory
   Alexander A. Auer      : GIAO ZORA
   Ute Becker             : Parallelization
   Giovanni Bistoni       : ED, Open-shell LED
   Martin Brehm           : Molecular dynamics
   Dmytro Bykov           : SCF Hessian
   Vijay G. Chilkuri      : MRCI spin determinant printing
   Dipayan Datta          : RHF DLPNO-CCSD density
   Achintya Kumar Dutta   : EOM-CC, STEOM-CC
   Dmitry Ganyushin       : Spin-Orbit,Spin-Spin,Magnetic field MRCI
   Miquel Garcia          : C-PCM Hessian
   Yang Guo               : DLPNO-NEVPT2, CIM, IAO-localization
   Andreas Hansen         : Spin unrestricted coupled pair/coupled cluster methods
   Benjamin Helmich-Paris : CASSCF linear response (MC-RPA)
   Lee Huntington         : MR-EOM, pCC
   Robert Izsak           : Overlap fitted RIJCOSX, COSX-SCS-MP3, EOM
   Christian Kollmar      : KDIIS, OOCD, Brueckner-CCSD(T), CCSD density
   Simone Kossmann        : Meta GGA functionals, TD-DFT gradient, OOMP2, MP2 Hessian
   Martin Krupicka        : AUTO-CI
   Lucas Lang             : DCDCAS
   Dagmar Lenk            : GEPOL surface, SMD
   Dimitrios Liakos       : Extrapolation schemes; parallel MDCI
   Dimitrios Manganas     : ROCIS; embedding schemes
   Dimitrios Pantazis     : SARC Basis sets
   Taras Petrenko         : DFT Hessian,TD-DFT gradient, ASA, ECA, R-Raman, ABS, FL, XAS/XES, NRVS
   Peter Pinski           : DLPNO-MP2, DLPNO-MP2 Gradient
   Christoph Reimann      : Effective Core Potentials
   Marius Retegan         : Local ZFS, SOC
   Christoph Riplinger    : Optimizer, TS searches, QM/MM, DLPNO-CCSD(T), (RO)-DLPNO pert. Triples
   Tobias Risthaus        : Range-separated hybrids, TD-DFT gradient, RPA, STAB
   Michael Roemelt        : Restricted open shell CIS
   Masaaki Saitow         : Open-shell DLPNO
   Barbara Sandhoefer     : DKH picture change effects
   Avijit Sen             : IP-ROCIS
   Kantharuban Sivalingam : CASSCF convergence, NEVPT2, FIC-MRCI
   Bernardo de Souza      : ESD, SOC TD-DFT
   Georgi Stoychev        : AutoAux, RI-MP2 NMR
   Willem Van den Heuvel  : Paramagnetic NMR
   Boris Wezisla          : Elementary symmetry handling
   Frank Wennmohs         : Technical directorship


 We gratefully acknowledge several colleagues who have allowed us to
 interface, adapt or use parts of their codes:
   Stefan Grimme, W. Hujo, H. Kruse,             : VdW corrections, initial TS optimization,
                  C. Bannwarth                     DFT functionals, gCP, sTDA/sTD-DF
   Ed Valeev                                     : LibInt (2-el integral package), F12 methods
   Garnet Chan, S. Sharma, J. Yang, R. Olivares  : DMRG
   Ulf Ekstrom                                   : XCFun DFT Library
   Mihaly Kallay                                 : mrcc  (arbitrary order and MRCC methods)
   Andreas Klamt, Michael Diedenhofen            : otool_cosmo (COSMO solvation model)
   Jiri Pittner, Ondrej Demel                    : Mk-CCSD
   Frank Weinhold                                : gennbo (NPA and NBO analysis)
   Christopher J. Cramer and Donald G. Truhlar   : smd solvation model
   Lars Goerigk                                  : TD-DFT with DH, B97 family of functionals
   V. Asgeirsson, H. Jonsson                     : NEB implementation
   FAccTs GmbH                                   : IRC, NEB, NEB-TS, Multilevel


 Your calculation uses the libint2 library for the computation of 2-el integrals
 For citations please refer to: http://libint.valeyev.net

 This ORCA versions uses:
   CBLAS   interface :  Fast vector & matrix operations
   LAPACKE interface :  Fast linear algebra routines
   SCALAPACK package :  Parallel linear algebra routines


Your calculation utilizes the atom-pairwise dispersion correction
with the Becke-Johnson damping scheme (D3BJ)
Cite in your paper:
S.Grimme, S.Ehrlich, L.Goerigk, J Comput Chem, (2011), 32, 1456–1465 
S.Grimme, J.Antony, S.Ehrlich and H.Krieg, J.Chem.Phys., 132, (2010), 154104 
   

Your calculation utilizes the SMD solvation module
Please cite in your paper:
A.V. Marenich, C.J. Cramer, D.G. Truhlar J. Phys. Chem. B, 113, (2009), 6378 

----- Orbital basis set information -----
Your calculation utilizes the basis: def2-SVP
   F. Weigend and R. Ahlrichs, Phys. Chem. Chem. Phys. 7, 3297 (2005).

----- AuxJ basis set information -----
Your calculation utilizes the auxiliary basis: def2/J
   F. Weigend, Phys. Chem. Chem. Phys. 8, 1057 (2006).

================================================================================
                                        WARNINGS
                       Please study these warnings very carefully!
================================================================================


WARNING: Geometry Optimization
  ===> : Switching off AutoStart
         For restart on a previous wavefunction, please use MOREAD

INFO   : the flag for use of LIBINT has been found!

================================================================================
                                       INPUT FILE
================================================================================
NAME = orca1d_01_12_orca_opt.inp
|  1> ! OptTS Freq PBE0 RIJCOSX D3BJ def2-SVP def2/J PAL8
|  2> %cpcm
|  3>  smd true
|  4>  SMDsolvent "water"
|  5>  end
|  6> %geom
|  7> Calc_Hess true
|  8> Recalc_Hess 40
|  9> Trust 0.2
| 10> MaxIter 100
| 11> end
| 12> %geom
| 13> modify_internal
| 14> { B 1 2 A } end
| 15> end
| 16> %geom
| 17> modify_internal
| 18> { B 0 1 A } end
| 19> end
| 20> %geom MaxIter 100 end
| 21> %scf 
| 22> maxiter 250 
| 23> end
| 24> % maxcore 4000
| 25> *xyz -1 1
| 26> F  -2.48329100  0.09219500  0.03252200 
| 27> C  -0.39201600  0.00634000  0.01019400 
| 28> Cl  1.71908800 -0.08687300 -0.01680700 
| 29> H  -0.59933800 -0.58690200 -0.88256200 
| 30> H  -0.56937800 -0.45959300  0.98168700 
| 31> H  -0.51546600  1.08853300 -0.06203300 
| 32> *
| 33> 
| 34>                          ****END OF INPUT****
================================================================================

                       *****************************
                       * Geometry Optimization Run *
                       *****************************

Geometry optimization settings:
Update method            Update   .... Bofill
Choice of coordinates    CoordSys .... Z-matrix Internals
Initial Hessian          InHess   .... Almoef's Model

Convergence Tolerances:
Energy Change            TolE     ....  5.0000e-06 Eh
Max. Gradient            TolMAXG  ....  3.0000e-04 Eh/bohr
RMS Gradient             TolRMSG  ....  1.0000e-04 Eh/bohr
Max. Displacement        TolMAXD  ....  4.0000e-03 bohr
RMS Displacement         TolRMSD  ....  2.0000e-03 bohr

------------------------------------------------------------------------------
                        ORCA OPTIMIZATION COORDINATE SETUP
------------------------------------------------------------------------------

The optimization will be done in new redundant internal coordinates
Making redundant internal coordinates   ...  (new redundants) Bond   2,  1 is already included
Bond   1,  0 is already included
done
Following TS mode number                ...     0
Evaluating the initial hessian          ...  (Is done on the fly) done
Evaluating the coordinates              ...  done
Calculating the B-matrix                .... done
Calculating the G-matrix                .... done
Diagonalizing the G-matrix              .... done
The first mode is                       ....    5
The number of degrees of freedom        ....   12

    -----------------------------------------------------------------
                    Redundant Internal Coordinates


    -----------------------------------------------------------------
         Definition                    Initial Value    d2E/dq (diagonal element)
    -----------------------------------------------------------------
      1. B(C   1,F   0)                  2.0932         0.000000   
      2. B(Cl  2,C   1)                  2.1133         0.000000   
      3. B(H   3,F   0)                  2.2018         0.000000   
      4. B(H   3,C   1)                  1.0918         0.000000   
      5. B(H   4,C   1)                  1.0919         0.000000   
      6. B(H   4,F   0)                  2.2065         0.000000   
      7. B(H   5,F   0)                  2.2077         0.000000   
      8. B(H   5,C   1)                  1.0916         0.000000   
      9. A(Cl  2,C   1,H   4)           98.9053         0.000000   
     10. A(H   3,C   1,H   4)          117.6982         0.000000   
     11. A(Cl  2,C   1,H   5)           98.9663         0.000000   
     12. A(H   3,C   1,H   5)          117.5885         0.000000   
     13. A(H   4,C   1,H   5)          117.6144         0.000000   
     14. A(F   0,C   1,H   3)           80.8676         0.000000   
     15. A(F   0,C   1,H   4)           81.1256         0.000000   
     16. A(F   0,C   1,H   5)           81.2023         0.000000   
     17. A(Cl  2,C   1,H   3)           98.9332         0.000000   
    -----------------------------------------------------------------

Number of atoms                         .... 6
Number of degrees of freedom            .... 17

         *************************************************************
         *                GEOMETRY OPTIMIZATION CYCLE   1            *
         *************************************************************
---------------------------------
CARTESIAN COORDINATES (ANGSTROEM)
---------------------------------
  F     -2.483291    0.092195    0.032522
  C     -0.392016    0.006340    0.010194
  Cl     1.719088   -0.086873   -0.016807
  H     -0.599338   -0.586902   -0.882562
  H     -0.569378   -0.459593    0.981687
  H     -0.515466    1.088533   -0.062033

----------------------------
CARTESIAN COORDINATES (A.U.)
----------------------------
  NO LB      ZA    FRAG     MASS         X           Y           Z
   0 F     9.0000    0    18.998   -4.692740    0.174223    0.061458
   1 C     6.0000    0    12.011   -0.740803    0.011981    0.019264
   2 Cl   17.0000    0    35.453    3.248606   -0.164166   -0.031761
   3 H     1.0000    0     1.008   -1.132585   -1.109084   -1.667800
   4 H     1.0000    0     1.008   -1.075968   -0.868505    1.855120
   5 H     1.0000    0     1.008   -0.974090    2.057029   -0.117225

--------------------------------
INTERNAL COORDINATES (ANGSTROEM)
--------------------------------
 F      0   0   0     0.000000000000     0.00000000     0.00000000
 C      1   0   0     2.093155690873     0.00000000     0.00000000
 Cl     2   1   0     2.113333342420   179.78544705     0.00000000
 H      2   1   3     1.091756272152    80.86760487    21.80942286
 H      2   1   4     1.091947566773    81.12555123   239.89501342
 H      2   1   4     1.091603559576    81.20228021   119.96873134

---------------------------
INTERNAL COORDINATES (A.U.)
---------------------------
 F      0   0   0     0.000000000000     0.00000000     0.00000000
 C      1   0   0     3.955491011409     0.00000000     0.00000000
 Cl     2   1   0     3.993621246859   179.78544705     0.00000000
 H      2   1   3     2.063120359359    80.86760487    21.80942286
 H      2   1   4     2.063481853803    81.12555123   239.89501342
 H      2   1   4     2.062831774411    81.20228021   119.96873134

---------------------
BASIS SET INFORMATION
---------------------
There are 4 groups of distinct atoms

 Group   1 Type F   : 7s4p1d contracted to 3s2p1d pattern {511/31/1}
 Group   2 Type C   : 7s4p1d contracted to 3s2p1d pattern {511/31/1}
 Group   3 Type Cl  : 10s7p1d contracted to 4s3p1d pattern {5311/511/1}
 Group   4 Type H   : 4s1p contracted to 2s1p pattern {31/1}

Atom   0F    basis set group =>   1
Atom   1C    basis set group =>   2
Atom   2Cl   basis set group =>   3
Atom   3H    basis set group =>   4
Atom   4H    basis set group =>   4
Atom   5H    basis set group =>   4
-------------------------------
AUXILIARY BASIS SET INFORMATION
-------------------------------
There are 4 groups of distinct atoms

 Group   1 Type F   : 12s5p4d2f1g contracted to 6s4p3d1f1g pattern {711111/2111/211/2/1}
 Group   2 Type C   : 12s5p4d2f1g contracted to 6s4p3d1f1g pattern {711111/2111/211/2/1}
 Group   3 Type Cl  : 14s5p5d2f1g contracted to 8s4p3d1f1g pattern {71111111/2111/311/2/1}
 Group   4 Type H   : 5s2p1d contracted to 3s1p1d pattern {311/2/1}

Atom   0F    basis set group =>   1
Atom   1C    basis set group =>   2
Atom   2Cl   basis set group =>   3
Atom   3H    basis set group =>   4
Atom   4H    basis set group =>   4
Atom   5H    basis set group =>   4


           ************************************************************
           *        Program running with 8 parallel MPI-processes     *
           *              working on a common directory               *
           ************************************************************
------------------------------------------------------------------------------
                           ORCA GTO INTEGRAL CALCULATION
                           -- RI-GTO INTEGRALS CHOSEN --
------------------------------------------------------------------------------

                         BASIS SET STATISTICS AND STARTUP INFO

Gaussian basis set:
 # of primitive gaussian shells          ...   57
 # of primitive gaussian functions       ...  105
 # of contracted shells                  ...   29
 # of contracted basis functions         ...   61
 Highest angular momentum                ...    2
 Maximum contraction depth               ...    5
Auxiliary gaussian basis set:
 # of primitive gaussian shells          ...   99
 # of primitive gaussian functions       ...  265
 # of contracted shells                  ...   62
 # of contracted aux-basis functions     ...  182
 Highest angular momentum                ...    4
 Maximum contraction depth               ...    7
Ratio of auxiliary to basis functions    ...  2.98
Integral package used                  ... LIBINT
 One Electron integrals                  ... done
 Ordering auxiliary basis shells         ... done
 Integral threshhold             Thresh  ...  2.500e-11
 Primitive cut-off               TCut    ...  2.500e-12
 Pre-screening matrix                    ... done
 Shell pair data                         ... 
 Ordering of the shell pairs             ... done (   0.000 sec) 418 of 435 pairs
 Determination of significant pairs      ... done (   0.000 sec)
 Creation of shell pair data             ... done (   0.000 sec)
 Storage of shell pair data              ... done (   0.001 sec)
 Shell pair data done in (   0.002 sec)
 Computing two index integrals           ... done
 Cholesky decomposition of the V-matrix  ... done


Timings:
 Total evaluation time                   ...   0.184 sec (  0.003 min)
 One electron matrix time                ...   0.016 sec (  0.000 min) =  8.8%
 Schwartz matrix evaluation time         ...   0.149 sec (  0.002 min) = 80.8%
 Two index repulsion integral time       ...   0.001 sec (  0.000 min) =  0.5%
 Cholesky decomposition of V             ...   0.001 sec (  0.000 min) =  0.5%
 Three index repulsion integral time     ...   0.000 sec (  0.000 min) =  0.0%



           ************************************************************
           *        Program running with 8 parallel MPI-processes     *
           *              working on a common directory               *
           ************************************************************
-------------------------------------------------------------------------------
                                 ORCA SCF
-------------------------------------------------------------------------------

------------
SCF SETTINGS
------------
Hamiltonian:
 Density Functional     Method          .... DFT(GTOs)
 Exchange Functional    Exchange        .... PBE
   PBE kappa parameter   XKappa         ....  0.804000
   PBE mue parameter    XMuePBE         ....  0.219520
 Correlation Functional Correlation     .... PBE
   PBE beta parameter  CBetaPBE         ....  0.066725
 LDA part of GGA corr.  LDAOpt          .... PW91-LDA
 Gradients option       PostSCFGGA      .... off
 Hybrid DFT is turned on
   Fraction HF Exchange ScalHFX         ....  0.250000
   Scaling of DF-GGA-X  ScalDFX         ....  0.750000
   Scaling of DF-GGA-C  ScalDFC         ....  1.000000
   Scaling of DF-LDA-C  ScalLDAC        ....  1.000000
   Perturbative correction              ....  0.000000
   Density functional embedding theory  .... OFF
   NL short-range parameter             ....  6.900000
 RI-approximation to the Coulomb term is turned on
   Number of auxiliary basis functions  .... 182
   RIJ-COSX (HFX calculated with COS-X)).... on


General Settings:
 Integral files         IntName         .... orca1d_01_12_orca_opt
 Hartree-Fock type      HFTyp           .... RHF
 Total Charge           Charge          ....   -1
 Multiplicity           Mult            ....    1
 Number of Electrons    NEL             ....   36
 Basis Dimension        Dim             ....   61
 Nuclear Repulsion      ENuc            ....     85.1822850246 Eh

Convergence Acceleration:
 DIIS                   CNVDIIS         .... on
   Start iteration      DIISMaxIt       ....    12
   Startup error        DIISStart       ....  0.200000
   # of expansion vecs  DIISMaxEq       ....     5
   Bias factor          DIISBfac        ....   1.050
   Max. coefficient     DIISMaxC        ....  10.000
 Newton-Raphson         CNVNR           .... off
 SOSCF                  CNVSOSCF        .... on
   Start iteration      SOSCFMaxIt      ....   150
   Startup grad/error   SOSCFStart      ....  0.003300
 Level Shifting         CNVShift        .... on
   Level shift para.    LevelShift      ....    0.2500
   Turn off err/grad.   ShiftErr        ....    0.0010
 Zerner damping         CNVZerner       .... off
 Static damping         CNVDamp         .... on
   Fraction old density DampFac         ....    0.7000
   Max. Damping (<1)    DampMax         ....    0.9800
   Min. Damping (>=0)   DampMin         ....    0.0000
   Turn off err/grad.   DampErr         ....    0.1000
 Fernandez-Rico         CNVRico         .... off

SCF Procedure:
 Maximum # iterations   MaxIter         ....   250
 SCF integral mode      SCFMode         .... Direct
   Integral package                     .... LIBINT
 Reset frequency        DirectResetFreq ....    20
 Integral Threshold     Thresh          ....  2.500e-11 Eh
 Primitive CutOff       TCut            ....  2.500e-12 Eh

Convergence Tolerance:
 Convergence Check Mode ConvCheckMode   .... Total+1el-Energy
 Convergence forced     ConvForced      .... 0
 Energy Change          TolE            ....  1.000e-08 Eh
 1-El. energy change                    ....  1.000e-05 Eh
 Orbital Gradient       TolG            ....  1.000e-05
 Orbital Rotation angle TolX            ....  1.000e-05
 DIIS Error             TolErr          ....  5.000e-07


Diagonalization of the overlap matrix:
Smallest eigenvalue                        ... 1.315e-02
Time for diagonalization                   ...    0.002 sec
Threshold for overlap eigenvalues          ... 1.000e-08
Number of eigenvalues below threshold      ... 0
Time for construction of square roots      ...    0.001 sec
Total time needed                          ...    0.003 sec

-------------------
DFT GRID GENERATION
-------------------

General Integration Accuracy     IntAcc      ...  4.340
Radial Grid Type                 RadialGrid  ... Gauss-Chebyshev
Angular Grid (max. acc.)         AngularGrid ... Lebedev-110
Angular grid pruning method      GridPruning ... 3 (G Style)
Weight generation scheme         WeightScheme... Becke
Basis function cutoff            BFCut       ...    1.0000e-11
Integration weight cutoff        WCut        ...    1.0000e-14
Grids for H and He will be reduced by one unit

# of grid points (after initial pruning)     ...   7622 (   0.0 sec)
# of grid points (after weights+screening)   ...   7441 (   0.0 sec)
nearest neighbour list constructed           ...    0.0 sec
Grid point re-assignment to atoms done       ...    0.0 sec
Grid point division into batches done        ...    0.0 sec
Reduced shell lists constructed in    0.0 sec

Total number of grid points                  ...     7441
Total number of batches                      ...      119
Average number of points per batch           ...       62
Average number of grid points per atom       ...     1240
Average number of shells per batch           ...    17.62 (60.78%)
Average number of basis functions per batch  ...    35.50 (58.20%)
Average number of large shells per batch     ...    14.62 (82.98%)
Average number of large basis fcns per batch ...    28.88 (81.34%)
Maximum spatial batch extension              ...  12.83, 25.60, 19.31 au
Average spatial batch extension              ...   0.78,  1.18,  1.06 au

Time for grid setup =    0.024 sec

------------------------------
INITIAL GUESS: MODEL POTENTIAL
------------------------------
Loading Hartree-Fock densities                     ... done
Calculating cut-offs                               ... done
Setting up the integral package                    ... done
Initializing the effective Hamiltonian             ... done
Starting the Coulomb interaction                   ... done (   0.0 sec)
Reading the grid                                   ... done
Mapping shells                                     ... done
Starting the XC term evaluation                    ... done (   0.0 sec)
  promolecular density results
     # of electrons  =     35.001065609
     EX              =    -43.242120006
     EC              =     -1.236310337
     EX+EC           =    -44.478430343
Transforming the Hamiltonian                       ... done (   0.0 sec)
Diagonalizing the Hamiltonian                      ... done (   0.0 sec)
Back transforming the eigenvectors                 ... done (   0.0 sec)
Now organizing SCF variables                       ... done
                      ------------------
                      INITIAL GUESS DONE (   0.1 sec)
                      ------------------
--------------------
COSX GRID GENERATION
--------------------

General Integration Accuracy     IntAcc      ...  3.340
Radial Grid Type                 RadialGrid  ... Gauss-Chebyshev
Angular Grid (max. acc.)         AngularGrid ... Lebedev-50
Angular grid pruning method      GridPruning ... 3 (G Style)
Weight generation scheme         WeightScheme... Becke
Basis function cutoff            BFCut       ...    1.0000e-11
Integration weight cutoff        WCut        ...    1.0000e-14
Grids for H and He will be reduced by one unit

# of grid points (after initial pruning)     ...   2826 (   0.0 sec)
# of grid points (after weights+screening)   ...   2760 (   0.0 sec)
nearest neighbour list constructed           ...    0.0 sec
Grid point re-assignment to atoms done       ...    0.0 sec
Grid point division into batches done        ...    0.0 sec
Reduced shell lists constructed in    0.0 sec

Total number of grid points                  ...     2760
Total number of batches                      ...       46
Average number of points per batch           ...       60
Average number of grid points per atom       ...      460
Average number of shells per batch           ...    19.29 (66.50%)
Average number of basis functions per batch  ...    39.86 (65.34%)
Average number of large shells per batch     ...    16.57 (85.93%)
Average number of large basis fcns per batch ...    34.29 (86.02%)
Maximum spatial batch extension              ...  12.22, 20.72, 20.72 au
Average spatial batch extension              ...   1.16,  1.53,  1.55 au

Overlap Fitting                  UseSFitting ... on
Constructing numerical overlap ... done (      0.0 sec)
Inverting numerical overlap    ... done (      0.0 sec)
Obtaining analytic overlap     ... done (      0.0 sec)
Final contraction and storage  ... done (      0.0 sec)


General Integration Accuracy     IntAcc      ...  3.670
Radial Grid Type                 RadialGrid  ... Gauss-Chebyshev
Angular Grid (max. acc.)         AngularGrid ... Lebedev-50
Angular grid pruning method      GridPruning ... 3 (G Style)
Weight generation scheme         WeightScheme... Becke
Basis function cutoff            BFCut       ...    1.0000e-11
Integration weight cutoff        WCut        ...    1.0000e-14
Grids for H and He will be reduced by one unit

# of grid points (after initial pruning)     ...   3566 (   0.0 sec)
# of grid points (after weights+screening)   ...   3482 (   0.0 sec)
nearest neighbour list constructed           ...    0.0 sec
Grid point re-assignment to atoms done       ...    0.0 sec
Grid point division into batches done        ...    0.0 sec
Reduced shell lists constructed in    0.0 sec

Total number of grid points                  ...     3482
Total number of batches                      ...       57
Average number of points per batch           ...       61
Average number of grid points per atom       ...      580
Average number of shells per batch           ...    20.00 (68.97%)
Average number of basis functions per batch  ...    41.78 (68.49%)
Average number of large shells per batch     ...    17.11 (85.56%)
Average number of large basis fcns per batch ...    35.33 (84.57%)
Maximum spatial batch extension              ...  13.54, 22.67, 22.67 au
Average spatial batch extension              ...   1.09,  1.48,  1.49 au

Overlap Fitting                  UseSFitting ... on
Constructing numerical overlap ... done (      0.0 sec)
Inverting numerical overlap    ... done (      0.0 sec)
Obtaining analytic overlap     ... done (      0.0 sec)
Final contraction and storage  ... done (      0.0 sec)


General Integration Accuracy     IntAcc      ...  4.010
Radial Grid Type                 RadialGrid  ... Gauss-Chebyshev
Angular Grid (max. acc.)         AngularGrid ... Lebedev-110
Angular grid pruning method      GridPruning ... 3 (G Style)
Weight generation scheme         WeightScheme... Becke
Basis function cutoff            BFCut       ...    1.0000e-11
Integration weight cutoff        WCut        ...    1.0000e-14
Grids for H and He will be reduced by one unit

# of grid points (after initial pruning)     ...   6574 (   0.0 sec)
# of grid points (after weights+screening)   ...   6424 (   0.0 sec)
nearest neighbour list constructed           ...    0.0 sec
Grid point re-assignment to atoms done       ...    0.0 sec
Grid point division into batches done        ...    0.0 sec
Reduced shell lists constructed in    0.0 sec

Total number of grid points                  ...     6424
Total number of batches                      ...      103
Average number of points per batch           ...       62
Average number of grid points per atom       ...     1071
Average number of shells per batch           ...    18.79 (64.78%)
Average number of basis functions per batch  ...    38.50 (63.11%)
Average number of large shells per batch     ...    15.00 (79.85%)
Average number of large basis fcns per batch ...    29.86 (77.55%)
Maximum spatial batch extension              ...  12.33, 24.23, 17.95 au
Average spatial batch extension              ...   0.78,  1.16,  1.02 au

Overlap Fitting                  UseSFitting ... on
Constructing numerical overlap ... done (      0.0 sec)
Inverting numerical overlap    ... done (      0.0 sec)
Obtaining analytic overlap     ... done (      0.0 sec)
Final contraction and storage  ... done (      0.0 sec)

Time for X-Grid setup             =    0.096 sec

--------------------
CPCM SOLVATION MODEL
--------------------
CPCM parameters:
  Epsilon                                         ...      78.3550
  Refrac                                          ...       1.0000
  Rsolv                                           ...       1.3000
  Surface type                                    ...    GEPOL SES
  Epsilon function type                           ...         CPCM
Solvent:                                     ... WATER
SMD-CDS solvent descriptors:
  Soln                                       ...    1.3328
  Soln25                                     ...    1.3323
  Sola                                       ...    0.0000
  Solb                                       ...    0.0000
  Solg                                       ...    0.0000
  Solc                                       ...    0.0000
  Solh                                       ...    0.0000
Radii:
 Radius for F  used is    3.2692 Bohr (=   1.7300 Ang.)
 Radius for C  used is    3.4960 Bohr (=   1.8500 Ang.)
 Radius for Cl used is    4.4975 Bohr (=   2.3800 Ang.)
 Radius for H  used is    2.2677 Bohr (=   1.2000 Ang.)
Calculating surface                               ...        done! (  0.0s)
GEPOL surface points                              ...          248
GEPOL Volume                                      ...     617.4893
GEPOL Surface-area                                ...     395.8471
Calculating surface distance matrix               ...        done! (  0.0s)
Performing Cholesky decomposition & store         ...        done! (  0.0s)
Overall time for CPCM initialization              ...                 0.0s
--------------
SCF ITERATIONS
--------------
ITER       Energy         Delta-E        Max-DP      RMS-DP      [F,P]     Damp
               ***  Starting incremental Fock matrix formation  ***
  0   -599.3684913082   0.000000000000 0.08905864  0.00434333  0.3269761 0.7000
  1   -599.4208519420  -0.052360633809 0.05236234  0.00281317  0.1352521 0.7000
                               ***Turning on DIIS***
  2   -599.4413367561  -0.020484814052 0.09616194  0.00467357  0.0359812 0.0000
  3   -599.4758128849  -0.034476128796 0.03694956  0.00182825  0.0756276 0.0000
  4   -599.4818720675  -0.006059182637 0.00974132  0.00052236  0.0099431 0.0000
  5   -599.4821308017  -0.000258734168 0.00280861  0.00017158  0.0039683 0.0000
                      *** Initiating the SOSCF procedure ***
                           *** Shutting down DIIS ***
                      *** Re-Reading the Fockian *** 
                      *** Removing any level shift *** 
ITER      Energy       Delta-E        Grad      Rot      Max-DP    RMS-DP
  6   -599.48215915  -0.0000283448  0.000539  0.000539  0.001663  0.000103
               *** Restarting incremental Fock matrix formation ***
  7   -599.48216899  -0.0000098416  0.000234  0.000812  0.001033  0.000051
  8   -599.48216824   0.0000007451  0.000372  0.000540  0.000568  0.000028
  9   -599.48216942  -0.0000011783  0.000038  0.000075  0.000202  0.000007
 10   -599.48216941   0.0000000106  0.000040  0.000053  0.000092  0.000004
 11   -599.48216942  -0.0000000102  0.000006  0.000008  0.000024  0.000001
 12   -599.48216943  -0.0000000054  0.000005  0.000003  0.000011  0.000000
                 **** Energy Check signals convergence ****
              ***Rediagonalizing the Fockian in SOSCF/NRSCF***

               *****************************************************
               *                     SUCCESS                       *
               *           SCF CONVERGED AFTER  13 CYCLES          *
               *****************************************************

Setting up the final grid:

General Integration Accuracy     IntAcc      ...  4.670
Radial Grid Type                 RadialGrid  ... Gauss-Chebyshev
Angular Grid (max. acc.)         AngularGrid ... Lebedev-302
Angular grid pruning method      GridPruning ... 3 (G Style)
Weight generation scheme         WeightScheme... Becke
Basis function cutoff            BFCut       ...    1.0000e-11
Integration weight cutoff        WCut        ...    1.0000e-14
Grids for H and He will be reduced by one unit

# of grid points (after initial pruning)     ...  29404 (   0.0 sec)
# of grid points (after weights+screening)   ...  28541 (   0.0 sec)
nearest neighbour list constructed           ...    0.0 sec
Grid point re-assignment to atoms done       ...    0.0 sec
Grid point division into batches done        ...    0.1 sec
Reduced shell lists constructed in    0.1 sec

Total number of grid points                  ...    28541
Total number of batches                      ...      450
Average number of points per batch           ...       63
Average number of grid points per atom       ...     4757
Average number of shells per batch           ...    16.03 (55.29%)
Average number of basis functions per batch  ...    32.76 (53.70%)
Average number of large shells per batch     ...    12.79 (79.78%)
Average number of large basis fcns per batch ...    25.38 (77.47%)
Maximum spatial batch extension              ...  15.33, 16.05, 16.05 au
Average spatial batch extension              ...   0.59,  0.63,  0.65 au

Final grid set up in    0.1 sec
Final integration                            ... done (   0.0 sec)
Change in XC energy                          ...     0.000548428
Integrated number of electrons               ...    36.000074051
Previous integrated no of electrons          ...    36.002799798
Old exchange energy                            =    -11.018278180 Eh
New exchange energy                            =    -11.017833463 Eh
Exchange energy change after final integration =      0.000444717 Eh
Total energy after final integration           =   -599.481176277 Eh
Final COS-X integration done in                =     0.079 sec

SMD CDS free energy correction energy :                 2.77423     Kcal/mol
Total Energy after SMD CDS correction =              -599.476755260 Eh

----------------
TOTAL SCF ENERGY
----------------

Total Energy       :         -599.47675526 Eh          -16312.59183 eV

Components:
Nuclear Repulsion  :           85.18228502 Eh            2317.92782 eV
Electronic Energy  :         -684.65904028 Eh          -18630.51964 eV
One Electron Energy:        -1007.06061777 Eh          -27403.51258 eV
Two Electron Energy:          322.40157749 Eh            8772.99293 eV
CPCM Dielectric    :           -0.10229762 Eh              -2.78366 eV
SMD CDS (Gcds)     :            0.00442102 Eh               0.12030 eV

Virial components:
Potential Energy   :        -1197.10514865 Eh          -32574.88717 eV
Kinetic Energy     :          597.62839339 Eh           16262.29534 eV
Virial Ratio       :            2.00309283


DFT components:
N(Alpha)           :       18.000037025503 electrons
N(Beta)            :       18.000037025503 electrons
N(Total)           :       36.000074051007 electrons
E(X)               :      -32.908441711694 Eh       
E(C)               :       -1.290416861258 Eh       
E(XC)              :      -34.198858572952 Eh       
DFET-embed. en.    :        0.000000000000 Eh       
CPCM Solvation Model Properties:
Surface-charge          :            0.99316786
Charge-correction       :           -0.00117004 Eh              -0.03184 eV
Free-energy (cav+disp)  :            0.00329999 Eh               0.08980 eV
Corrected G(solv)       :         -599.47462531 Eh          -16312.53387 eV

---------------
SCF CONVERGENCE
---------------

  Last Energy change         ...    3.9992e-09  Tolerance :   1.0000e-08
  Last MAX-Density change    ...    3.9968e-15  Tolerance :   1.0000e-07
  Last RMS-Density change    ...    9.8673e-17  Tolerance :   5.0000e-09
  Last Orbital Gradient      ...    1.1437e-07  Tolerance :   1.0000e-05
  Last Orbital Rotation      ...    1.2820e-07  Tolerance :   1.0000e-05

             **** THE GBW FILE WAS UPDATED (orca1d_01_12_orca_opt.gbw) ****
             **** DENSITY FILE WAS UPDATED (orca1d_01_12_orca_opt.scfp.tmp) ****
             **** ENERGY FILE WAS UPDATED (orca1d_01_12_orca_opt.en.tmp) ****
----------------
ORBITAL ENERGIES
----------------

  NO   OCC          E(Eh)            E(eV) 
   0   2.0000    -101.589595     -2764.3934 
   1   2.0000     -24.550045      -668.0407 
   2   2.0000     -10.268402      -279.4174 
   3   2.0000      -9.438236      -256.8275 
   4   2.0000      -7.177845      -195.3191 
   5   2.0000      -7.171438      -195.1448 
   6   2.0000      -7.171427      -195.1445 
   7   2.0000      -0.943057       -25.6619 
   8   2.0000      -0.760381       -20.6910 
   9   2.0000      -0.649506       -17.6740 
  10   2.0000      -0.419537       -11.4162 
  11   2.0000      -0.419504       -11.4153 
  12   2.0000      -0.330123        -8.9831 
  13   2.0000      -0.256563        -6.9814 
  14   2.0000      -0.256488        -6.9794 
  15   2.0000      -0.227102        -6.1798 
  16   2.0000      -0.226857        -6.1731 
  17   2.0000      -0.216855        -5.9009 
  18   0.0000       0.044198         1.2027 
  19   0.0000       0.108110         2.9418 
  20   0.0000       0.167766         4.5651 
  21   0.0000       0.168323         4.5803 
  22   0.0000       0.468552        12.7499 
  23   0.0000       0.468936        12.7604 
  24   0.0000       0.551090        14.9959 
  25   0.0000       0.615192        16.7402 
  26   0.0000       0.699536        19.0353 
  27   0.0000       0.699824        19.0432 
  28   0.0000       0.736626        20.0446 
  29   0.0000       0.748557        20.3693 
  30   0.0000       0.866132        23.5686 
  31   0.0000       0.866190        23.5702 
  32   0.0000       0.882099        24.0031 
  33   0.0000       0.882400        24.0113 
  34   0.0000       0.918175        24.9848 
  35   0.0000       0.950700        25.8699 
  36   0.0000       0.950858        25.8742 
  37   0.0000       1.210159        32.9301 
  38   0.0000       1.210528        32.9401 
  39   0.0000       1.253652        34.1136 
  40   0.0000       1.275709        34.7138 
  41   0.0000       1.388548        37.7843 
  42   0.0000       1.389223        37.8027 
  43   0.0000       1.507598        41.0238 
  44   0.0000       1.695084        46.1256 
  45   0.0000       1.718590        46.7652 
  46   0.0000       1.718947        46.7749 
  47   0.0000       1.968399        53.5629 
  48   0.0000       2.110193        57.4213 
  49   0.0000       2.110643        57.4335 
  50   0.0000       2.246265        61.1240 
  51   0.0000       2.378608        64.7252 
  52   0.0000       2.379579        64.7516 
  53   0.0000       2.845935        77.4418 
  54   0.0000       2.920818        79.4795 
  55   0.0000       2.921737        79.5045 
  56   0.0000       3.284874        89.3860 
  57   0.0000       3.285905        89.4140 
  58   0.0000       3.288257        89.4780 
  59   0.0000       3.288752        89.4915 
  60   0.0000       3.368985        91.6747 

                    ********************************
                    * MULLIKEN POPULATION ANALYSIS *
                    ********************************

-----------------------
MULLIKEN ATOMIC CHARGES
-----------------------
   0 F :   -0.739511
   1 C :   -0.013725
   2 Cl:   -0.508343
   3 H :    0.087092
   4 H :    0.087050
   5 H :    0.087437
Sum of atomic charges:   -1.0000000

--------------------------------
MULLIKEN REDUCED ORBITAL CHARGES
--------------------------------
  0 F s       :     3.976325  s :     3.976325
      pz      :     1.983325  p :     5.762794
      px      :     1.796173
      py      :     1.983296
      dz2     :     0.000062  d :     0.000392
      dxz     :     0.000073
      dyz     :     0.000002
      dx2y2   :     0.000180
      dxy     :     0.000075
  1 C s       :     3.207206  s :     3.207206
      pz      :     1.061194  p :     2.779605
      px      :     0.654191
      py      :     1.064220
      dz2     :     0.007336  d :     0.026914
      dxz     :     0.001776
      dyz     :     0.005511
      dx2y2   :     0.010690
      dxy     :     0.001602
  2 Cls       :     5.972580  s :     5.972580
      pz      :     3.991085  p :    11.525475
      px      :     3.544250
      py      :     3.990139
      dz2     :     0.001725  d :     0.010288
      dxz     :     0.001707
      dyz     :     0.000002
      dx2y2   :     0.005145
      dxy     :     0.001709
  3 H s       :     0.888399  s :     0.888399
      pz      :     0.011470  p :     0.024509
      px      :     0.005516
      py      :     0.007524
  4 H s       :     0.888524  s :     0.888524
      pz      :     0.012776  p :     0.024426
      px      :     0.005363
      py      :     0.006287
  5 H s       :     0.888065  s :     0.888065
      pz      :     0.004463  p :     0.024497
      px      :     0.005137
      py      :     0.014897


                     *******************************
                     * LOEWDIN POPULATION ANALYSIS *
                     *******************************

----------------------
LOEWDIN ATOMIC CHARGES
----------------------
   0 F :   -0.708499
   1 C :   -0.000925
   2 Cl:   -0.365226
   3 H :    0.024761
   4 H :    0.024902
   5 H :    0.024987

-------------------------------
LOEWDIN REDUCED ORBITAL CHARGES
-------------------------------
  0 F s       :     3.941619  s :     3.941619
      pz      :     1.983321  p :     5.766453
      px      :     1.799904
      py      :     1.983229
      dz2     :     0.000070  d :     0.000426
      dxz     :     0.000072
      dyz     :     0.000003
      dx2y2   :     0.000205
      dxy     :     0.000075
  1 C s       :     2.973248  s :     2.973248
      pz      :     1.109175  p :     2.965688
      px      :     0.746832
      py      :     1.109681
      dz2     :     0.017234  d :     0.061989
      dxz     :     0.003983
      dyz     :     0.013619
      dx2y2   :     0.023727
      dxy     :     0.003426
  2 Cls       :     5.891901  s :     5.891901
      pz      :     3.980009  p :    11.463012
      px      :     3.503938
      py      :     3.979064
      dz2     :     0.001865  d :     0.010314
      dxz     :     0.001437
      dyz     :     0.000004
      dx2y2   :     0.005557
      dxy     :     0.001451
  3 H s       :     0.903034  s :     0.903034
      pz      :     0.035407  p :     0.072205
      px      :     0.014765
      py      :     0.022033
  4 H s       :     0.902998  s :     0.902998
      pz      :     0.039829  p :     0.072100
      px      :     0.014216
      py      :     0.018055
  5 H s       :     0.902861  s :     0.902861
      pz      :     0.011879  p :     0.072151
      px      :     0.013463
      py      :     0.046809


                      *****************************
                      * MAYER POPULATION ANALYSIS *
                      *****************************

  NA   - Mulliken gross atomic population
  ZA   - Total nuclear charge
  QA   - Mulliken gross atomic charge
  VA   - Mayer's total valence
  BVA  - Mayer's bonded valence
  FA   - Mayer's free valence

  ATOM       NA         ZA         QA         VA         BVA        FA
  0 F      9.7395     9.0000    -0.7395     0.4622     0.4622    -0.0000
  1 C      6.0137     6.0000    -0.0137     3.8758     3.8758     0.0000
  2 Cl    17.5083    17.0000    -0.5083     0.7369     0.7369    -0.0000
  3 H      0.9129     1.0000     0.0871     1.0099     1.0099    -0.0000
  4 H      0.9130     1.0000     0.0870     1.0093     1.0093    -0.0000
  5 H      0.9126     1.0000     0.0874     1.0098     1.0098     0.0000

  Mayer bond orders larger than 0.1
B(  0-F ,  1-C ) :   0.3056 B(  1-C ,  2-Cl) :   0.6381 B(  1-C ,  3-H ) :   0.9772 
B(  1-C ,  4-H ) :   0.9774 B(  1-C ,  5-H ) :   0.9775 

-------
TIMINGS
-------

Total SCF time: 0 days 0 hours 0 min 6 sec 

Total time                  ....       6.001 sec
Sum of individual times     ....       5.866 sec  ( 97.7%)

Fock matrix formation       ....       5.486 sec  ( 91.4%)
  Split-RI-J                ....       1.520 sec  ( 27.7% of F)
  Chain of spheres X        ....       0.819 sec  ( 14.9% of F)
  COS-X 1 center corr.      ....       0.000 sec  (  0.0% of F)
  XC integration            ....       0.125 sec  (  2.3% of F)
    Basis function eval.    ....       0.021 sec  ( 17.2% of XC)
    Density eval.           ....       0.008 sec  (  6.7% of XC)
    XC-Functional eval.     ....       0.009 sec  (  7.5% of XC)
    XC-Potential eval.      ....       0.009 sec  (  7.5% of XC)
Diagonalization             ....       0.003 sec  (  0.1%)
Density matrix formation    ....       0.001 sec  (  0.0%)
Population analysis         ....       0.002 sec  (  0.0%)
Initial guess               ....       0.104 sec  (  1.7%)
Orbital Transformation      ....       0.000 sec  (  0.0%)
Orbital Orthonormalization  ....       0.000 sec  (  0.0%)
DIIS solution               ....       0.002 sec  (  0.0%)
SOSCF solution              ....       0.002 sec  (  0.0%)
Grid generation             ....       0.267 sec  (  4.4%)


-------------------------------------------------------------------------------
                          DFT DISPERSION CORRECTION                            
                                                                               
                              DFTD3 V3.1  Rev 1                                
                          USING Becke-Johnson damping                          
-------------------------------------------------------------------------------
The PBE0 functional is recognized
Active option DFTDOPT                   ...         4   

molecular C6(AA) [au] = 486.244830 


            DFT-D V3
 parameters
 s6 scaling factor         :     1.0000 
 a1 scaling factor         :     0.4145 
 s8 scaling factor         :     1.2177 
 a2 scaling factor         :     4.8593 
 ad hoc parameters k1-k3   :    16.0000     1.3333    -4.0000 

 Edisp/kcal,au: -1.502984947137  -0.002395158717 
 E6   /kcal   :  -0.949746008 
 E8   /kcal   :  -0.553238939 
 % E8         :  36.809346612 

-------------------------   ----------------
Dispersion correction           -0.002395159
-------------------------   ----------------


-------------------------   --------------------
FINAL SINGLE POINT ENERGY      -599.479150419023
-------------------------   --------------------



           ************************************************************
           *        Program running with 8 parallel MPI-processes     *
           *              working on a common directory               *
           ************************************************************
------------------------------------------------------------------------------
                         ORCA SCF GRADIENT CALCULATION
------------------------------------------------------------------------------

Gradient of the Kohn-Sham DFT energy:
Kohn-Sham wavefunction type      ... RKS
Hartree-Fock exchange scaling    ...    0.250
Number of operators              ...    1
Number of atoms                  ...    6
Basis set dimensions             ...   61
Integral neglect threshold       ... 2.5e-11
Integral primitive cutoff        ... 2.5e-12

Nuclear repulsion gradient       ... done
One Electron Gradient            ... done
Pre-screening matrix             ... done
RI-J gradient                    ... done
COSX-gradient                    ... done
Exchange-correlation gradient    ... done
Dispersion correction            ... done

------------------
CARTESIAN GRADIENT
------------------

   1   F   :    0.001824939   -0.002347944   -0.000871674
   2   C   :   -0.006475809    0.000469023    0.000745589
   3   Cl  :    0.011858647   -0.000367237   -0.000078541
   4   H   :   -0.001717456   -0.002810377   -0.004649340
   5   H   :   -0.001555217   -0.002046361    0.004930393
   6   H   :   -0.001452458    0.005423964   -0.000094264

Difference to translation invariance:
           :    0.0024826464   -0.0016789321   -0.0000178371

Norm of the cartesian gradient     ...    0.0169705859
RMS gradient                       ...    0.0040000055
MAX gradient                       ...    0.0118586465

-------
TIMINGS
-------

Total SCF gradient time            ...        0.587 sec

One electron gradient       ....       0.005 sec  (  0.8%)
Prescreening matrices       ....       0.005 sec  (  0.9%)
RI-J Coulomb gradient       ....       0.106 sec  ( 18.0%)
COSX gradient               ....       0.083 sec  ( 14.1%)
XC gradient                 ....       0.042 sec  (  7.1%)
CPCM gradient               ....       0.054 sec  (  9.2%)
   A-Matrix (El+Nuc)        ....       0.001 sec  (  0.2%)
   Potential                ....       0.053 sec  (  9.0%)


           ************************************************************
           *        Program running with 8 parallel MPI-processes     *
           *              working on a common directory               *
           ************************************************************

-------------------------------------------------------------------------------
                               ORCA SCF HESSIAN
-------------------------------------------------------------------------------

Hessian of the Kohn-Sham DFT energy:
Kohn-Sham wavefunction type                      ... RKS
Hartree-Fock exchange scaling                    ...    0.250
Number of operators                              ...    1
Number of atoms                                  ...    6
Basis set dimensions                             ...   61
Integral neglect threshold                       ... 2.5e-11
Integral primitive cutoff                        ... 2.5e-12

Setting up DFT Hessian calculations              ... 
Electron density on the grid                     ... found on disk
Electron density on the final grid               ... found on disk
Building xc-kernel on the grid                   ... done   (      0.0 sec)
Building xc-kernel on the final grid             ... done   (      0.0 sec)
                                                     done   (      0.0 sec)

Nuclear repulsion Hessian                        ... done   (      0.0 sec)
C-PCM contribution to the Fock matrix            ... done   (      0.3 sec)

----------------------------------------------
Forming right-hand sides of CP-SCF equations     ...
----------------------------------------------
One electron integral derivatives                ... done   (      0.1 sec)
Transforming the overlap derivative matrices     ... done   (      0.0 sec)
Adding tr(S(x)F(y) C-PCM term to the hessian     ... done   (      0.2 sec)
Making the Q(x) pseudodensities                  ... done   (      0.0 sec)
Adding the E*S(x)*S(y) terms to the Hessian      ... done   (      0.0 sec)
Calculating energy weighted overlap derivatives  ... done   (      0.0 sec)
Two electron integral derivatives (RI)           ... done   (      0.3 sec)
Exchange-correlation integral derivatives        ... done   (      0.3 sec)
tr(F(y)Q(x)) contribution to the Hessian         ... done   (      0.0 sec)
Response fock operator R(S(x)) (RIJCOSX)         ... done   (      0.4 sec)
XC Response fock operator R(S(x))                ... done   (      0.1 sec)
tr(F(y)S(x)) contribution to the Hessian         ... done   (      0.0 sec)
Transforming and finalizing RHSs                 ... done   (      0.0 sec)

----------------------------------------------
Solving the CP-SCF equations (RIJCOSX)           ...
----------------------------------------------
     CP-SCF ITERATION   0: 
     CP-SCF ITERATION   1:      0.000447199352
     CP-SCF ITERATION   2:      0.000072457488
     CP-SCF ITERATION   3:      0.000005298610
     CP-SCF ITERATION   4:      0.000000172840
     CP-SCF ITERATION   5:      0.000000006438

                                                 ... done   (      2.8 sec)
Forming perturbed density Hessian contributions  ... done   (      0.0 sec)
Calculating [Q*(d^2 A/dXdY)*Q  ] C-PCM term      ... done   (      0.0 sec)
Calculating [d^2(V_N)/(dXdY)*Q ] C-PCM term      ... done   (      0.0 sec)
Calculating [d^2(V_el)/(dXdY)*Q] C-PCM term      ... done   (      0.1 sec)
Calculating C-PCM term that depends on dQ/dX     ... done   (      0.0 sec)
2nd integral derivative contribs (RI)            ... done   (      0.7 sec)
Exchange-correlation Hessian                     ... done   (      0.5 sec)
Dispersion correction in the Hessian             ... done   (      0.6 sec)
Dipol derivatives                                ... done   (      0.1 sec)

Total SCF Hessian time: 0 days 0 hours 0 min 7 sec 

Writing the Hessian file to the disk             ... done


Maximum memory used throughout the entire calculation: 121.9 MB

-----------------------
VIBRATIONAL FREQUENCIES
-----------------------

Scaling factor for frequencies =  1.000000000  (already applied!)

   0:         0.00 cm**-1
   1:         0.00 cm**-1
   2:         0.00 cm**-1
   3:         0.00 cm**-1
   4:         0.00 cm**-1
   5:         0.00 cm**-1
   6:      -425.29 cm**-1 ***imaginary mode***
   7:       211.79 cm**-1
   8:       218.06 cm**-1
   9:       272.35 cm**-1
  10:       903.91 cm**-1
  11:       907.33 cm**-1
  12:      1050.22 cm**-1
  13:      1346.74 cm**-1
  14:      1347.54 cm**-1
  15:      3108.18 cm**-1
  16:      3310.06 cm**-1
  17:      3312.60 cm**-1


------------
NORMAL MODES
------------

These modes are the Cartesian displacements weighted by the diagonal matrix
M(i,i)=1/sqrt(m[i]) where m[i] is the mass of the displaced atom
Thus, these vectors are normalized but *not* orthogonal

                  0          1          2          3          4          5    
      0       0.000000   0.000000   0.000000   0.000000   0.000000   0.000000
      1       0.000000   0.000000   0.000000   0.000000   0.000000   0.000000
      2       0.000000   0.000000   0.000000   0.000000   0.000000   0.000000
      3       0.000000   0.000000   0.000000   0.000000   0.000000   0.000000
      4       0.000000   0.000000   0.000000   0.000000   0.000000   0.000000
      5       0.000000   0.000000   0.000000   0.000000   0.000000   0.000000
      6       0.000000   0.000000   0.000000   0.000000   0.000000   0.000000
      7       0.000000   0.000000   0.000000   0.000000   0.000000   0.000000
      8       0.000000   0.000000   0.000000   0.000000   0.000000   0.000000
      9       0.000000   0.000000   0.000000   0.000000   0.000000   0.000000
     10       0.000000   0.000000   0.000000   0.000000   0.000000   0.000000
     11       0.000000   0.000000   0.000000   0.000000   0.000000   0.000000
     12       0.000000   0.000000   0.000000   0.000000   0.000000   0.000000
     13       0.000000   0.000000   0.000000   0.000000   0.000000   0.000000
     14       0.000000   0.000000   0.000000   0.000000   0.000000   0.000000
     15       0.000000   0.000000   0.000000   0.000000   0.000000   0.000000
     16       0.000000   0.000000   0.000000   0.000000   0.000000   0.000000
     17       0.000000   0.000000   0.000000   0.000000   0.000000   0.000000
                  6          7          8          9         10         11    
      0      -0.271299  -0.000457  -0.008317  -0.838431   0.000468  -0.000038
      1       0.009470  -0.054148  -0.180507   0.036878  -0.003430  -0.005488
      2       0.002419  -0.180535   0.054184   0.005319  -0.005273   0.003385
      3       0.917517   0.009689   0.014254  -0.130150  -0.002087  -0.001976
      4      -0.035751   0.129081   0.431781   0.002811  -0.028451  -0.045419
      5      -0.010178   0.431159  -0.129387   0.012765  -0.045986   0.028770
      6      -0.162653  -0.003822  -0.001901   0.501302   0.000994   0.000320
      7       0.006498  -0.026602  -0.089370  -0.020817   0.007788   0.012428
      8       0.001925  -0.089158   0.026756  -0.008233   0.012543  -0.007840
      9      -0.035719  -0.147409  -0.028930  -0.095294  -0.812287  -0.021115
     10       0.080603   0.143938   0.472787  -0.005158   0.072818   0.079722
     11       0.114125   0.474428  -0.141896   0.003611   0.072246  -0.050046
     12      -0.031986   0.129646  -0.091625  -0.092439   0.418934  -0.680216
     13       0.063912   0.136688   0.464679  -0.003746   0.035550   0.099557
     14      -0.117549   0.467952  -0.143541   0.022264   0.060258  -0.023248
     15      -0.031118   0.045369   0.174303  -0.090941   0.374426   0.714341
     16      -0.125534   0.137471   0.462895   0.012526   0.021377   0.028252
     17       0.011405   0.458468  -0.135090   0.011334   0.073677  -0.057574
                 12         13         14         15         16         17    
      0      -0.034161   0.000022   0.000015  -0.000563   0.000024  -0.000045
      1       0.001274   0.000074  -0.000540   0.000043   0.000069  -0.000720
      2       0.000053  -0.000542  -0.000007   0.000031  -0.000757  -0.000066
      3      -0.019985   0.000684   0.003747  -0.020304   0.001053   0.004391
      4       0.000771  -0.010019   0.087222  -0.000145  -0.009376   0.102035
      5       0.000095   0.087172   0.009938   0.000681   0.102245   0.009331
      6      -0.023518   0.000008  -0.000005   0.000102  -0.000010  -0.000013
      7       0.001085  -0.000026   0.000127   0.000003   0.000042  -0.000410
      8       0.000422   0.000147   0.000018   0.000008  -0.000423  -0.000034
      9       0.553637  -0.080184  -0.096783   0.103428  -0.118959  -0.095057
     10      -0.070941   0.476468  -0.461734   0.315320  -0.347946  -0.271327
     11      -0.077289  -0.222489   0.394237   0.474005  -0.515514  -0.417326
     12       0.578419   0.109051  -0.076659   0.088090   0.120819  -0.044944
     13      -0.061333  -0.286469  -0.657041   0.250042   0.324593  -0.115322
     14       0.071675  -0.031482  -0.359599  -0.520654  -0.671424   0.254107
     15       0.577105  -0.037691   0.128702   0.057427  -0.014502   0.088966
     16       0.060905  -0.071095   0.085163  -0.564538   0.132289  -0.801182
     17      -0.011368  -0.779695  -0.153571   0.037687  -0.002237   0.054485


-----------
IR SPECTRUM
-----------

 Mode    freq (cm**-1)   T**2         TX         TY         TZ
-------------------------------------------------------------------
   7:       211.79   25.979562  (  0.000657   1.507404   4.869014)
   8:       218.06   26.018704  (  0.081921   4.896348  -1.427505)
   9:       272.35    3.842406  (  1.957335  -0.097990   0.040561)
  10:       903.91    2.165856  (  0.038874   0.803267   1.232520)
  11:       907.33    2.195082  (  0.004313   1.267048  -0.767889)
  12:      1050.22   13.229363  ( -3.632428   0.170017   0.076974)
  13:      1346.74    9.005053  ( -0.026875   0.328398  -2.982698)
  14:      1347.54    9.866209  ( -0.156587  -3.117212  -0.353096)
  15:      3108.18    1.215837  ( -1.100526   0.032236   0.060343)
  16:      3310.06    0.004641  ( -0.055151  -0.016592  -0.036386)
  17:      3312.60    0.008518  ( -0.050980  -0.068688  -0.034650)

The first frequency considered to be a vibration is 7
The total number of vibrations considered is 11


--------------------------
THERMOCHEMISTRY AT 298.15K
--------------------------

Temperature         ... 298.15 K
Pressure            ... 1.00 atm
Total Mass          ... 69.49 AMU

Throughout the following assumptions are being made:
  (1) The electronic state is orbitally nondegenerate
  (2) There are no thermally accessible electronically excited states
  (3) Hindered rotations indicated by low frequency modes are not
      treated as such but are treated as vibrations and this may
      cause some error
  (4) All equations used are the standard statistical mechanics
      equations for an ideal gas
  (5) All vibrations are strictly harmonic

freq.     211.79  E(vib)   ...       0.34 
freq.     218.06  E(vib)   ...       0.33 
freq.     272.35  E(vib)   ...       0.29 
freq.     903.91  E(vib)   ...       0.03 
freq.     907.33  E(vib)   ...       0.03 
freq.    1050.22  E(vib)   ...       0.02 
freq.    1346.74  E(vib)   ...       0.01 
freq.    1347.54  E(vib)   ...       0.01 
freq.    3108.18  E(vib)   ...       0.00 
freq.    3310.06  E(vib)   ...       0.00 
freq.    3312.60  E(vib)   ...       0.00 

------------
INNER ENERGY
------------

The inner energy is: U= E(el) + E(ZPE) + E(vib) + E(rot) + E(trans)
    E(el)   - is the total energy from the electronic structure calculation
              = E(kin-el) + E(nuc-el) + E(el-el) + E(nuc-nuc)
    E(ZPE)  - the the zero temperature vibrational energy from the frequency calculation
    E(vib)  - the the finite temperature correction to E(ZPE) due to population
              of excited vibrational states
    E(rot)  - is the rotational thermal energy
    E(trans)- is the translational thermal energy

Summary of contributions to the inner energy U:
Electronic energy                ...   -599.47915042 Eh
Zero point energy                ...      0.03642508 Eh      22.86 kcal/mol
Thermal vibrational correction   ...      0.00168593 Eh       1.06 kcal/mol
Thermal rotational correction    ...      0.00141627 Eh       0.89 kcal/mol
Thermal translational correction ...      0.00141627 Eh       0.89 kcal/mol
-----------------------------------------------------------------------
Total thermal energy                   -599.43820687 Eh


Summary of corrections to the electronic energy:
(perhaps to be used in another calculation)
Total thermal correction                  0.00451847 Eh       2.84 kcal/mol
Non-thermal (ZPE) correction              0.03642508 Eh      22.86 kcal/mol
-----------------------------------------------------------------------
Total correction                          0.04094355 Eh      25.69 kcal/mol


--------
ENTHALPY
--------

The enthalpy is H = U + kB*T
                kB is Boltzmann's constant
Total free energy                 ...   -599.43820687 Eh 
Thermal Enthalpy correction       ...      0.00094421 Eh       0.59 kcal/mol
-----------------------------------------------------------------------
Total Enthalpy                    ...   -599.43726266 Eh


Note: Rotational entropy computed according to Herzberg 
Infrared and Raman Spectra, Chapter V,1, Van Nostrand Reinhold, 1945 
Point Group:  C1, Symmetry Number:   1  
Rotational constants in cm-1:     4.792204     0.074544     0.074543 

Vibrational entropy computed according to the QRRHO of S. Grimme
Chem.Eur.J. 2012 18 9955


-------
ENTROPY
-------

The entropy contributions are T*S = T*(S(el)+S(vib)+S(rot)+S(trans))
     S(el)   - electronic entropy
     S(vib)  - vibrational entropy
     S(rot)  - rotational entropy
     S(trans)- translational entropy
The entropies will be listed as mutliplied by the temperature to get
units of energy

Electronic entropy                ...      0.00000000 Eh      0.00 kcal/mol
Vibrational entropy               ...      0.00284727 Eh      1.79 kcal/mol
Rotational entropy                ...      0.01122250 Eh      7.04 kcal/mol
Translational entropy             ...      0.01835566 Eh     11.52 kcal/mol
-----------------------------------------------------------------------
Final entropy term                ...      0.03242543 Eh     20.35 kcal/mol


-------------------
GIBBS FREE ENTHALPY
-------------------

The Gibbs free enthalpy is G = H - T*S

Total enthalpy                    ...   -599.43726266 Eh 
Total entropy correction          ...     -0.03242543 Eh    -20.35 kcal/mol
-----------------------------------------------------------------------
Final Gibbs free enthalpy         ...   -599.46968809 Eh

For completeness - the Gibbs free enthalpy minus the electronic energy
G-E(el)                           ...      0.00946233 Eh      5.94 kcal/mol

Actual Hessian File stored as orca1d_01_12_orca_opt.001.hess
------------------------------------------------------------------------------
                         ORCA GEOMETRY RELAXATION STEP
------------------------------------------------------------------------------

Reading the OPT-File                    .... done
Getting information on internals        .... done
Copying old internal coords+grads       .... done
Making the new internal coordinates     .... (new redundants).... done
Validating the new internal coordinates .... (new redundants).... done
Calculating the B-matrix                .... done
Calculating the G,G- and P matrices     .... done
Transforming gradient to internals      .... done
Projecting the internal gradient        .... done
Number of atoms                         ....   6
Number of internal coordinates          ....  17
Current Energy                          ....  -599.479150419 Eh
Current gradient norm                   ....     0.016970586 Eh/bohr
Maximum allowed component of the step   ....  0.300
Current trust radius                    ....  0.200
Evaluating the initial hessian          ....  (read) 
(Reading Exact Hessian)...  
InHessName: orca1d_01_12_orca_opt.hess	The file <orca1d_01_12_orca_opt.hess> is opened as a .hess file
done
done
Diagonalizing the Hessian               .... done
Dimension of the hessian                .... 17
Lowest eigenvalues of the non projected Hessian:
 -0.021842422 -0.000042587 -0.000012473 -0.000005780  0.000017595
done
Projecting the Hessian                  .... done
Diagonalizing the Hessian               .... done
Dimension of the hessian                ....  17
Lowest eigenvalues of the Hessian:
 -0.021851206  0.010015751  0.010511363  0.017483889  0.092566715
Hessian has   1 negative eigenvalues
Taking P-RFO step
Searching for lambda that maximizes along the lowest mode
TS mode is mode number   0 with eigenvalue  -0.02185121 and components:
   1.   -0.56812283
   2.    0.59763471
   3.   -0.09285566
   4.   -0.00386157
   5.   -0.00379466
   6.   -0.09513173
   7.   -0.10050922
   8.   -0.00406875
   9.   -0.20677105
  10.    0.10813939
  11.   -0.20716427
  12.    0.10747031
  13.    0.10727891
  14.    0.20855416
  15.    0.20772925
  16.    0.20519244
  17.   -0.20754454

Lambda that maximizes along the TS mode:       0.00161082
Searching for lambda that minimizes along all other modes
In cycle   1: lambdaN =  -0.00158065   step =   0.00158065
In cycle   2: lambdaN =  -0.00158563   step =   0.00000498
In cycle   3: lambdaN =  -0.00158563   step =   0.00000000
Lambda that minimizes along all other modes:  -0.00158563
Calculated stepsize too large (   0.3154 >    0.2000). Scaled with    0.6341.
The final length of the internal step   ....       0.2000
Converting the step to cartesian space:
 Initial RMS(Int)=    0.0485071250
Transforming coordinates:
 Iter   0:  RMS(Cart)=    0.0307079512 RMS(Int)=    0.0482016700
 Iter   1:  RMS(Cart)=    0.0008616545 RMS(Int)=    0.0010042975
 Iter   2:  RMS(Cart)=    0.0000266186 RMS(Int)=    0.0000223614
 Iter   3:  RMS(Cart)=    0.0000007716 RMS(Int)=    0.0000010170
 Iter   4:  RMS(Cart)=    0.0000000340 RMS(Int)=    0.0000000306
done
Storing new coordinates                 .... done

                                .--------------------.
          ----------------------|Geometry convergence|-------------------------
          Item                value                   Tolerance       Converged
          ---------------------------------------------------------------------
          RMS gradient        0.0037881111            0.0001000000      NO
          MAX gradient        0.0114382186            0.0003000000      NO
          RMS step            0.0485071250            0.0020000000      NO
          MAX step            0.1274340710            0.0040000000      NO
          ........................................................
          Max(Bonds)      0.0674      Max(Angles)    3.87
          Max(Dihed)        0.00      Max(Improp)    0.00
          ---------------------------------------------------------------------

The optimization has not yet converged - more geometry cycles are needed


    ---------------------------------------------------------------------------
                         Redundant Internal Coordinates
                            (Angstroem and degrees)

        Definition                    Value    dE/dq     Step     New-Value  comp.(TS mode)
    ----------------------------------------------------------------------------
     1. B(C   1,F   0)                2.0932 -0.000797 -0.0674    2.0257          0.57
     2. B(Cl  2,C   1)                2.1133  0.011438  0.0212    2.1345          0.60
     3. B(H   3,F   0)                2.2018 -0.001321  0.0086    2.2104   
     4. B(H   3,C   1)                1.0918  0.006068 -0.0053    1.0864   
     5. B(H   4,C   1)                1.0919  0.005572 -0.0058    1.0862   
     6. B(H   4,F   0)                2.2065 -0.000302 -0.0173    2.1891   
     7. B(H   5,F   0)                2.2077  0.000812 -0.0441    2.1636   
     8. B(H   5,C   1)                1.0916  0.005551 -0.0067    1.0849   
     9. A(Cl  2,C   1,H   4)           98.91  0.000846   -2.44     96.46   
    10. A(H   3,C   1,H   4)          117.70  0.000288    1.03    118.73   
    11. A(Cl  2,C   1,H   5)           98.97  0.002417   -2.48     96.48   
    12. A(H   3,C   1,H   5)          117.59 -0.000544    1.30    118.89   
    13. A(H   4,C   1,H   5)          117.61 -0.001007    1.44    119.05   
    14. A(F   0,C   1,H   3)           80.87 -0.001404    3.87     84.74   
    15. A(F   0,C   1,H   4)           81.13 -0.000801    2.43     83.56   
    16. A(F   0,C   1,H   5)           81.20 -0.000224    0.96     82.16   
    17. A(Cl  2,C   1,H   3)           98.93 -0.000830   -2.35     96.59   
    ----------------------------------------------------------------------------

         *************************************************************
         *                GEOMETRY OPTIMIZATION CYCLE   2            *
         *************************************************************
---------------------------------
CARTESIAN COORDINATES (ANGSTROEM)
---------------------------------
  F     -2.452634    0.117277    0.044954
  C     -0.430729   -0.000208    0.006379
  Cl     1.702555   -0.070870   -0.009058
  H     -0.581095   -0.599138   -0.887511
  H     -0.561027   -0.472009    0.976017
  H     -0.517471    1.078649   -0.067780

----------------------------
CARTESIAN COORDINATES (A.U.)
----------------------------
  NO LB      ZA    FRAG     MASS         X           Y           Z
   0 F     9.0000    0    18.998   -4.634806    0.221622    0.084950
   1 C     6.0000    0    12.011   -0.813959   -0.000394    0.012055
   2 Cl   17.0000    0    35.453    3.217364   -0.133925   -0.017117
   3 H     1.0000    0     1.008   -1.098111   -1.132207   -1.677153
   4 H     1.0000    0     1.008   -1.060188   -0.891969    1.844404
   5 H     1.0000    0     1.008   -0.977879    2.038351   -0.128086

--------------------------------
INTERNAL COORDINATES (ANGSTROEM)
--------------------------------
 F      0   0   0     0.000000000000     0.00000000     0.00000000
 C      1   0   0     2.025682765177     0.00000000     0.00000000
 Cl     2   1   0     2.134510011761   178.41954088     0.00000000
 H      2   1   3     1.086447175817    84.80741431   210.55525800
 H      2   1   4     1.086172292180    83.59565937   240.42124497
 H      2   1   5     1.084876465756    82.17305437   239.57357575

---------------------------
INTERNAL COORDINATES (A.U.)
---------------------------
 F      0   0   0     0.000000000000     0.00000000     0.00000000
 C      1   0   0     3.827985660389     0.00000000     0.00000000
 Cl     2   1   0     4.033639352342   178.41954088     0.00000000
 H      2   1   3     2.053087621266    84.80741431   210.55525800
 H      2   1   4     2.052568166473    83.59565937   240.42124497
 H      2   1   5     2.050119409415    82.17305437   239.57357575



           ************************************************************
           *        Program running with 8 parallel MPI-processes     *
           *              working on a common directory               *
           ************************************************************
 One Electron integrals                  ... done
 Pre-screening matrix                    ... done


           ************************************************************
           *        Program running with 8 parallel MPI-processes     *
           *              working on a common directory               *
           ************************************************************

Diagonalization of the overlap matrix:
Smallest eigenvalue                        ... 1.287e-02
Time for diagonalization                   ...    0.001 sec
Threshold for overlap eigenvalues          ... 1.000e-08
Number of eigenvalues below threshold      ... 0
Time for construction of square roots      ...    0.001 sec
Total time needed                          ...    0.002 sec

-------------------
DFT GRID GENERATION
-------------------

General Integration Accuracy     IntAcc      ...  4.340
Radial Grid Type                 RadialGrid  ... Gauss-Chebyshev
Angular Grid (max. acc.)         AngularGrid ... Lebedev-110
Angular grid pruning method      GridPruning ... 3 (G Style)
Weight generation scheme         WeightScheme... Becke
Basis function cutoff            BFCut       ...    1.0000e-11
Integration weight cutoff        WCut        ...    1.0000e-14
Grids for H and He will be reduced by one unit

# of grid points (after initial pruning)     ...   7622 (   0.0 sec)
# of grid points (after weights+screening)   ...   7434 (   0.0 sec)
nearest neighbour list constructed           ...    0.0 sec
Grid point re-assignment to atoms done       ...    0.0 sec
Grid point division into batches done        ...    0.0 sec
Reduced shell lists constructed in    0.0 sec

Total number of grid points                  ...     7434
Total number of batches                      ...      119
Average number of points per batch           ...       62
Average number of grid points per atom       ...     1239
Average number of shells per batch           ...    17.69 (60.99%)
Average number of basis functions per batch  ...    36.06 (59.12%)
Average number of large shells per batch     ...    14.88 (84.10%)
Average number of large basis fcns per batch ...    29.50 (81.80%)
Maximum spatial batch extension              ...  12.83, 25.60, 19.31 au
Average spatial batch extension              ...   0.80,  1.23,  1.12 au

Time for grid setup =    0.017 sec

--------------------
COSX GRID GENERATION
--------------------

General Integration Accuracy     IntAcc      ...  3.340
Radial Grid Type                 RadialGrid  ... Gauss-Chebyshev
Angular Grid (max. acc.)         AngularGrid ... Lebedev-50
Angular grid pruning method      GridPruning ... 3 (G Style)
Weight generation scheme         WeightScheme... Becke
Basis function cutoff            BFCut       ...    1.0000e-11
Integration weight cutoff        WCut        ...    1.0000e-14
Grids for H and He will be reduced by one unit

# of grid points (after initial pruning)     ...   2826 (   0.0 sec)
# of grid points (after weights+screening)   ...   2758 (   0.0 sec)
nearest neighbour list constructed           ...    0.0 sec
Grid point re-assignment to atoms done       ...    0.0 sec
Grid point division into batches done        ...    0.0 sec
Reduced shell lists constructed in    0.0 sec

Total number of grid points                  ...     2758
Total number of batches                      ...       46
Average number of points per batch           ...       59
Average number of grid points per atom       ...      460
Average number of shells per batch           ...    19.29 (66.50%)
Average number of basis functions per batch  ...    39.86 (65.34%)
Average number of large shells per batch     ...    16.57 (85.93%)
Average number of large basis fcns per batch ...    34.57 (86.74%)
Maximum spatial batch extension              ...  12.22, 20.72, 20.72 au
Average spatial batch extension              ...   1.16,  1.54,  1.55 au

Overlap Fitting                  UseSFitting ... on
Constructing numerical overlap ... done (      0.0 sec)
Inverting numerical overlap    ... done (      0.0 sec)
Obtaining analytic overlap     ... done (      0.0 sec)
Final contraction and storage  ... done (      0.0 sec)


General Integration Accuracy     IntAcc      ...  3.670
Radial Grid Type                 RadialGrid  ... Gauss-Chebyshev
Angular Grid (max. acc.)         AngularGrid ... Lebedev-50
Angular grid pruning method      GridPruning ... 3 (G Style)
Weight generation scheme         WeightScheme... Becke
Basis function cutoff            BFCut       ...    1.0000e-11
Integration weight cutoff        WCut        ...    1.0000e-14
Grids for H and He will be reduced by one unit

# of grid points (after initial pruning)     ...   3566 (   0.0 sec)
# of grid points (after weights+screening)   ...   3478 (   0.0 sec)
nearest neighbour list constructed           ...    0.0 sec
Grid point re-assignment to atoms done       ...    0.0 sec
Grid point division into batches done        ...    0.0 sec
Reduced shell lists constructed in    0.0 sec

Total number of grid points                  ...     3478
Total number of batches                      ...       57
Average number of points per batch           ...       61
Average number of grid points per atom       ...      580
Average number of shells per batch           ...    19.89 (68.58%)
Average number of basis functions per batch  ...    41.44 (67.94%)
Average number of large shells per batch     ...    17.33 (87.15%)
Average number of large basis fcns per batch ...    36.00 (86.86%)
Maximum spatial batch extension              ...  13.54, 22.67, 22.67 au
Average spatial batch extension              ...   1.11,  1.44,  1.43 au

Overlap Fitting                  UseSFitting ... on
Constructing numerical overlap ... done (      0.0 sec)
Inverting numerical overlap    ... done (      0.0 sec)
Obtaining analytic overlap     ... done (      0.0 sec)
Final contraction and storage  ... done (      0.0 sec)


General Integration Accuracy     IntAcc      ...  4.010
Radial Grid Type                 RadialGrid  ... Gauss-Chebyshev
Angular Grid (max. acc.)         AngularGrid ... Lebedev-110
Angular grid pruning method      GridPruning ... 3 (G Style)
Weight generation scheme         WeightScheme... Becke
Basis function cutoff            BFCut       ...    1.0000e-11
Integration weight cutoff        WCut        ...    1.0000e-14
Grids for H and He will be reduced by one unit

# of grid points (after initial pruning)     ...   6574 (   0.0 sec)
# of grid points (after weights+screening)   ...   6416 (   0.0 sec)
nearest neighbour list constructed           ...    0.0 sec
Grid point re-assignment to atoms done       ...    0.0 sec
Grid point division into batches done        ...    0.0 sec
Reduced shell lists constructed in    0.0 sec

Total number of grid points                  ...     6416
Total number of batches                      ...      103
Average number of points per batch           ...       62
Average number of grid points per atom       ...     1069
Average number of shells per batch           ...    18.79 (64.78%)
Average number of basis functions per batch  ...    38.50 (63.11%)
[...]

Fock matrix formation       ....       2.064 sec  ( 84.1%)
  Split-RI-J                ....       0.566 sec  ( 27.4% of F)
  Chain of spheres X        ....       0.309 sec  ( 15.0% of F)
  COS-X 1 center corr.      ....       0.000 sec  (  0.0% of F)
  XC integration            ....       0.052 sec  (  2.5% of F)
    Basis function eval.    ....       0.011 sec  ( 22.0% of XC)
    Density eval.           ....       0.004 sec  (  8.6% of XC)
    XC-Functional eval.     ....       0.005 sec  (  9.1% of XC)
    XC-Potential eval.      ....       0.005 sec  (  9.1% of XC)
Diagonalization             ....       0.000 sec  (  0.0%)
Density matrix formation    ....       0.001 sec  (  0.0%)
Population analysis         ....       0.002 sec  (  0.1%)
Initial guess               ....       0.003 sec  (  0.1%)
Orbital Transformation      ....       0.000 sec  (  0.0%)
Orbital Orthonormalization  ....       0.001 sec  (  0.0%)
DIIS solution               ....       0.000 sec  (  0.0%)
SOSCF solution              ....       0.001 sec  (  0.0%)
Grid generation             ....       0.254 sec  ( 10.4%)


-------------------------------------------------------------------------------
                          DFT DISPERSION CORRECTION                            
                                                                               
                              DFTD3 V3.1  Rev 1                                
                          USING Becke-Johnson damping                          
-------------------------------------------------------------------------------
The PBE0 functional is recognized
Active option DFTDOPT                   ...         4   

molecular C6(AA) [au] = 484.476404 


            DFT-D V3
 parameters
 s6 scaling factor         :     1.0000 
 a1 scaling factor         :     0.4145 
 s8 scaling factor         :     1.2177 
 a2 scaling factor         :     4.8593 
 ad hoc parameters k1-k3   :    16.0000     1.3333    -4.0000 

 Edisp/kcal,au: -1.509121868070  -0.002404938522 
 E6   /kcal   :  -0.953548188 
 E8   /kcal   :  -0.555573680 
 % E8         :  36.814368129 

-------------------------   ----------------
Dispersion correction           -0.002404939
-------------------------   ----------------


-------------------------   --------------------
FINAL SINGLE POINT ENERGY      -599.479138605918
-------------------------   --------------------

                                *** OPTIMIZATION RUN DONE ***

                            ***************************************
                            *     ORCA property calculations      *
                            ***************************************

                                    ---------------------
                                    Active property flags
                                    ---------------------
   (+) Dipole Moment


------------------------------------------------------------------------------
                       ORCA ELECTRIC PROPERTIES CALCULATION
------------------------------------------------------------------------------

Dipole Moment Calculation                       ... on
Quadrupole Moment Calculation                   ... off
Polarizability Calculation                      ... off
GBWName                                         ... orca1d_01_12_orca_opt.gbw
Electron density file                           ... orca1d_01_12_orca_opt.scfp.tmp
The origin for moment calculation is the CENTER OF MASS  = ( 0.175514, -0.013417  0.019359)

-------------
DIPOLE MOMENT
-------------
                                X             Y             Z
Electronic contribution:      3.00288      -0.09696      -0.01243
Nuclear contribution   :     -1.59513       0.01611      -0.02194
                        -----------------------------------------
Total Dipole Moment    :      1.40776      -0.08085      -0.03437
                        -----------------------------------------
Magnitude (a.u.)       :      1.41049
Magnitude (Debye)      :      3.58519



--------------------
Rotational spectrum 
--------------------
 
Rotational constants in cm-1:     4.786911     0.077013     0.077010 
Rotational constants in MHz : 143507.991166  2308.778276  2308.706893 

 Dipole components along the rotational axes: 
x,y,z [a.u.] :     1.410264    -0.019441    -0.016441 
x,y,z [Debye]:     3.584606    -0.049415    -0.041789 

 


           ************************************************************
           *        Program running with 8 parallel MPI-processes     *
           *              working on a common directory               *
           ************************************************************

-------------------------------------------------------------------------------
                               ORCA SCF HESSIAN
-------------------------------------------------------------------------------

Hessian of the Kohn-Sham DFT energy:
Kohn-Sham wavefunction type                      ... RKS
Hartree-Fock exchange scaling                    ...    0.250
Number of operators                              ...    1
Number of atoms                                  ...    6
Basis set dimensions                             ...   61
Integral neglect threshold                       ... 2.5e-11
Integral primitive cutoff                        ... 2.5e-12

Setting up DFT Hessian calculations              ... 
Electron density on the grid                     ... found on disk
Electron density on the final grid               ... found on disk
Building xc-kernel on the grid                   ... done   (      0.0 sec)
Building xc-kernel on the final grid             ... done   (      0.0 sec)
                                                     done   (      0.0 sec)

Nuclear repulsion Hessian                        ... done   (      0.0 sec)
C-PCM contribution to the Fock matrix            ... done   (      0.3 sec)

----------------------------------------------
Forming right-hand sides of CP-SCF equations     ...
----------------------------------------------
One electron integral derivatives                ... done   (      0.1 sec)
Transforming the overlap derivative matrices     ... done   (      0.0 sec)
Adding tr(S(x)F(y) C-PCM term to the hessian     ... done   (      0.2 sec)
Making the Q(x) pseudodensities                  ... done   (      0.0 sec)
Adding the E*S(x)*S(y) terms to the Hessian      ... done   (      0.0 sec)
Calculating energy weighted overlap derivatives  ... done   (      0.0 sec)
Two electron integral derivatives (RI)           ... done   (      0.3 sec)
Exchange-correlation integral derivatives        ... done   (      0.3 sec)
tr(F(y)Q(x)) contribution to the Hessian         ... done   (      0.0 sec)
Response fock operator R(S(x)) (RIJCOSX)         ... done   (      0.3 sec)
XC Response fock operator R(S(x))                ... done   (      0.1 sec)
tr(F(y)S(x)) contribution to the Hessian         ... done   (      0.0 sec)
Transforming and finalizing RHSs                 ... done   (      0.0 sec)

----------------------------------------------
Solving the CP-SCF equations (RIJCOSX)           ...
----------------------------------------------
     CP-SCF ITERATION   0: 
     CP-SCF ITERATION   1:      0.000455955683
     CP-SCF ITERATION   2:      0.000076652513
     CP-SCF ITERATION   3:      0.000004581282
     CP-SCF ITERATION   4:      0.000000164831
     CP-SCF ITERATION   5:      0.000000004765

                                                 ... done   (      2.5 sec)
Forming perturbed density Hessian contributions  ... done   (      0.0 sec)
Calculating [Q*(d^2 A/dXdY)*Q  ] C-PCM term      ... done   (      0.0 sec)
Calculating [d^2(V_N)/(dXdY)*Q ] C-PCM term      ... done   (      0.0 sec)
Calculating [d^2(V_el)/(dXdY)*Q] C-PCM term      ... done   (      0.1 sec)
Calculating C-PCM term that depends on dQ/dX     ... done   (      0.0 sec)
2nd integral derivative contribs (RI)            ... done   (      0.7 sec)
Exchange-correlation Hessian                     ... done   (      0.3 sec)
Dispersion correction in the Hessian             ... done   (      0.6 sec)
Dipol derivatives                                ... done   (      0.1 sec)

Total SCF Hessian time: 0 days 0 hours 0 min 6 sec 

Writing the Hessian file to the disk             ... done


Maximum memory used throughout the entire calculation: 121.9 MB

-----------------------
VIBRATIONAL FREQUENCIES
-----------------------

Scaling factor for frequencies =  1.000000000  (already applied!)

   0:         0.00 cm**-1
   1:         0.00 cm**-1
   2:         0.00 cm**-1
   3:         0.00 cm**-1
   4:         0.00 cm**-1
   5:         0.00 cm**-1
   6:      -509.63 cm**-1 ***imaginary mode***
   7:       230.46 cm**-1
   8:       236.61 cm**-1
   9:       290.96 cm**-1
  10:       920.52 cm**-1
  11:       927.16 cm**-1
  12:      1042.05 cm**-1
  13:      1323.00 cm**-1
  14:      1329.66 cm**-1
  15:      3174.02 cm**-1
  16:      3389.29 cm**-1
  17:      3397.79 cm**-1


------------
NORMAL MODES
------------

These modes are the Cartesian displacements weighted by the diagonal matrix
M(i,i)=1/sqrt(m[i]) where m[i] is the mass of the displaced atom
Thus, these vectors are normalized but *not* orthogonal

                  0          1          2          3          4          5    
      0       0.000000   0.000000   0.000000   0.000000   0.000000   0.000000
      1       0.000000   0.000000   0.000000   0.000000   0.000000   0.000000
      2       0.000000   0.000000   0.000000   0.000000   0.000000   0.000000
      3       0.000000   0.000000   0.000000   0.000000   0.000000   0.000000
      4       0.000000   0.000000   0.000000   0.000000   0.000000   0.000000
      5       0.000000   0.000000   0.000000   0.000000   0.000000   0.000000
      6       0.000000   0.000000   0.000000   0.000000   0.000000   0.000000
      7       0.000000   0.000000   0.000000   0.000000   0.000000   0.000000
      8       0.000000   0.000000   0.000000   0.000000   0.000000   0.000000
      9       0.000000   0.000000   0.000000   0.000000   0.000000   0.000000
     10       0.000000   0.000000   0.000000   0.000000   0.000000   0.000000
     11       0.000000   0.000000   0.000000   0.000000   0.000000   0.000000
     12       0.000000   0.000000   0.000000   0.000000   0.000000   0.000000
     13       0.000000   0.000000   0.000000   0.000000   0.000000   0.000000
     14       0.000000   0.000000   0.000000   0.000000   0.000000   0.000000
     15       0.000000   0.000000   0.000000   0.000000   0.000000   0.000000
     16       0.000000   0.000000   0.000000   0.000000   0.000000   0.000000
     17       0.000000   0.000000   0.000000   0.000000   0.000000   0.000000
                  6          7          8          9         10         11    
      0       0.269496  -0.005837   0.005532   0.819705   0.000889  -0.001155
      1      -0.017473  -0.081133   0.177090  -0.032846   0.005114  -0.008600
      2      -0.008717  -0.177439  -0.081094  -0.009058   0.008402   0.005055
      3      -0.890068   0.021469  -0.018898   0.159279  -0.002247   0.000251
      4       0.044040   0.191859  -0.419277  -0.014693   0.018417  -0.031513
      5       0.017402   0.420035   0.191956  -0.005181   0.031658   0.018802
      6       0.142938  -0.005210   0.004853  -0.503761  -0.000843   0.000159
      7      -0.005997  -0.038938   0.085104   0.023805  -0.006409   0.010938
      8      -0.001953  -0.085273  -0.038973   0.007086  -0.011006  -0.006500
      9       0.126180  -0.085897  -0.001781   0.112554   0.822828  -0.042565
     10      -0.044409   0.224272  -0.410720  -0.009509  -0.052172   0.066520
     11      -0.065926   0.431130   0.181094   0.000757  -0.044293  -0.040453
     12       0.173352   0.076107   0.058401   0.127113  -0.432803  -0.672319
     13      -0.039539   0.186544  -0.490136  -0.013667  -0.029726   0.079624
     14       0.091995   0.434180   0.179302  -0.011161  -0.041544  -0.004960
     15       0.199636   0.047249  -0.106380   0.131346  -0.350343   0.728043
     16       0.099419   0.201684  -0.434072  -0.019970  -0.008538   0.006748
     17      -0.000444   0.473099   0.251460  -0.006364  -0.062629  -0.045264
                 12         13         14         15         16         17    
      0       0.042100  -0.000281  -0.000204  -0.000250  -0.000018  -0.000073
      1      -0.002106  -0.000364  -0.001584   0.000035  -0.000080  -0.000778
      2      -0.000525  -0.001545   0.000365   0.000006  -0.000788   0.000129
      3       0.003758   0.002204   0.003563  -0.012930   0.001402   0.003467
      4       0.000471   0.021905   0.088319  -0.001603   0.012971   0.102682
      5       0.000909   0.088733  -0.021616   0.000436   0.102557  -0.013227
      6       0.025096   0.000053   0.000031   0.000078   0.000000  -0.000000
      7      -0.000942  -0.000049  -0.000024  -0.000002  -0.000037  -0.000384
      8      -0.000407  -0.000070  -0.000035  -0.000006  -0.000378   0.000065
      9      -0.551637  -0.086139  -0.054654   0.068885  -0.089589  -0.043331
     10       0.050720   0.282644  -0.602977   0.322620  -0.403354  -0.190416
     11       0.046487  -0.077442   0.448599   0.481824  -0.597174  -0.292503
     12      -0.588198   0.057086  -0.091220   0.057534   0.070400  -0.044823
     13       0.046742  -0.496548  -0.520484   0.254900   0.297865  -0.184905
     14      -0.041636  -0.160016  -0.326059  -0.525123  -0.605042   0.389134
     15      -0.581083   0.006216   0.106171   0.029642   0.002804   0.048238
     16      -0.030257  -0.038526   0.101773  -0.558991  -0.046272  -0.820035
     17       0.008526  -0.788281   0.129375   0.038192   0.008336   0.056268


-----------
IR SPECTRUM
-----------

 Mode    freq (cm**-1)   T**2         TX         TY         TZ
-------------------------------------------------------------------
   7:       230.46   26.228535  (  0.501099   2.148313   4.621924)
   8:       236.61   26.365106  ( -0.327982  -4.672355   2.103956)
   9:       290.96    2.062171  ( -1.435398   0.042374  -0.002738)
  10:       920.52    1.230299  ( -0.457677  -0.535411  -0.856835)
  11:       927.16    1.347705  (  0.205324   0.996095  -0.559770)
  12:      1042.05    5.365847  (  2.313029  -0.111966  -0.056626)
  13:      1323.00    9.160576  (  0.003691  -0.773196  -2.926214)
  14:      1329.66   10.005869  ( -0.081171  -3.079366   0.718879)
  15:      3174.02    1.453090  ( -1.203817  -0.060743  -0.014970)
  16:      3389.29    0.015050  (  0.052858   0.027665   0.107193)
  17:      3397.79    0.002736  (  0.030930  -0.039956   0.013532)

The first frequency considered to be a vibration is 7
The total number of vibrations considered is 11


--------------------------
THERMOCHEMISTRY AT 298.15K
--------------------------

Temperature         ... 298.15 K
Pressure            ... 1.00 atm
Total Mass          ... 69.49 AMU

Throughout the following assumptions are being made:
  (1) The electronic state is orbitally nondegenerate
  (2) There are no thermally accessible electronically excited states
  (3) Hindered rotations indicated by low frequency modes are not
      treated as such but are treated as vibrations and this may
      cause some error
  (4) All equations used are the standard statistical mechanics
      equations for an ideal gas
  (5) All vibrations are strictly harmonic

freq.     230.46  E(vib)   ...       0.32 
freq.     236.61  E(vib)   ...       0.32 
freq.     290.96  E(vib)   ...       0.27 
freq.     920.52  E(vib)   ...       0.03 
freq.     927.16  E(vib)   ...       0.03 
freq.    1042.05  E(vib)   ...       0.02 
freq.    1323.00  E(vib)   ...       0.01 
freq.    1329.66  E(vib)   ...       0.01 
freq.    3174.02  E(vib)   ...       0.00 
freq.    3389.29  E(vib)   ...       0.00 
freq.    3397.79  E(vib)   ...       0.00 

------------
INNER ENERGY
------------

The inner energy is: U= E(el) + E(ZPE) + E(vib) + E(rot) + E(trans)
    E(el)   - is the total energy from the electronic structure calculation
              = E(kin-el) + E(nuc-el) + E(el-el) + E(nuc-nuc)
    E(ZPE)  - the the zero temperature vibrational energy from the frequency calculation
    E(vib)  - the the finite temperature correction to E(ZPE) due to population
              of excited vibrational states
    E(rot)  - is the rotational thermal energy
    E(trans)- is the translational thermal energy

Summary of contributions to the inner energy U:
Electronic energy                ...   -599.47913861 Eh
Zero point energy                ...      0.03704645 Eh      23.25 kcal/mol
Thermal vibrational correction   ...      0.00160183 Eh       1.01 kcal/mol
Thermal rotational correction    ...      0.00141627 Eh       0.89 kcal/mol
Thermal translational correction ...      0.00141627 Eh       0.89 kcal/mol
-----------------------------------------------------------------------
Total thermal energy                   -599.43765778 Eh


Summary of corrections to the electronic energy:
(perhaps to be used in another calculation)
Total thermal correction                  0.00443438 Eh       2.78 kcal/mol
Non-thermal (ZPE) correction              0.03704645 Eh      23.25 kcal/mol
-----------------------------------------------------------------------
Total correction                          0.04148082 Eh      26.03 kcal/mol


--------
ENTHALPY
--------

The enthalpy is H = U + kB*T
                kB is Boltzmann's constant
Total free energy                 ...   -599.43765778 Eh 
Thermal Enthalpy correction       ...      0.00094421 Eh       0.59 kcal/mol
-----------------------------------------------------------------------
Total Enthalpy                    ...   -599.43671357 Eh


Note: Rotational entropy computed according to Herzberg 
Infrared and Raman Spectra, Chapter V,1, Van Nostrand Reinhold, 1945 
Point Group:  C1, Symmetry Number:   1  
Rotational constants in cm-1:     4.786911     0.077013     0.077010 

Vibrational entropy computed according to the QRRHO of S. Grimme
Chem.Eur.J. 2012 18 9955


-------
ENTROPY
-------

The entropy contributions are T*S = T*(S(el)+S(vib)+S(rot)+S(trans))
     S(el)   - electronic entropy
     S(vib)  - vibrational entropy
     S(rot)  - rotational entropy
     S(trans)- translational entropy
The entropies will be listed as mutliplied by the temperature to get
units of energy

Electronic entropy                ...      0.00000000 Eh      0.00 kcal/mol
Vibrational entropy               ...      0.00264605 Eh      1.66 kcal/mol
Rotational entropy                ...      0.01119226 Eh      7.02 kcal/mol
Translational entropy             ...      0.01835566 Eh     11.52 kcal/mol
-----------------------------------------------------------------------
Final entropy term                ...      0.03219397 Eh     20.20 kcal/mol


-------------------
GIBBS FREE ENTHALPY
-------------------

The Gibbs free enthalpy is G = H - T*S

Total enthalpy                    ...   -599.43671357 Eh 
Total entropy correction          ...     -0.03219397 Eh    -20.20 kcal/mol
-----------------------------------------------------------------------
Final Gibbs free enthalpy         ...   -599.46890754 Eh

For completeness - the Gibbs free enthalpy minus the electronic energy
G-E(el)                           ...      0.01023106 Eh      6.42 kcal/mol


Timings for individual modules:

Sum of individual times         ...       50.669 sec (=   0.844 min)
GTO integral calculation        ...        4.897 sec (=   0.082 min)   9.7 %
SCF iterations                  ...       24.520 sec (=   0.409 min)  48.4 %
SCF Gradient evaluation         ...        6.325 sec (=   0.105 min)  12.5 %
Geometry relaxation             ...        0.214 sec (=   0.004 min)   0.4 %
Analytical frequency calculation...       14.713 sec (=   0.245 min)  29.0 %
                             ****ORCA TERMINATED NORMALLY****
TOTAL RUN TIME: 0 days 0 hours 0 minutes 52 seconds 725 msec
