
                                 *****************
                                 * O   R   C   A *
                                 *****************

           --- An Ab Initio, DFT and Semiempirical electronic structure package ---

                  #######################################################
                  #                        -***-                        #
                  #          Department of theory and spectroscopy      #
                  #               Directorship: Frank Neese             #
                  #        Max Planck Institute fuer Kohlenforschung    #
                  #                Kaiser Wilhelm Platz 1               #
                  #                 D-45470 Muelheim/Ruhr               #
                  #                      Germany                        #
                  #                                                     #
                  #                  All rights reserved                #
                  #                        -***-                        #
                  #######################################################


                         Program Version 4.1.1  - RELEASE  -


 With contributions from (in alphabetic order):
   Daniel Aravena         : Magnetic Properties
   Michael Atanasov       : Ab Initio Ligand Field Theory
   Alexander A. Auer      : GIAO ZORA
   Ute Becker             : Parallelization
   Giovanni Bistoni       : ED, Open-shell LED
   Martin Brehm           : Molecular dynamics
   Dmytro Bykov           : SCF Hessian
   Vijay G. Chilkuri      : MRCI spin determinant printing
   Dipayan Datta          : RHF DLPNO-CCSD density
   Achintya Kumar Dutta   : EOM-CC, STEOM-CC
   Dmitry Ganyushin       : Spin-Orbit,Spin-Spin,Magnetic field MRCI
   Miquel Garcia          : C-PCM Hessian
   Yang Guo               : DLPNO-NEVPT2, CIM, IAO-localization
   Andreas Hansen         : Spin unrestricted coupled pair/coupled cluster methods
   Benjamin Helmich-Paris : CASSCF linear response (MC-RPA)
   Lee Huntington         : MR-EOM, pCC
   Robert Izsak           : Overlap fitted RIJCOSX, COSX-SCS-MP3, EOM
   Christian Kollmar      : KDIIS, OOCD, Brueckner-CCSD(T), CCSD density
   Simone Kossmann        : Meta GGA functionals, TD-DFT gradient, OOMP2, MP2 Hessian
   Martin Krupicka        : AUTO-CI
   Lucas Lang             : DCDCAS
   Dagmar Lenk            : GEPOL surface, SMD
   Dimitrios Liakos       : Extrapolation schemes; parallel MDCI
   Dimitrios Manganas     : ROCIS; embedding schemes
   Dimitrios Pantazis     : SARC Basis sets
   Taras Petrenko         : DFT Hessian,TD-DFT gradient, ASA, ECA, R-Raman, ABS, FL, XAS/XES, NRVS
   Peter Pinski           : DLPNO-MP2, DLPNO-MP2 Gradient
   Christoph Reimann      : Effective Core Potentials
   Marius Retegan         : Local ZFS, SOC
   Christoph Riplinger    : Optimizer, TS searches, QM/MM, DLPNO-CCSD(T), (RO)-DLPNO pert. Triples
   Tobias Risthaus        : Range-separated hybrids, TD-DFT gradient, RPA, STAB
   Michael Roemelt        : Restricted open shell CIS
   Masaaki Saitow         : Open-shell DLPNO
   Barbara Sandhoefer     : DKH picture change effects
   Avijit Sen             : IP-ROCIS
   Kantharuban Sivalingam : CASSCF convergence, NEVPT2, FIC-MRCI
   Bernardo de Souza      : ESD, SOC TD-DFT
   Georgi Stoychev        : AutoAux, RI-MP2 NMR
   Willem Van den Heuvel  : Paramagnetic NMR
   Boris Wezisla          : Elementary symmetry handling
   Frank Wennmohs         : Technical directorship


 We gratefully acknowledge several colleagues who have allowed us to
 interface, adapt or use parts of their codes:
   Stefan Grimme, W. Hujo, H. Kruse,             : VdW corrections, initial TS optimization,
                  C. Bannwarth                     DFT functionals, gCP, sTDA/sTD-DF
   Ed Valeev                                     : LibInt (2-el integral package), F12 methods
   Garnet Chan, S. Sharma, J. Yang, R. Olivares  : DMRG
   Ulf Ekstrom                                   : XCFun DFT Library
   Mihaly Kallay                                 : mrcc  (arbitrary order and MRCC methods)
   Andreas Klamt, Michael Diedenhofen            : otool_cosmo (COSMO solvation model)
   Jiri Pittner, Ondrej Demel                    : Mk-CCSD
   Frank Weinhold                                : gennbo (NPA and NBO analysis)
   Christopher J. Cramer and Donald G. Truhlar   : smd solvation model
   Lars Goerigk                                  : TD-DFT with DH, B97 family of functionals
   V. Asgeirsson, H. Jonsson                     : NEB implementation
   FAccTs GmbH                                   : IRC, NEB, NEB-TS, Multilevel


 Your calculation uses the libint2 library for the computation of 2-el integrals
 For citations please refer to: http://libint.valeyev.net

 This ORCA versions uses:
   CBLAS   interface :  Fast vector & matrix operations
   LAPACKE interface :  Fast linear algebra routines
   SCALAPACK package :  Parallel linear algebra routines


Your calculation utilizes the atom-pairwise dispersion correction
with the Becke-Johnson damping scheme (D3BJ)
Cite in your paper:
S.Grimme, S.Ehrlich, L.Goerigk, J Comput Chem, (2011), 32, 1456–1465 
S.Grimme, J.Antony, S.Ehrlich and H.Krieg, J.Chem.Phys., 132, (2010), 154104 
   

Your calculation utilizes the SMD solvation module
Please cite in your paper:
A.V. Marenich, C.J. Cramer, D.G. Truhlar J. Phys. Chem. B, 113, (2009), 6378 

----- Orbital basis set information -----
Your calculation utilizes the basis: def2-SVP
   F. Weigend and R. Ahlrichs, Phys. Chem. Chem. Phys. 7, 3297 (2005).

----- AuxJ basis set information -----
Your calculation utilizes the auxiliary basis: def2/J
   F. Weigend, Phys. Chem. Chem. Phys. 8, 1057 (2006).

================================================================================
                                        WARNINGS
                       Please study these warnings very carefully!
================================================================================


WARNING: Geometry Optimization
  ===> : Switching off AutoStart
         For restart on a previous wavefunction, please use MOREAD

INFO   : the flag for use of LIBINT has been found!

================================================================================
                                       INPUT FILE
================================================================================
NAME = orca1d_01_12_orca_scan.inp
|  1> ! LooseOpt PBE RI D3BJ def2-SVP def2/J PAL8
|  2> %cpcm
|  3>  smd true
|  4>  SMDsolvent "water"
|  5>  end
|  6> %geom Scan
|  7>     B 1 2 = 1.78, 3.28, 10
|  8>     end
|  9> end
| 10> %geom MaxIter 100 end
| 11> %scf 
| 12> maxiter 250 
| 13> end
| 14> % maxcore 4000
| 15> *xyz -1 1
| 16> F  -3.55940000  0.10220000 -0.00400000 
| 17> C   0.00000000  0.00000000  0.00000000 
| 18> Cl  1.77970000 -0.05110000  0.00200000 
| 19> H  -0.40050000 -0.59420000 -0.82930000 
| 20> H  -0.36420000 -0.46750000  0.94030000 
| 21> H  -0.29600000  1.06430000 -0.04600000 
| 22> *
| 23> 
| 24>                          ****END OF INPUT****
================================================================================

                       ******************************
                       *    Relaxed Surface Scan    *
                       ******************************

                      Bond (  2,   1):   range=   1.78000000 ..   3.28000000  steps =   10

There is 1 parameter to be scanned.
There will be   10 constrained geometry optimizations.


         *************************************************************
         *               RELAXED SURFACE SCAN STEP   1               *
         *                                                           *
         *                 Bond (  2,   1)  :   1.78000000           *
         *************************************************************

Geometry optimization settings:
Update method            Update   .... BFGS
Choice of coordinates    CoordSys .... Z-matrix Internals
Initial Hessian          InHess   .... Almoef's Model

Convergence Tolerances:
Energy Change            TolE     ....  3.0000e-05 Eh
Max. Gradient            TolMAXG  ....  2.0000e-03 Eh/bohr
RMS Gradient             TolRMSG  ....  5.0000e-04 Eh/bohr
Max. Displacement        TolMAXD  ....  1.0000e-02 bohr
RMS Displacement         TolRMSD  ....  7.0000e-03 bohr

------------------------------------------------------------------------------
                        ORCA OPTIMIZATION COORDINATE SETUP
------------------------------------------------------------------------------

The optimization will be done in new redundant internal coordinates
Making redundant internal coordinates   ...  (new redundants) done
Evaluating the initial hessian          ...  (Almloef) done
Evaluating the coordinates              ...  done
Calculating the B-matrix                .... done
Calculating the G-matrix                .... done
Diagonalizing the G-matrix              .... done
Imposing constraints:
 Iter   0:  RMS(Cart)=    0.0001767016 RMS(Int)=    0.0000000000
 Iter   1:  RMS(Cart)=    0.0000000000 RMS(Int)=    0.0000000000
CONVERGED
The first mode is                       ....    5
The number of degrees of freedom        ....   12
Storing new coordinates                 .... done

    -----------------------------------------------------------------
                    Redundant Internal Coordinates


    -----------------------------------------------------------------
         Definition                    Initial Value    Approx d2E/dq
    -----------------------------------------------------------------
      1. B(C   1,F   0)                  3.5609         0.000179   
      2. B(Cl  2,C   1)                  1.7800         0.334057 C 
      3. B(H   3,C   1)                  1.0960         0.352252   
      4. B(H   3,F   0)                  3.3384         0.000078   
      5. B(H   4,F   0)                  3.3802         0.000067   
      6. B(H   4,C   1)                  1.1115         0.332791   
      7. B(H   5,F   0)                  3.4025         0.000061   
      8. B(H   5,C   1)                  1.1057         0.339978   
      9. A(H   3,C   1,H   4)          106.9991         0.286282   
     10. A(Cl  2,C   1,H   5)          107.1743         0.328536   
     11. A(H   3,C   1,H   5)          113.1144         0.287238   
     12. A(H   4,C   1,H   5)          110.6316         0.284705   
     13. A(F   0,C   1,H   3)           69.4785         0.129931   
     14. A(F   0,C   1,H   4)           71.6683         0.129408   
     15. A(F   0,C   1,H   5)           72.8257         0.129604   
     16. A(Cl  2,C   1,H   3)          110.5215         0.330467   
     17. A(Cl  2,C   1,H   4)          108.3317         0.327381   
    -----------------------------------------------------------------

Number of atoms                         .... 6
Number of degrees of freedom            .... 17

         *************************************************************
         *                GEOMETRY OPTIMIZATION CYCLE   1            *
         *************************************************************
---------------------------------
CARTESIAN COORDINATES (ANGSTROEM)
---------------------------------
  F     -3.559328    0.102198   -0.004001
  C      0.000072   -0.000002    0.000000
  Cl     1.779338   -0.051090    0.002000
  H     -0.400427   -0.594202   -0.829300
  H     -0.364128   -0.467502    0.940300
  H     -0.295927    1.064298   -0.046000

----------------------------
CARTESIAN COORDINATES (A.U.)
----------------------------
  NO LB      ZA    FRAG     MASS         X           Y           Z
   0 F     9.0000    0    18.998   -6.726154    0.193127   -0.007560
   1 C     6.0000    0    12.011    0.000137   -0.000004    0.000000
   2 Cl   17.0000    0    35.453    3.362462   -0.096546    0.003780
   3 H     1.0000    0     1.008   -0.756698   -1.122879   -1.567150
   4 H     1.0000    0     1.008   -0.688102   -0.883451    1.776910
   5 H     1.0000    0     1.008   -0.559222    2.011232   -0.086927

--------------------------------
INTERNAL COORDINATES (ANGSTROEM)
--------------------------------
 F      0   0   0     0.000000000000     0.00000000     0.00000000
 C      1   0   0     3.560869163561     0.00000000     0.00000000
 Cl     2   1   0     1.780434581781   180.00000000     0.00000000
 H      2   1   3     1.095998348539    69.47847926     0.00000000
 H      2   1   4     1.111468389114    71.66833533   243.07152888
 H      2   1   4     1.105652065525    72.82572996   123.67049073

---------------------------
INTERNAL COORDINATES (A.U.)
---------------------------
 F      0   0   0     0.000000000000     0.00000000     0.00000000
 C      1   0   0     6.729067517856     0.00000000     0.00000000
 Cl     2   1   0     3.364533758928   180.00000000     0.00000000
 H      2   1   3     2.071136721968    69.47847926     0.00000000
 H      2   1   4     2.100370861936    71.66833533   243.07152888
 H      2   1   4     2.089379603247    72.82572996   123.67049073

---------------------
BASIS SET INFORMATION
---------------------
There are 4 groups of distinct atoms

 Group   1 Type F   : 7s4p1d contracted to 3s2p1d pattern {511/31/1}
 Group   2 Type C   : 7s4p1d contracted to 3s2p1d pattern {511/31/1}
 Group   3 Type Cl  : 10s7p1d contracted to 4s3p1d pattern {5311/511/1}
 Group   4 Type H   : 4s1p contracted to 2s1p pattern {31/1}

Atom   0F    basis set group =>   1
Atom   1C    basis set group =>   2
Atom   2Cl   basis set group =>   3
Atom   3H    basis set group =>   4
Atom   4H    basis set group =>   4
Atom   5H    basis set group =>   4
-------------------------------
AUXILIARY BASIS SET INFORMATION
-------------------------------
There are 4 groups of distinct atoms

 Group   1 Type F   : 12s5p4d2f1g contracted to 6s4p3d1f1g pattern {711111/2111/211/2/1}
 Group   2 Type C   : 12s5p4d2f1g contracted to 6s4p3d1f1g pattern {711111/2111/211/2/1}
 Group   3 Type Cl  : 14s5p5d2f1g contracted to 8s4p3d1f1g pattern {71111111/2111/311/2/1}
 Group   4 Type H   : 5s2p1d contracted to 3s1p1d pattern {311/2/1}

Atom   0F    basis set group =>   1
Atom   1C    basis set group =>   2
Atom   2Cl   basis set group =>   3
Atom   3H    basis set group =>   4
Atom   4H    basis set group =>   4
Atom   5H    basis set group =>   4


           ************************************************************
           *        Program running with 8 parallel MPI-processes     *
           *              working on a common directory               *
           ************************************************************
------------------------------------------------------------------------------
                           ORCA GTO INTEGRAL CALCULATION
                           -- RI-GTO INTEGRALS CHOSEN --
------------------------------------------------------------------------------

                         BASIS SET STATISTICS AND STARTUP INFO

Gaussian basis set:
 # of primitive gaussian shells          ...   57
 # of primitive gaussian functions       ...  105
 # of contracted shells                  ...   29
 # of contracted basis functions         ...   61
 Highest angular momentum                ...    2
 Maximum contraction depth               ...    5
Auxiliary gaussian basis set:
 # of primitive gaussian shells          ...   99
 # of primitive gaussian functions       ...  265
 # of contracted shells                  ...   62
 # of contracted aux-basis functions     ...  182
 Highest angular momentum                ...    4
 Maximum contraction depth               ...    7
Ratio of auxiliary to basis functions    ...  2.98
Integral package used                  ... LIBINT
 One Electron integrals                  ... done
 Ordering auxiliary basis shells         ... done
 Integral threshhold             Thresh  ...  2.500e-11
 Primitive cut-off               TCut    ...  2.500e-12
 Pre-screening matrix                    ... done
 Shell pair data                         ... 
 Ordering of the shell pairs             ... done (   0.000 sec) 396 of 435 pairs
 Determination of significant pairs      ... done (   0.000 sec)
 Creation of shell pair data             ... done (   0.000 sec)
 Storage of shell pair data              ... done (   0.044 sec)
 Shell pair data done in (   0.044 sec)
 Computing two index integrals           ... done
 Cholesky decomposition of the V-matrix  ... done


Timings:
 Total evaluation time                   ...   0.188 sec (  0.003 min)
 One electron matrix time                ...   0.005 sec (  0.000 min) =  2.7%
 Schwartz matrix evaluation time         ...   0.107 sec (  0.002 min) = 56.8%
 Two index repulsion integral time       ...   0.001 sec (  0.000 min) =  0.5%
 Cholesky decomposition of V             ...   0.001 sec (  0.000 min) =  0.5%
 Three index repulsion integral time     ...   0.000 sec (  0.000 min) =  0.0%



           ************************************************************
           *        Program running with 8 parallel MPI-processes     *
           *              working on a common directory               *
           ************************************************************
-------------------------------------------------------------------------------
                                 ORCA SCF
-------------------------------------------------------------------------------

------------
SCF SETTINGS
------------
Hamiltonian:
 Density Functional     Method          .... DFT(GTOs)
 Exchange Functional    Exchange        .... PBE
   PBE kappa parameter   XKappa         ....  0.804000
   PBE mue parameter    XMuePBE         ....  0.219520
 Correlation Functional Correlation     .... PBE
   PBE beta parameter  CBetaPBE         ....  0.066725
 LDA part of GGA corr.  LDAOpt          .... PW91-LDA
 Gradients option       PostSCFGGA      .... off
   Density functional embedding theory  .... OFF
   NL short-range parameter             ....  6.400000
 RI-approximation to the Coulomb term is turned on
   Number of auxiliary basis functions  .... 182


General Settings:
 Integral files         IntName         .... orca1d_01_12_orca_scan
 Hartree-Fock type      HFTyp           .... RHF
 Total Charge           Charge          ....   -1
 Multiplicity           Mult            ....    1
 Number of Electrons    NEL             ....   36
 Basis Dimension        Dim             ....   61
 Nuclear Repulsion      ENuc            ....     78.6034436320 Eh

Convergence Acceleration:
 DIIS                   CNVDIIS         .... on
   Start iteration      DIISMaxIt       ....    12
   Startup error        DIISStart       ....  0.200000
   # of expansion vecs  DIISMaxEq       ....     5
   Bias factor          DIISBfac        ....   1.050
   Max. coefficient     DIISMaxC        ....  10.000
 Newton-Raphson         CNVNR           .... off
 SOSCF                  CNVSOSCF        .... on
   Start iteration      SOSCFMaxIt      ....   150
   Startup grad/error   SOSCFStart      ....  0.003300
 Level Shifting         CNVShift        .... on
   Level shift para.    LevelShift      ....    0.2500
   Turn off err/grad.   ShiftErr        ....    0.0010
 Zerner damping         CNVZerner       .... off
 Static damping         CNVDamp         .... on
   Fraction old density DampFac         ....    0.7000
   Max. Damping (<1)    DampMax         ....    0.9800
   Min. Damping (>=0)   DampMin         ....    0.0000
   Turn off err/grad.   DampErr         ....    0.1000
 Fernandez-Rico         CNVRico         .... off

SCF Procedure:
 Maximum # iterations   MaxIter         ....   250
 SCF integral mode      SCFMode         .... Direct
   Integral package                     .... LIBINT
 Reset frequency        DirectResetFreq ....    20
 Integral Threshold     Thresh          ....  2.500e-11 Eh
 Primitive CutOff       TCut            ....  2.500e-12 Eh

Convergence Tolerance:
 Convergence Check Mode ConvCheckMode   .... Total+1el-Energy
 Convergence forced     ConvForced      .... 0
 Energy Change          TolE            ....  1.000e-08 Eh
 1-El. energy change                    ....  1.000e-05 Eh
 Orbital Gradient       TolG            ....  1.000e-05
 Orbital Rotation angle TolX            ....  1.000e-05
 DIIS Error             TolErr          ....  5.000e-07


Diagonalization of the overlap matrix:
Smallest eigenvalue                        ... 1.140e-02
Time for diagonalization                   ...    0.002 sec
Threshold for overlap eigenvalues          ... 1.000e-08
Number of eigenvalues below threshold      ... 0
Time for construction of square roots      ...    0.001 sec
Total time needed                          ...    0.003 sec

-------------------
DFT GRID GENERATION
-------------------

General Integration Accuracy     IntAcc      ...  4.340
Radial Grid Type                 RadialGrid  ... Gauss-Chebyshev
Angular Grid (max. acc.)         AngularGrid ... Lebedev-110
Angular grid pruning method      GridPruning ... 3 (G Style)
Weight generation scheme         WeightScheme... Becke
Basis function cutoff            BFCut       ...    1.0000e-11
Integration weight cutoff        WCut        ...    1.0000e-14
Grids for H and He will be reduced by one unit

# of grid points (after initial pruning)     ...   7622 (   0.0 sec)
# of grid points (after weights+screening)   ...   7464 (   0.0 sec)
nearest neighbour list constructed           ...    0.0 sec
Grid point re-assignment to atoms done       ...    0.0 sec
Grid point division into batches done        ...    0.0 sec
Reduced shell lists constructed in    0.0 sec

Total number of grid points                  ...     7464
Total number of batches                      ...      119
Average number of points per batch           ...       62
Average number of grid points per atom       ...     1244
Average number of shells per batch           ...    15.38 (53.02%)
Average number of basis functions per batch  ...    30.50 (50.00%)
Average number of large shells per batch     ...    11.50 (74.80%)
Average number of large basis fcns per batch ...    21.75 (71.31%)
Maximum spatial batch extension              ...  13.80, 20.95, 25.60 au
Average spatial batch extension              ...   0.85,  1.26,  1.31 au

Time for grid setup =    0.021 sec

------------------------------
INITIAL GUESS: MODEL POTENTIAL
------------------------------
Loading Hartree-Fock densities                     ... done
Calculating cut-offs                               ... done
Setting up the integral package                    ... done
Initializing the effective Hamiltonian             ... done
Starting the Coulomb interaction                   ... done (   0.0 sec)
Reading the grid                                   ... done
Mapping shells                                     ... done
Starting the XC term evaluation                    ... done (   0.0 sec)
  promolecular density results
     # of electrons  =     34.998140033
     EX              =    -43.271648309
     EC              =     -1.238081046
     EX+EC           =    -44.509729355
Transforming the Hamiltonian                       ... done (   0.0 sec)
Diagonalizing the Hamiltonian                      ... done (   0.0 sec)
Back transforming the eigenvectors                 ... done (   0.0 sec)
Now organizing SCF variables                       ... done
                      ------------------
                      INITIAL GUESS DONE (   0.1 sec)
                      ------------------

--------------------
CPCM SOLVATION MODEL
--------------------
CPCM parameters:
  Epsilon                                         ...      78.3550
  Refrac                                          ...       1.0000
  Rsolv                                           ...       1.3000
  Surface type                                    ...    GEPOL SES
  Epsilon function type                           ...         CPCM
Solvent:                                     ... WATER
SMD-CDS solvent descriptors:
  Soln                                       ...    1.3328
  Soln25                                     ...    1.3323
  Sola                                       ...    0.0000
  Solb                                       ...    0.0000
  Solg                                       ...    0.0000
  Solc                                       ...    0.0000
  Solh                                       ...    0.0000
Radii:
 Radius for F  used is    3.2692 Bohr (=   1.7300 Ang.)
 Radius for C  used is    3.4960 Bohr (=   1.8500 Ang.)
 Radius for Cl used is    4.4975 Bohr (=   2.3800 Ang.)
 Radius for H  used is    2.2677 Bohr (=   1.2000 Ang.)
Calculating surface                               ...        done! (  0.0s)
GEPOL surface points                              ...          297
GEPOL Volume                                      ...     644.7989
GEPOL Surface-area                                ...     433.0438
Calculating surface distance matrix               ...        done! (  0.0s)
Performing Cholesky decomposition & store         ...        done! (  0.0s)
Overall time for CPCM initialization              ...                 0.0s
--------------
SCF ITERATIONS
--------------
ITER       Energy         Delta-E        Max-DP      RMS-DP      [F,P]     Damp
               ***  Starting incremental Fock matrix formation  ***
  0   -599.2923521502   0.000000000000 0.10519695  0.00609299  0.3751253 0.7000
  1   -599.3577007608  -0.065348610542 0.08840924  0.00431752  0.1411069 0.7000
                               ***Turning on DIIS***
  2   -599.3797334653  -0.022032704471 0.18957158  0.00703389  0.0241747 0.0000
  3   -599.4197303794  -0.039996914101 0.05933986  0.00260170  0.0767264 0.0000
  4   -599.4261716885  -0.006441309167 0.02249319  0.00092268  0.0050183 0.0000
                      *** Initiating the SOSCF procedure ***
                           *** Shutting down DIIS ***
                      *** Re-Reading the Fockian *** 
                      *** Removing any level shift *** 
ITER      Energy       Delta-E        Grad      Rot      Max-DP    RMS-DP
  5   -599.42639246  -0.0002207721  0.001715  0.001715  0.013350  0.000531
               *** Restarting incremental Fock matrix formation ***
  6   -599.42643634  -0.0000438801  0.000865  0.007298  0.019033  0.000705
  7   -599.42645291  -0.0000165681  0.000540  0.001011  0.001674  0.000091
  8   -599.42645263   0.0000002765  0.000494  0.001337  0.003335  0.000128
  9   -599.42645539  -0.0000027623  0.000023  0.000187  0.000462  0.000018
 10   -599.42645540  -0.0000000045  0.000047  0.000026  0.000063  0.000003
                 **** Energy Check signals convergence ****
              ***Rediagonalizing the Fockian in SOSCF/NRSCF***

               *****************************************************
               *                     SUCCESS                       *
               *           SCF CONVERGED AFTER  11 CYCLES          *
               *****************************************************

Setting up the final grid:

General Integration Accuracy     IntAcc      ...  4.670
Radial Grid Type                 RadialGrid  ... Gauss-Chebyshev
Angular Grid (max. acc.)         AngularGrid ... Lebedev-302
Angular grid pruning method      GridPruning ... 3 (G Style)
Weight generation scheme         WeightScheme... Becke
Basis function cutoff            BFCut       ...    1.0000e-11
Integration weight cutoff        WCut        ...    1.0000e-14
Grids for H and He will be reduced by one unit

# of grid points (after initial pruning)     ...  29404 (   0.0 sec)
# of grid points (after weights+screening)   ...  28684 (   0.0 sec)
nearest neighbour list constructed           ...    0.0 sec
Grid point re-assignment to atoms done       ...    0.0 sec
Grid point division into batches done        ...    0.1 sec
Reduced shell lists constructed in    0.1 sec

Total number of grid points                  ...    28684
Total number of batches                      ...      451
Average number of points per batch           ...       63
Average number of grid points per atom       ...     4781
Average number of shells per batch           ...    12.62 (43.52%)
Average number of basis functions per batch  ...    24.31 (39.85%)
Average number of large shells per batch     ...     9.24 (73.22%)
Average number of large basis fcns per batch ...    17.97 (73.90%)
Maximum spatial batch extension              ...  11.76, 16.88, 16.88 au
Average spatial batch extension              ...   0.60,  0.77,  0.75 au

Final grid set up in    0.1 sec
Final integration                            ... done (   0.0 sec)
Change in XC energy                          ...     0.000844785
Integrated number of electrons               ...    36.000002219
Previous integrated no of electrons          ...    36.002864467

SMD CDS free energy correction energy :                 3.45589     Kcal/mol
Total Energy after SMD CDS correction =              -599.420103305 Eh

----------------
TOTAL SCF ENERGY
----------------

Total Energy       :         -599.42010330 Eh          -16311.05025 eV

Components:
Nuclear Repulsion  :           78.60344363 Eh            2138.90844 eV
Electronic Energy  :         -678.02354694 Eh          -18449.95869 eV
One Electron Energy:         -992.50305916 Eh          -27007.38127 eV
Two Electron Energy:          314.47951223 Eh            8557.42258 eV
CPCM Dielectric    :           -0.13386948 Eh              -3.64277 eV
SMD CDS (Gcds)     :            0.00550732 Eh               0.14986 eV

Virial components:
Potential Energy   :        -1197.00905765 Eh          -32572.27240 eV
Kinetic Energy     :          597.58895435 Eh           16261.22215 eV
Virial Ratio       :            2.00306423


DFT components:
N(Alpha)           :       18.000001109305 electrons
N(Beta)            :       18.000001109305 electrons
N(Total)           :       36.000002218611 electrons
E(X)               :      -43.930119051046 Eh       
E(C)               :       -1.291176322124 Eh       
E(XC)              :      -45.221295373170 Eh       
DFET-embed. en.    :        0.000000000000 Eh       
CPCM Solvation Model Properties:
Surface-charge          :            0.99165133
Charge-correction       :           -0.00154996 Eh              -0.04218 eV
Free-energy (cav+disp)  :            0.00341226 Eh               0.09285 eV
Corrected G(solv)       :         -599.41824100 Eh          -16310.99957 eV

---------------
SCF CONVERGENCE
---------------

  Last Energy change         ...   -6.7049e-09  Tolerance :   1.0000e-08
  Last MAX-Density change    ...    7.3418e-05  Tolerance :   1.0000e-07
  Last RMS-Density change    ...    2.8099e-06  Tolerance :   5.0000e-09
  Last Orbital Gradient      ...    1.3993e-05  Tolerance :   1.0000e-05
  Last Orbital Rotation      ...    2.7297e-05  Tolerance :   1.0000e-05

             **** THE GBW FILE WAS UPDATED (orca1d_01_12_orca_scan.gbw) ****
             **** DENSITY FILE WAS UPDATED (orca1d_01_12_orca_scan.scfp.tmp) ****
             **** ENERGY FILE WAS UPDATED (orca1d_01_12_orca_scan.en.tmp) ****
----------------
ORBITAL ENERGIES
----------------

  NO   OCC          E(Eh)            E(eV) 
   0   2.0000    -100.612053     -2737.7931 
   1   2.0000     -23.968206      -652.2081 
   2   2.0000      -9.929120      -270.1851 
   3   2.0000      -9.147542      -248.9173 
   4   2.0000      -6.979246      -189.9149 
   5   2.0000      -6.967386      -189.5922 
   6   2.0000      -6.967360      -189.5915 
   7   2.0000      -0.759157       -20.6577 
   8   2.0000      -0.736917       -20.0525 
   9   2.0000      -0.580444       -15.7947 
  10   2.0000      -0.381181       -10.3725 
  11   2.0000      -0.371135       -10.0991 
  12   2.0000      -0.358378        -9.7520 
  13   2.0000      -0.239596        -6.5197 
  14   2.0000      -0.237931        -6.4744 
  15   2.0000      -0.088202        -2.4001 
  16   2.0000      -0.085689        -2.3317 
  17   2.0000      -0.085505        -2.3267 
  18   0.0000       0.027446         0.7469 
  19   0.0000       0.074135         2.0173 
  20   0.0000       0.111695         3.0394 
  21   0.0000       0.116507         3.1703 
  22   0.0000       0.382880        10.4187 
  23   0.0000       0.391949        10.6655 
  24   0.0000       0.406778        11.0690 
  25   0.0000       0.489192        13.3116 
  26   0.0000       0.607798        16.5390 
  27   0.0000       0.611108        16.6291 
  28   0.0000       0.617038        16.7904 
  29   0.0000       0.721118        19.6226 
  30   0.0000       0.728246        19.8166 
  31   0.0000       0.748634        20.3714 
  32   0.0000       0.754141        20.5212 
  33   0.0000       0.755801        20.5664 
  34   0.0000       0.759412        20.6646 
  35   0.0000       0.859313        23.3831 
  36   0.0000       0.864169        23.5152 
  37   0.0000       1.187024        32.3006 
  38   0.0000       1.197775        32.5931 
  39   0.0000       1.215462        33.0744 
  40   0.0000       1.252736        34.0887 
  41   0.0000       1.255588        34.1663 
  42   0.0000       1.256007        34.1777 
  43   0.0000       1.270892        34.5827 
  44   0.0000       1.451129        39.4872 
  45   0.0000       1.648670        44.8626 
  46   0.0000       1.671225        45.4763 
  47   0.0000       1.836804        49.9820 
  48   0.0000       1.873208        50.9726 
  49   0.0000       1.898840        51.6701 
  50   0.0000       2.113535        57.5122 
  51   0.0000       2.310427        62.8699 
  52   0.0000       2.335816        63.5608 
  53   0.0000       2.601920        70.8019 
  54   0.0000       2.777987        75.5929 
  55   0.0000       2.812048        76.5197 
  56   0.0000       3.235690        88.0476 
  57   0.0000       3.235769        88.0497 
  58   0.0000       3.236114        88.0591 
  59   0.0000       3.236122        88.0593 
  60   0.0000       3.236195        88.0613 

                    ********************************
                    * MULLIKEN POPULATION ANALYSIS *
                    ********************************

-----------------------
MULLIKEN ATOMIC CHARGES
-----------------------
   0 F :   -0.942469
   1 C :   -0.054572
   2 Cl:   -0.232565
   3 H :    0.074603
   4 H :    0.074286
   5 H :    0.080718
Sum of atomic charges:   -1.0000000

--------------------------------
MULLIKEN REDUCED ORBITAL CHARGES
--------------------------------
  0 F s       :     3.998931  s :     3.998931
      pz      :     1.995777  p :     5.943537
      px      :     1.952020
      py      :     1.995740
      dz2     :     0.000000  d :     0.000001
      dxz     :     0.000000
      dyz     :     0.000000
      dx2y2   :     0.000000
      dxy     :     0.000000
  1 C s       :     3.093150  s :     3.093150
      pz      :     1.094274  p :     2.931346
      px      :     0.755434
      py      :     1.081638
      dz2     :     0.005405  d :     0.030076
      dxz     :     0.005800
      dyz     :     0.004207
      dx2y2   :     0.009273
      dxy     :     0.005391
  2 Cls       :     5.958630  s :     5.958630
      pz      :     3.974516  p :    11.240682
      px      :     3.290009
      py      :     3.976157
      dz2     :     0.004634  d :     0.033253
      dxz     :     0.007464
      dyz     :     0.000018
      dx2y2   :     0.013778
      dxy     :     0.007359
  3 H s       :     0.902404  s :     0.902404
      pz      :     0.010571  p :     0.022993
      px      :     0.004749
      py      :     0.007674
  4 H s       :     0.903408  s :     0.903408
      pz      :     0.011527  p :     0.022306
      px      :     0.004371
      py      :     0.006408
  5 H s       :     0.896767  s :     0.896767
      pz      :     0.004860  p :     0.022516
      px      :     0.004075
      py      :     0.013580


                     *******************************
                     * LOEWDIN POPULATION ANALYSIS *
                     *******************************

----------------------
LOEWDIN ATOMIC CHARGES
----------------------
   0 F :   -0.948848
   1 C :   -0.123917
   2 Cl:   -0.016913
   3 H :    0.027298
   4 H :    0.031131
   5 H :    0.031251

-------------------------------
LOEWDIN REDUCED ORBITAL CHARGES
-------------------------------
  0 F s       :     3.999098  s :     3.999098
      pz      :     1.996552  p :     5.949749
      px      :     1.956693
      py      :     1.996504
      dz2     :     0.000000  d :     0.000001
      dxz     :     0.000000
      dyz     :     0.000000
      dx2y2   :     0.000001
      dxy     :     0.000000
  1 C s       :     2.925343  s :     2.925343
      pz      :     1.126776  p :     3.123054
      px      :     0.881359
      py      :     1.114919
      dz2     :     0.013637  d :     0.075520
      dxz     :     0.014861
      dyz     :     0.011208
      dx2y2   :     0.022348
      dxy     :     0.013466
  2 Cls       :     5.785928  s :     5.785928
      pz      :     3.954430  p :    11.194494
      px      :     3.284711
      py      :     3.955353
      dz2     :     0.005525  d :     0.036492
      dxz     :     0.007331
      dyz     :     0.000019
      dx2y2   :     0.016478
      dxy     :     0.007139
  3 H s       :     0.902350  s :     0.902350
      pz      :     0.031825  p :     0.070353
      px      :     0.016130
      py      :     0.022398
  4 H s       :     0.901450  s :     0.901450
      pz      :     0.035158  p :     0.067419
      px      :     0.014495
      py      :     0.017766
  5 H s       :     0.900221  s :     0.900221
      pz      :     0.012694  p :     0.068528
      px      :     0.013324
      py      :     0.042510


                      *****************************
                      * MAYER POPULATION ANALYSIS *
                      *****************************

  NA   - Mulliken gross atomic population
  ZA   - Total nuclear charge
  QA   - Mulliken gross atomic charge
  VA   - Mayer's total valence
  BVA  - Mayer's bonded valence
  FA   - Mayer's free valence

  ATOM       NA         ZA         QA         VA         BVA        FA
  0 F      9.9425     9.0000    -0.9425     0.1127     0.1127     0.0000
  1 C      6.0546     6.0000    -0.0546     3.8721     3.8721    -0.0000
  2 Cl    17.2326    17.0000    -0.2326     1.0108     1.0108     0.0000
  3 H      0.9254     1.0000     0.0746     1.0116     1.0116     0.0000
  4 H      0.9257     1.0000     0.0743     1.0068     1.0068    -0.0000
  5 H      0.9193     1.0000     0.0807     1.0059     1.0059    -0.0000

  Mayer bond orders larger than 0.1
B(  1-C ,  2-Cl) :   0.9608 B(  1-C ,  3-H ) :   0.9672 B(  1-C ,  4-H ) :   0.9684 
B(  1-C ,  5-H ) :   0.9694 

-------
TIMINGS
-------

Total SCF time: 0 days 0 hours 0 min 4 sec 

Total time                  ....       4.034 sec
Sum of individual times     ....       3.912 sec  ( 97.0%)

Fock matrix formation       ....       3.685 sec  ( 91.4%)
  Split-RI-J                ....       1.196 sec  ( 32.4% of F)
  XC integration            ....       0.080 sec  (  2.2% of F)
    Basis function eval.    ....       0.022 sec  ( 27.4% of XC)
    Density eval.           ....       0.008 sec  (  9.6% of XC)
    XC-Functional eval.     ....       0.009 sec  ( 11.7% of XC)
    XC-Potential eval.      ....       0.009 sec  ( 11.4% of XC)
Diagonalization             ....       0.003 sec  (  0.1%)
Density matrix formation    ....       0.001 sec  (  0.0%)
Population analysis         ....       0.002 sec  (  0.0%)
Initial guess               ....       0.093 sec  (  2.3%)
Orbital Transformation      ....       0.000 sec  (  0.0%)
Orbital Orthonormalization  ....       0.000 sec  (  0.0%)
DIIS solution               ....       0.001 sec  (  0.0%)
SOSCF solution              ....       0.002 sec  (  0.0%)
Grid generation             ....       0.126 sec  (  3.1%)


-------------------------------------------------------------------------------
                          DFT DISPERSION CORRECTION                            
                                                                               
                              DFTD3 V3.1  Rev 1                                
                          USING Becke-Johnson damping                          
-------------------------------------------------------------------------------
The PBE functional is recognized
Active option DFTDOPT                   ...         4   

molecular C6(AA) [au] = 486.635286 


            DFT-D V3
 parameters
 s6 scaling factor         :     1.0000 
 a1 scaling factor         :     0.4289 
 s8 scaling factor         :     0.7875 
 a2 scaling factor         :     4.4407 
 ad hoc parameters k1-k3   :    16.0000     1.3333    -4.0000 

 Edisp/kcal,au: -1.570094522508  -0.002502104621 
 E6   /kcal   :  -1.106974722 
 E8   /kcal   :  -0.463119800 
 % E8         :  29.496300600 

-------------------------   ----------------
Dispersion correction           -0.002502105
-------------------------   ----------------


-------------------------   --------------------
FINAL SINGLE POINT ENERGY      -599.422605409408
-------------------------   --------------------



           ************************************************************
           *        Program running with 8 parallel MPI-processes     *
           *              working on a common directory               *
           ************************************************************
------------------------------------------------------------------------------
                         ORCA SCF GRADIENT CALCULATION
------------------------------------------------------------------------------

Gradient of the Kohn-Sham DFT energy:
Kohn-Sham wavefunction type      ... RKS
Hartree-Fock exchange scaling    ...    0.000
Number of operators              ...    1
Number of atoms                  ...    6
Basis set dimensions             ...   61
Integral neglect threshold       ... 2.5e-11
Integral primitive cutoff        ... 2.5e-12

Nuclear repulsion gradient       ... done
One Electron Gradient            ... done
Pre-screening matrix             ... done
RI-J gradient                    ... done
Exchange-correlation gradient    ... done
Dispersion correction            ... done

------------------
CARTESIAN GRADIENT
------------------

   1   F   :   -0.009873464    0.000460037    0.000033010
   2   C   :    0.007840584   -0.000239555   -0.012574357
   3   Cl  :   -0.009978920    0.002099690    0.001498290
   4   H   :    0.003719784   -0.001336970    0.006796256
   5   H   :    0.001857558   -0.004736301    0.002578440
   6   H   :    0.006434457    0.003753098    0.001668361

Difference to translation invariance:
           :   -0.0000000000    0.0000000000   -0.0000000000

Norm of the cartesian gradient     ...    0.0240040259
RMS gradient                       ...    0.0056578032
MAX gradient                       ...    0.0125743575

-------
TIMINGS
-------

Total SCF gradient time            ...        0.469 sec

One electron gradient       ....       0.005 sec  (  1.0%)
Prescreening matrices       ....       0.007 sec  (  1.5%)
RI-J Coulomb gradient       ....       0.104 sec  ( 22.1%)
XC gradient                 ....       0.037 sec  (  7.8%)
CPCM gradient               ....       0.073 sec  ( 15.5%)
   A-Matrix (El+Nuc)        ....       0.002 sec  (  0.4%)
   Potential                ....       0.071 sec  ( 15.2%)
------------------------------------------------------------------------------
                         ORCA GEOMETRY RELAXATION STEP
------------------------------------------------------------------------------

Reading the OPT-File                    .... done
Getting information on internals        .... done
Copying old internal coords+grads       .... done
Making the new internal coordinates     .... (new redundants).... done
Validating the new internal coordinates .... (new redundants).... done
Calculating the B-matrix                .... done
Calculating the G,G- and P matrices     .... done
Transforming gradient to internals      .... done
Projecting the internal gradient        .... done
Number of atoms                         ....   6
Number of internal coordinates          ....  17
Current Energy                          ....  -599.422605409 Eh
Current gradient norm                   ....     0.024004026 Eh/bohr
Maximum allowed component of the step   ....  0.300
Current trust radius                    ....  0.300
Evaluating the initial hessian          ....  (Almloef) done
Projecting the Hessian                  .... done
Forming the augmented Hessian           .... done
Diagonalizing the augmented Hessian     .... done
Last element of RFO vector              ....  0.728602100
Lowest eigenvalues of augmented Hessian:
 -0.005364980  0.004904940  0.024080689  0.024489202  0.177062699
Length of the computed step             ....  0.940070319
Warning: the length of the step is outside the trust region - taking restricted step instead
The input lambda is                     ....    -0.005365
   iter:   1  x=   -0.007824  g=  322.819786 f(x)=     0.793732
   iter:   2  x=   -0.010952  g=  105.890836 f(x)=     0.331278
   iter:   3  x=   -0.014216  g=   39.024467 f(x)=     0.127385
   iter:   4  x=   -0.016457  g=   17.960933 f(x)=     0.040244
   iter:   5  x=   -0.017128  g=   11.615605 f(x)=     0.007795
   iter:   6  x=   -0.017172  g=   10.311689 f(x)=     0.000449
   iter:   7  x=   -0.017172  g=   10.233964 f(x)=     0.000002
   iter:   8  x=   -0.017172  g=   10.233670 f(x)=     0.000000
   iter:   9  x=   -0.017172  g=   10.233670 f(x)=     0.000000
The output lambda is                    ....    -0.017172 (9 iterations)
The final length of the internal step   ....  0.300000000
Converting the step to cartesian space:
 Initial RMS(Int)=    0.0727606875
Transforming coordinates:
 Iter   0:  RMS(Cart)=    0.0355175174 RMS(Int)=    0.0726458291
 Iter   1:  RMS(Cart)=    0.0001448682 RMS(Int)=    0.0001622828
 Iter   2:  RMS(Cart)=    0.0000010722 RMS(Int)=    0.0000011304
 Iter   3:  RMS(Cart)=    0.0000000149 RMS(Int)=    0.0000000143
Imposing constraints:
 Iter   0:  RMS(Cart)=    0.0000000001 RMS(Int)=    0.0000000000
CONVERGED
done
Storing new coordinates                 .... done

                                .--------------------.
          ----------------------|Geometry convergence|-------------------------
          Item                value                   Tolerance       Converged
          ---------------------------------------------------------------------
          RMS gradient        0.0033735555            0.0005000000      NO
          MAX gradient        0.0061825338            0.0020000000      NO
          RMS step            0.0727606875            0.0070000000      NO
          MAX step            0.1555695827            0.0100000000      NO
          ........................................................
          Max(Bonds)      0.0823      Max(Angles)    1.25
          Max(Dihed)        0.00      Max(Improp)    0.00
          ---------------------------------------------------------------------

The optimization has not yet converged - more geometry cycles are needed


    ---------------------------------------------------------------------------
                         Redundant Internal Coordinates
                            (Angstroem and degrees)

        Definition                    Value    dE/dq     Step     New-Value
    ----------------------------------------------------------------------------
     1. B(C   1,F   0)                3.5609  0.001360 -0.0781    3.4828   
     2. B(Cl  2,C   1)                1.7800 -0.010033 -0.0000    1.7800 C 
     3. B(H   3,C   1)                1.0960 -0.005627  0.0081    1.1041   
     4. B(H   3,F   0)                3.3384  0.003287 -0.0823    3.2561   
     5. B(H   4,F   0)                3.3802  0.002910 -0.0782    3.3020   
     6. B(H   4,C   1)                1.1115  0.003572 -0.0054    1.1061   
     7. B(H   5,F   0)                3.4025  0.002767 -0.0759    3.3266   
     8. B(H   5,C   1)                1.1057  0.001777 -0.0026    1.1030   
     9. A(H   3,C   1,H   4)          107.00 -0.005641    0.98    107.98   
    10. A(Cl  2,C   1,H   5)          107.17 -0.004512    0.85    108.03   
    11. A(H   3,C   1,H   5)          113.11  0.006183   -1.25    111.86   
    12. A(H   4,C   1,H   5)          110.63  0.001583   -0.38    110.25   
    13. A(F   0,C   1,H   3)           69.48  0.000839   -0.40     69.08   
    14. A(F   0,C   1,H   4)           71.67  0.000775   -0.21     71.46   
    15. A(F   0,C   1,H   5)           72.83  0.000692   -0.09     72.74   
    16. A(Cl  2,C   1,H   3)          110.52  0.004275   -0.60    109.92   
    17. A(Cl  2,C   1,H   4)          108.33 -0.002037    0.44    108.77   
    ----------------------------------------------------------------------------

         *************************************************************
         *                GEOMETRY OPTIMIZATION CYCLE   2            *
         *************************************************************
---------------------------------
CARTESIAN COORDINATES (ANGSTROEM)
---------------------------------
  F     -3.492300    0.089821   -0.007239
  C     -0.010683    0.002789    0.008275
  Cl     1.767920   -0.066606   -0.004306
  H     -0.415956   -0.581747   -0.836182
  H     -0.378033   -0.453292    0.946588
  H     -0.311348    1.062736   -0.044137

----------------------------
CARTESIAN COORDINATES (A.U.)
----------------------------
  NO LB      ZA    FRAG     MASS         X           Y           Z
   0 F     9.0000    0    18.998   -6.599490    0.169736   -0.013680
   1 C     6.0000    0    12.011   -0.020187    0.005270    0.015637
   2 Cl   17.0000    0    35.453    3.340884   -0.125867   -0.008137
   3 H     1.0000    0     1.008   -0.786043   -1.099343   -1.580154
   4 H     1.0000    0     1.008   -0.714379   -0.856598    1.788793
   5 H     1.0000    0     1.008   -0.588362    2.008280   -0.083407

--------------------------------
INTERNAL COORDINATES (ANGSTROEM)
--------------------------------
 F      0   0   0     0.000000000000     0.00000000     0.00000000
 C      1   0   0     3.482739380402     0.00000000     0.00000000
 Cl     2   1   0     1.780000000857   178.96093229     0.00000000
 H      2   1   3     1.104099616882    69.07649603    15.35300392
 H      2   1   4     1.106069167371    71.46206764   241.52994699
 H      2   1   4     1.103011323062    72.73908924   122.42801794

---------------------------
INTERNAL COORDINATES (A.U.)
---------------------------
 F      0   0   0     0.000000000000     0.00000000     0.00000000
 C      1   0   0     6.581423624781     0.00000000     0.00000000
 Cl     2   1   0     3.363712520000   178.96093229     0.00000000
 H      2   1   3     2.086445900474    69.07649603    15.35300392
 H      2   1   4     2.090167811505    71.46206764   241.52994699
 H      2   1   4     2.084389323202    72.73908924   122.42801794



           ************************************************************
           *        Program running with 8 parallel MPI-processes     *
           *              working on a common directory               *
           ************************************************************
 One Electron integrals                  ... done
 Pre-screening matrix                    ... done


           ************************************************************
           *        Program running with 8 parallel MPI-processes     *
           *              working on a common directory               *
           ************************************************************

Diagonalization of the overlap matrix:
Smallest eigenvalue                        ... 1.141e-02
Time for diagonalization                   ...    0.002 sec
Threshold for overlap eigenvalues          ... 1.000e-08
Number of eigenvalues below threshold      ... 0
Time for construction of square roots      ...    0.001 sec
Total time needed                          ...    0.003 sec

-------------------
DFT GRID GENERATION
-------------------

General Integration Accuracy     IntAcc      ...  4.340
Radial Grid Type                 RadialGrid  ... Gauss-Chebyshev
Angular Grid (max. acc.)         AngularGrid ... Lebedev-110
Angular grid pruning method      GridPruning ... 3 (G Style)
Weight generation scheme         WeightScheme... Becke
Basis function cutoff            BFCut       ...    1.0000e-11
Integration weight cutoff        WCut        ...    1.0000e-14
Grids for H and He will be reduced by one unit

# of grid points (after initial pruning)     ...   7622 (   0.0 sec)
# of grid points (after weights+screening)   ...   7459 (   0.0 sec)
nearest neighbour list constructed           ...    0.0 sec
Grid point re-assignment to atoms done       ...    0.0 sec
Grid point division into batches done        ...    0.0 sec
Reduced shell lists constructed in    0.0 sec

Total number of grid points                  ...     7459
Total number of batches                      ...      119
Average number of points per batch           ...       62
Average number of grid points per atom       ...     1243
Average number of shells per batch           ...    15.69 (54.09%)
Average number of basis functions per batch  ...    31.44 (51.54%)
Average number of large shells per batch     ...    11.56 (73.71%)
Average number of large basis fcns per batch ...    21.81 (69.38%)
Maximum spatial batch extension              ...  13.64, 20.95, 25.60 au
Average spatial batch extension              ...   0.85,  1.24,  1.33 au

Time for grid setup =    0.019 sec


--------------------
CPCM SOLVATION MODEL
--------------------
CPCM parameters:
  Epsilon                                         ...      78.3550
  Refrac                                          ...       1.0000
  Rsolv                                           ...       1.3000
  Surface type                                    ...    GEPOL SES
  Epsilon function type                           ...         CPCM
Solvent:                                     ... WATER
SMD-CDS solvent descriptors:
  Soln                                       ...    1.3328
  Soln25                                     ...    1.3323
  Sola                                       ...    0.0000
  Solb                                       ...    0.0000
  Solg                                       ...    0.0000
  Solc                                       ...    0.0000
  Solh                                       ...    0.0000
Radii:
 Radius for F  used is    3.2692 Bohr (=   1.7300 Ang.)
 Radius for C  used is    3.4960 Bohr (=   1.8500 Ang.)
 Radius for Cl used is    4.4975 Bohr (=   2.3800 Ang.)
 Radius for H  used is    2.2677 Bohr (=   1.2000 Ang.)
Calculating surface                               ...        done! (  0.0s)
GEPOL surface points                              ...          297
GEPOL Volume                                      ...     643.1187
GEPOL Surface-area                                ...     430.3935
Calculating surface distance matrix               ...        done! (  0.0s)
Performing Cholesky decomposition & store         ...        done! (  0.0s)
Overall time for CPCM initialization              ...                 0.0s
--------------
SCF ITERATIONS
--------------
ITER       Energy         Delta-E        Max-DP      RMS-DP      [F,P]     Damp
               ***  Starting incremental Fock matrix formation  ***
                      *** Initiating the SOSCF procedure ***
                      *** Re-Reading the Fockian *** 
                      *** Removing any level shift *** 
ITER      Energy       Delta-E        Grad      Rot      Max-DP    RMS-DP
  0   -599.42800344 -599.4280034372  0.001744  0.001744  0.006670  0.000417
               *** Restarting incremental Fock matrix formation ***
  1   -599.42811558  -0.0001121421  0.000619  0.005240  0.009494  0.000502
  2   -599.42812562  -0.0000100448  0.001412  0.001280  0.003697  0.000157
  3   -599.42812995  -0.0000043270  0.000770  0.000653  0.001220  0.000081
  4   -599.42813206  -0.0000021062  0.000048  0.000229  0.000464  0.000024
  5   -599.42813210  -0.0000000383  0.000048  0.000063  0.000107  0.000006
  6   -599.42813212  -0.0000000220  0.000021  0.000057  0.000102  0.000006
  7   -599.42813213  -0.0000000084  0.000010  0.000015  0.000013  0.000001
                  ***Gradient check signals convergence***
              ***Rediagonalizing the Fockian in SOSCF/NRSCF***

               *****************************************************
               *                     SUCCESS                       *
               *           SCF CONVERGED AFTER   8 CYCLES          *
               *****************************************************

Setting up the final grid:

General Integration Accuracy     IntAcc      ...  4.670
Radial Grid Type                 RadialGrid  ... Gauss-Chebyshev
Angular Grid (max. acc.)         AngularGrid ... Lebedev-302
Angular grid pruning method      GridPruning ... 3 (G Style)
Weight generation scheme         WeightScheme... Becke
Basis function cutoff            BFCut       ...    1.0000e-11
Integration weight cutoff        WCut        ...    1.0000e-14
Grids for H and He will be reduced by one unit

# of grid points (after initial pruning)     ...  29404 (   0.0 sec)
# of grid points (after weights+screening)   ...  28679 (   0.0 sec)
nearest neighbour list constructed           ...    0.0 sec
Grid point re-assignment to atoms done       ...    0.0 sec
Grid point division into batches done        ...    0.1 sec
Reduced shell lists constructed in    0.1 sec

Total number of grid points                  ...    28679
Total number of batches                      ...      451
Average number of points per batch           ...       63
Average number of grid points per atom       ...     4780
Average number of shells per batch           ...    12.81 (44.17%)
Average number of basis functions per batch  ...    24.84 (40.73%)
Average number of large shells per batch     ...     9.14 (71.33%)
Average number of large basis fcns per batch ...    17.52 (70.51%)
Maximum spatial batch extension              ...  12.18, 16.88, 16.88 au
Average spatial batch extension              ...   0.60,  0.77,  0.75 au

Final grid set up in    0.1 sec
Final integration                            ... done (   0.0 sec)
Change in XC energy                          ...     0.000895971
Integrated number of electrons               ...    35.999999627
Previous integrated no of electrons          ...    36.002790706

SMD CDS free energy correction energy :                 3.38651     Kcal/mol
Total Energy after SMD CDS correction =              -599.421839410 Eh
Total Energy       :         -599.42183941 Eh          -16311.09749 eV
  Last Energy change         ...    2.5377e-09  Tolerance :   1.0000e-08
  Last MAX-Density change    ...    1.5606e-05  Tolerance :   1.0000e-07
             **** THE GBW FILE WAS UPDATED (orca1d_01_12_orca_scan.gbw) ****
             **** DENSITY FILE WAS UPDATED (orca1d_01_12_orca_scan.scfp.tmp) ****
             **** ENERGY FILE WAS UPDATED (orca1d_01_12_orca_scan.en.tmp) ****
Total SCF time: 0 days 0 hours 0 min 2 sec 


-------------------------------------------------------------------------------
                          DFT DISPERSION CORRECTION                            
                                                                               
                              DFTD3 V3.1  Rev 1                                
                          USING Becke-Johnson damping                          
-------------------------------------------------------------------------------
-------------------------   ----------------
Dispersion correction           -0.002528866
-------------------------   ----------------


-------------------------   --------------------
FINAL SINGLE POINT ENERGY      -599.424368276340
-------------------------   --------------------



           ************************************************************
           *        Program running with 8 parallel MPI-processes     *
           *              working on a common directory               *
           ************************************************************
------------------------------------------------------------------------------
                         ORCA SCF GRADIENT CALCULATION
------------------------------------------------------------------------------

Gradient of the Kohn-Sham DFT energy:
Kohn-Sham wavefunction type      ... RKS
Hartree-Fock exchange scaling    ...    0.000
Number of operators              ...    1
Number of atoms                  ...    6
Basis set dimensions             ...   61
Integral neglect threshold       ... 2.5e-11
Integral primitive cutoff        ... 2.5e-12

Nuclear repulsion gradient       ... done
One Electron Gradient            ... done
Pre-screening matrix             ... done
RI-J gradient                    ... done
Exchange-correlation gradient    ... done
Dispersion correction            ... done

------------------
CARTESIAN GRADIENT
------------------

   1   F   :   -0.010328198    0.000410442    0.000004814
   2   C   :    0.009357704    0.002165661   -0.003896391
   3   Cl  :   -0.009723609    0.001369828    0.000809426
   4   H   :    0.002647543   -0.003034229    0.001267214
   5   H   :    0.002708532   -0.002309389    0.000562992
   6   H   :    0.005338028    0.001397688    0.001251946

Difference to translation invariance:
           :    0.0000000000   -0.0000000000   -0.0000000000

Norm of the cartesian gradient     ...    0.0193438003
RMS gradient                       ...    0.0045593775
MAX gradient                       ...    0.0103281984

-------
TIMINGS
-------

Total SCF gradient time            ...        0.491 sec

One electron gradient       ....       0.005 sec  (  1.0%)
Prescreening matrices       ....       0.008 sec  (  1.6%)
RI-J Coulomb gradient       ....       0.105 sec  ( 21.5%)
XC gradient                 ....       0.037 sec  (  7.5%)
CPCM gradient               ....       0.068 sec  ( 13.9%)
   A-Matrix (El+Nuc)        ....       0.004 sec  (  0.9%)
   Potential                ....       0.064 sec  ( 13.1%)
------------------------------------------------------------------------------
                         ORCA GEOMETRY RELAXATION STEP
------------------------------------------------------------------------------

Reading the OPT-File                    .... done
Getting information on internals        .... done
Copying old internal coords+grads       .... done
Making the new internal coordinates     .... (new redundants).... done
Validating the new internal coordinates .... (new redundants).... done
Calculating the B-matrix                .... done
Calculating the G,G- and P matrices     .... done
Transforming gradient to internals      .... done
Projecting the internal gradient        .... done
Number of atoms                         ....   6
Number of internal coordinates          ....  17
Current Energy                          ....  -599.424368276 Eh
Current gradient norm                   ....     0.019343800 Eh/bohr
Maximum allowed component of the step   ....  0.300
Current trust radius                    ....  0.300
Updating the Hessian (BFGS)             .... done
Forming the augmented Hessian           .... done
Diagonalizing the augmented Hessian     .... done
Last element of RFO vector              ....  0.716425920
Lowest eigenvalues of augmented Hessian:
 -0.005716074  0.005497593  0.024047653  0.024297802  0.141410936
Length of the computed step             ....  0.973810622
Warning: the length of the step is outside the trust region - taking restricted step instead
The input lambda is                     ....    -0.005716
   iter:   1  x=   -0.008331  g=  328.276193 f(x)=     0.858307
   iter:   2  x=   -0.011695  g=  106.953413 f(x)=     0.359820
   iter:   3  x=   -0.015291  g=   38.877901 f(x)=     0.139796
   iter:   4  x=   -0.017884  g=   17.459803 f(x)=     0.045282
   iter:   5  x=   -0.018738  g=   10.935049 f(x)=     0.009338
   iter:   6  x=   -0.018804  g=    9.513081 f(x)=     0.000626
   iter:   7  x=   -0.018804  g=    9.414011 f(x)=     0.000003
   iter:   8  x=   -0.018804  g=    9.413492 f(x)=     0.000000
   iter:   9  x=   -0.018804  g=    9.413492 f(x)=     0.000000
The output lambda is                    ....    -0.018804 (9 iterations)
The final length of the internal step   ....  0.300000000
Converting the step to cartesian space:
 Initial RMS(Int)=    0.0727606875
Transforming coordinates:
 Iter   0:  RMS(Cart)=    0.0370574293 RMS(Int)=    0.0725998992
 Iter   1:  RMS(Cart)=    0.0002093544 RMS(Int)=    0.0002360025
 Iter   2:  RMS(Cart)=    0.0000022133 RMS(Int)=    0.0000019737
 Iter   3:  RMS(Cart)=    0.0000000473 RMS(Int)=    0.0000000416
Imposing constraints:
 Iter   0:  RMS(Cart)=    0.0000000003 RMS(Int)=    0.0000000000
CONVERGED
done
Storing new coordinates                 .... done

                                .--------------------.
          ----------------------|Geometry convergence|-------------------------
          Item                value                   Tolerance       Converged
          ---------------------------------------------------------------------
          Energy change      -0.0017628669            0.0000300000      NO
          RMS gradient        0.0020748258            0.0005000000      NO
          MAX gradient        0.0041555833            0.0020000000      NO
          RMS step            0.0727606875            0.0070000000      NO
          MAX step            0.1583165725            0.0100000000      NO
          ........................................................
          Max(Bonds)      0.0838      Max(Angles)    1.73
          Max(Dihed)        0.00      Max(Improp)    0.00
          ---------------------------------------------------------------------

The optimization has not yet converged - more geometry cycles are needed


    ---------------------------------------------------------------------------
                         Redundant Internal Coordinates
                            (Angstroem and degrees)

        Definition                    Value    dE/dq     Step     New-Value
    ----------------------------------------------------------------------------
     1. B(C   1,F   0)                3.4827  0.001877 -0.0763    3.4064   
     2. B(Cl  2,C   1)                1.7800 -0.009775 -0.0000    1.7800 C 
     3. B(H   3,C   1)                1.1041 -0.000196  0.0023    1.1064   
     4. B(H   3,F   0)                3.2561  0.003223 -0.0838    3.1723   
     5. B(H   4,F   0)                3.3020  0.002936 -0.0786    3.2235   
     6. B(H   4,C   1)                1.1061  0.000531 -0.0026    1.1035   
     7. B(H   5,F   0)                3.3266  0.002760 -0.0747    3.2519   
     8. B(H   5,C   1)                1.1030 -0.000230  0.0000    1.1030   
     9. A(H   3,C   1,H   4)          107.98 -0.003371    1.22    109.20   
    10. A(Cl  2,C   1,H   5)          108.03 -0.002650    1.08    109.11   
    11. A(H   3,C   1,H   5)          111.86  0.004156   -1.73    110.13   
    12. A(H   4,C   1,H   5)          110.24  0.000870   -0.46    109.78   
    13. A(F   0,C   1,H   3)           69.08  0.000688   -0.58     68.49   
    14. A(F   0,C   1,H   4)           71.46  0.000553   -0.32     71.14   
    15. A(F   0,C   1,H   5)           72.74  0.000472   -0.12     72.62   
    16. A(Cl  2,C   1,H   3)          109.92  0.002017   -0.59    109.33   
    17. A(Cl  2,C   1,H   4)          108.77 -0.001090    0.53    109.30   
    ----------------------------------------------------------------------------

         *************************************************************
         *                GEOMETRY OPTIMIZATION CYCLE   3            *
         *************************************************************
---------------------------------
CARTESIAN COORDINATES (ANGSTROEM)
---------------------------------
  F     -3.425673    0.073802   -0.010949
  C     -0.020213    0.004876    0.016504
  Cl     1.757146   -0.087701   -0.012208
  H     -0.430421   -0.561475   -0.840846
  H     -0.393440   -0.438162    0.955738
  H     -0.327800    1.062359   -0.045238

----------------------------
CARTESIAN COORDINATES (A.U.)
----------------------------
  NO LB      ZA    FRAG     MASS         X           Y           Z
   0 F     9.0000    0    18.998   -6.473583    0.139466   -0.020691
   1 C     6.0000    0    12.011   -0.038196    0.009214    0.031187
   2 Cl   17.0000    0    35.453    3.320526   -0.165730   -0.023070
   3 H     1.0000    0     1.008   -0.813377   -1.061034   -1.588969
   4 H     1.0000    0     1.008   -0.743494   -0.828005    1.806084
   5 H     1.0000    0     1.008   -0.619453    2.007567   -0.085488

--------------------------------
INTERNAL COORDINATES (ANGSTROEM)
--------------------------------
 F      0   0   0     0.000000000000     0.00000000     0.00000000
 C      1   0   0     3.406268240163     0.00000000     0.00000000
 Cl     2   1   0     1.780000000857   177.71067964     0.00000000
 H      2   1   3     1.106378385076    68.49603641    18.81300681
 H      2   1   4     1.103513944939    71.14626328   239.48320476
 H      2   1   4     1.103037838362    72.62409247   120.70990657

---------------------------
INTERNAL COORDINATES (A.U.)
---------------------------
 F      0   0   0     0.000000000000     0.00000000     0.00000000
 C      1   0   0     6.436914112582     0.00000000     0.00000000
 Cl     2   1   0     3.363712520000   177.71067964     0.00000000
 H      2   1   3     2.090752148284    68.49603641    18.81300681
 H      2   1   4     2.085339140897    71.14626328   239.48320476
 H      2   1   4     2.084439429857    72.62409247   120.70990657



           ************************************************************
           *        Program running with 8 parallel MPI-processes     *
           *              working on a common directory               *
           ************************************************************
 One Electron integrals                  ... done
 Pre-screening matrix                    ... done


           ************************************************************
           *        Program running with 8 parallel MPI-processes     *
           *              working on a common directory               *
           ************************************************************

Diagonalization of the overlap matrix:
Smallest eigenvalue                        ... 1.144e-02
Time for diagonalization                   ...    0.001 sec
Threshold for overlap eigenvalues          ... 1.000e-08
Number of eigenvalues below threshold      ... 0
Time for construction of square roots      ...    0.001 sec
Total time needed                          ...    0.002 sec

-------------------
DFT GRID GENERATION
-------------------

General Integration Accuracy     IntAcc      ...  4.340
Radial Grid Type                 RadialGrid  ... Gauss-Chebyshev
Angular Grid (max. acc.)         AngularGrid ... Lebedev-110
Angular grid pruning method      GridPruning ... 3 (G Style)
Weight generation scheme         WeightScheme... Becke
Basis function cutoff            BFCut       ...    1.0000e-11
Integration weight cutoff        WCut        ...    1.0000e-14
Grids for H and He will be reduced by one unit

# of grid points (after initial pruning)     ...   7622 (   0.0 sec)
# of grid points (after weights+screening)   ...   7454 (   0.0 sec)
nearest neighbour list constructed           ...    0.0 sec
Grid point re-assignment to atoms done       ...    0.0 sec
Grid point division into batches done        ...    0.0 sec
Reduced shell lists constructed in    0.0 sec

Total number of grid points                  ...     7454
Total number of batches                      ...      119
Average number of points per batch           ...       62
Average number of grid points per atom       ...     1242
Average number of shells per batch           ...    15.81 (54.53%)
Average number of basis functions per batch  ...    31.56 (51.74%)
Average number of large shells per batch     ...    11.75 (74.31%)
Average number of large basis fcns per batch ...    22.12 (70.10%)
Maximum spatial batch extension              ...  13.49, 20.95, 25.60 au
Average spatial batch extension              ...   0.84,  1.24,  1.31 au

Time for grid setup =    0.021 sec


--------------------
CPCM SOLVATION MODEL
--------------------
CPCM parameters:
  Epsilon                                         ...      78.3550
  Refrac                                          ...       1.0000
  Rsolv                                           ...       1.3000
  Surface type                                    ...    GEPOL SES
  Epsilon function type                           ...         CPCM
Solvent:                                     ... WATER
SMD-CDS solvent descriptors:
  Soln                                       ...    1.3328
  Soln25                                     ...    1.3323
  Sola                                       ...    0.0000
  Solb                                       ...    0.0000
  Solg                                       ...    0.0000
  Solc                                       ...    0.0000
  Solh                                       ...    0.0000
Radii:
 Radius for F  used is    3.2692 Bohr (=   1.7300 Ang.)
 Radius for C  used is    3.4960 Bohr (=   1.8500 Ang.)
 Radius for Cl used is    4.4975 Bohr (=   2.3800 Ang.)
 Radius for H  used is    2.2677 Bohr (=   1.2000 Ang.)
Calculating surface                               ...        done! (  0.0s)
GEPOL surface points                              ...          294
GEPOL Volume                                      ...     641.7107
GEPOL Surface-area                                ...     428.1016
Calculating surface distance matrix               ...        done! (  0.0s)
Performing Cholesky decomposition & store         ...        done! (  0.0s)
Overall time for CPCM initialization              ...                 0.0s
--------------
SCF ITERATIONS
--------------
ITER       Energy         Delta-E        Max-DP      RMS-DP      [F,P]     Damp
               ***  Starting incremental Fock matrix formation  ***
                      *** Initiating the SOSCF procedure ***
                      *** Re-Reading the Fockian *** 
                      *** Removing any level shift *** 
ITER      Energy       Delta-E        Grad      Rot      Max-DP    RMS-DP
  0   -599.42950397 -599.4295039722  0.002126  0.002126  0.006329  0.000426
               *** Restarting incremental Fock matrix formation ***
  1   -599.42963957  -0.0001355938  0.000619  0.005074  0.008963  0.000517
  2   -599.42964965  -0.0000100882  0.001683  0.001644  0.004568  0.000192
  3   -599.42965694  -0.0000072808  0.000735  0.000747  0.001451  0.000090
  4   -599.42965917  -0.0000022349  0.000055  0.000225  0.000455  0.000026
  5   -599.42965924  -0.0000000654  0.000052  0.000073  0.000130  0.000007
  6   -599.42965926  -0.0000000267  0.000027  0.000056  0.000094  0.000007
  7   -599.42965927  -0.0000000121  0.000011  0.000012  0.000024  0.000001
  8   -599.42965927   0.0000000012  0.000003  0.000010  0.000015  0.000001
                  ***Gradient check signals convergence***
              ***Rediagonalizing the Fockian in SOSCF/NRSCF***

               *****************************************************
               *                     SUCCESS                       *
               *           SCF CONVERGED AFTER   9 CYCLES          *
               *****************************************************

Setting up the final grid:

General Integration Accuracy     IntAcc      ...  4.670
Radial Grid Type                 RadialGrid  ... Gauss-Chebyshev
Angular Grid (max. acc.)         AngularGrid ... Lebedev-302
Angular grid pruning method      GridPruning ... 3 (G Style)
Weight generation scheme         WeightScheme... Becke
Basis function cutoff            BFCut       ...    1.0000e-11
Integration weight cutoff        WCut        ...    1.0000e-14
Grids for H and He will be reduced by one unit

# of grid points (after initial pruning)     ...  29404 (   0.0 sec)
# of grid points (after weights+screening)   ...  28665 (   0.0 sec)
nearest neighbour list constructed           ...    0.0 sec
Grid point re-assignment to atoms done       ...    0.0 sec
Grid point division into batches done        ...    0.1 sec
Reduced shell lists constructed in    0.1 sec

Total number of grid points                  ...    28665
Total number of batches                      ...      450
Average number of points per batch           ...       63
Average number of grid points per atom       ...     4778
Average number of shells per batch           ...    13.38 (46.14%)
Average number of basis functions per batch  ...    26.03 (42.68%)
Average number of large shells per batch     ...     9.45 (70.62%)
Average number of large basis fcns per batch ...    18.28 (70.20%)
Maximum spatial batch extension              ...  12.04, 16.88, 16.88 au
Average spatial batch extension              ...   0.61,  0.77,  0.74 au

Final grid set up in    0.1 sec
Final integration                            ... done (   0.0 sec)
Change in XC energy                          ...     0.000931969
Integrated number of electrons               ...    35.999991377
Previous integrated no of electrons          ...    36.002588837

SMD CDS free energy correction energy :                 3.32602     Kcal/mol
Total Energy after SMD CDS correction =              -599.423426960 Eh
Total Energy       :         -599.42342696 Eh          -16311.14069 eV
  Last Energy change         ...    8.9130e-11  Tolerance :   1.0000e-08
  Last MAX-Density change    ...    4.4169e-06  Tolerance :   1.0000e-07
             **** THE GBW FILE WAS UPDATED (orca1d_01_12_orca_scan.gbw) ****
             **** DENSITY FILE WAS UPDATED (orca1d_01_12_orca_scan.scfp.tmp) ****
             **** ENERGY FILE WAS UPDATED (orca1d_01_12_orca_scan.en.tmp) ****
Total SCF time: 0 days 0 hours 0 min 3 sec 


-------------------------------------------------------------------------------
                          DFT DISPERSION CORRECTION                            
                                                                               
                              DFTD3 V3.1  Rev 1                                
                          USING Becke-Johnson damping                          
-------------------------------------------------------------------------------
-------------------------   ----------------
Dispersion correction           -0.002556354
-------------------------   ----------------


-------------------------   --------------------
FINAL SINGLE POINT ENERGY      -599.425983313902
-------------------------   --------------------



           ************************************************************
           *        Program running with 8 parallel MPI-processes     *
           *              working on a common directory               *
           ************************************************************
------------------------------------------------------------------------------
                         ORCA SCF GRADIENT CALCULATION
------------------------------------------------------------------------------

Gradient of the Kohn-Sham DFT energy:
Kohn-Sham wavefunction type      ... RKS
Hartree-Fock exchange scaling    ...    0.000
Number of operators              ...    1
Number of atoms                  ...    6
Basis set dimensions             ...   61
Integral neglect threshold       ... 2.5e-11
Integral primitive cutoff        ... 2.5e-12

Nuclear repulsion gradient       ... done
[...]
  Solg                                       ...    0.0000
  Solc                                       ...    0.0000
  Solh                                       ...    0.0000
Radii:
 Radius for F  used is    3.2692 Bohr (=   1.7300 Ang.)
 Radius for C  used is    3.4960 Bohr (=   1.8500 Ang.)
 Radius for Cl used is    4.4975 Bohr (=   2.3800 Ang.)
 Radius for H  used is    2.2677 Bohr (=   1.2000 Ang.)
Calculating surface                               ...        done! (  0.0s)
GEPOL surface points                              ...          245
GEPOL Volume                                      ...     646.1356
GEPOL Surface-area                                ...     416.9012
Calculating surface distance matrix               ...        done! (  0.0s)
Performing Cholesky decomposition & store         ...        done! (  0.0s)
Overall time for CPCM initialization              ...                 0.0s
--------------
SCF ITERATIONS
--------------
ITER       Energy         Delta-E        Max-DP      RMS-DP      [F,P]     Damp
               ***  Starting incremental Fock matrix formation  ***
                      *** Initiating the SOSCF procedure ***
                      *** Re-Reading the Fockian *** 
                      *** Removing any level shift *** 
ITER      Energy       Delta-E        Grad      Rot      Max-DP    RMS-DP
  0   -599.47946273 -599.4794627258  0.000169  0.000169  0.000310  0.000019
               *** Restarting incremental Fock matrix formation ***
  1   -599.47946321  -0.0000004815  0.000049  0.000089  0.000138  0.000010
  2   -599.47946321   0.0000000005  0.000074  0.000054  0.000109  0.000005
  3   -599.47946324  -0.0000000359  0.000013  0.000019  0.000038  0.000002
  4   -599.47946324  -0.0000000000  0.000010  0.000008  0.000026  0.000001
                  ***Gradient check signals convergence***
              ***Rediagonalizing the Fockian in SOSCF/NRSCF***

               *****************************************************
               *                     SUCCESS                       *
               *           SCF CONVERGED AFTER   5 CYCLES          *
               *****************************************************

Setting up the final grid:

General Integration Accuracy     IntAcc      ...  4.670
Radial Grid Type                 RadialGrid  ... Gauss-Chebyshev
Angular Grid (max. acc.)         AngularGrid ... Lebedev-302
Angular grid pruning method      GridPruning ... 3 (G Style)
Weight generation scheme         WeightScheme... Becke
Basis function cutoff            BFCut       ...    1.0000e-11
Integration weight cutoff        WCut        ...    1.0000e-14
Grids for H and He will be reduced by one unit

# of grid points (after initial pruning)     ...  29404 (   0.0 sec)
# of grid points (after weights+screening)   ...  28611 (   0.0 sec)
nearest neighbour list constructed           ...    0.0 sec
Grid point re-assignment to atoms done       ...    0.0 sec
Grid point division into batches done        ...    0.1 sec
Reduced shell lists constructed in    0.1 sec

Total number of grid points                  ...    28611
Total number of batches                      ...      451
Average number of points per batch           ...       63
Average number of grid points per atom       ...     4768
Average number of shells per batch           ...    15.69 (54.10%)
Average number of basis functions per batch  ...    31.76 (52.06%)
Average number of large shells per batch     ...    12.59 (80.22%)
Average number of large basis fcns per batch ...    25.34 (79.80%)
Maximum spatial batch extension              ...  16.65, 16.05, 16.05 au
Average spatial batch extension              ...   0.59,  0.65,  0.64 au

Final grid set up in    0.1 sec
Final integration                            ... done (   0.0 sec)
Change in XC energy                          ...     0.000428025
Integrated number of electrons               ...    36.000000539
Previous integrated no of electrons          ...    35.999236449

SMD CDS free energy correction energy :                 3.03921     Kcal/mol
Total Energy after SMD CDS correction =              -599.474191929 Eh

----------------
TOTAL SCF ENERGY
----------------

Total Energy       :         -599.47419193 Eh          -16312.52207 eV

Components:
Nuclear Repulsion  :           79.40395895 Eh            2160.69157 eV
Electronic Energy  :         -678.87815088 Eh          -18473.21365 eV
One Electron Energy:         -994.97011236 Eh          -27074.51320 eV
Two Electron Energy:          316.09196148 Eh            8601.29955 eV
CPCM Dielectric    :           -0.09679656 Eh              -2.63397 eV
SMD CDS (Gcds)     :            0.00484329 Eh               0.13179 eV

Virial components:
Potential Energy   :        -1197.03706104 Eh          -32573.03441 eV
Kinetic Energy     :          597.56286911 Eh           16260.51234 eV
Virial Ratio       :            2.00319853


DFT components:
N(Alpha)           :       18.000000269460 electrons
N(Beta)            :       18.000000269460 electrons
N(Total)           :       36.000000538919 electrons
E(X)               :      -43.875173536660 Eh       
E(C)               :       -1.289372384725 Eh       
E(XC)              :      -45.164545921385 Eh       
DFET-embed. en.    :        0.000000000000 Eh       
CPCM Solvation Model Properties:
Surface-charge          :            0.99059587
Charge-correction       :           -0.00151468 Eh              -0.04122 eV
Free-energy (cav+disp)  :            0.00336354 Eh               0.09153 eV
Corrected G(solv)       :         -599.47234307 Eh          -16312.47177 eV

---------------
SCF CONVERGENCE
---------------

  Last Energy change         ...   -1.7939e-09  Tolerance :   1.0000e-08
  Last MAX-Density change    ...    3.7471e-06  Tolerance :   1.0000e-07
  Last RMS-Density change    ...    3.1697e-07  Tolerance :   5.0000e-09
  Last Orbital Gradient      ...    1.6261e-06  Tolerance :   1.0000e-05
  Last Orbital Rotation      ...    2.3182e-06  Tolerance :   1.0000e-05

             **** THE GBW FILE WAS UPDATED (orca1d_01_12_orca_scan.gbw) ****
             **** DENSITY FILE WAS UPDATED (orca1d_01_12_orca_scan.scfp.tmp) ****
             **** ENERGY FILE WAS UPDATED (orca1d_01_12_orca_scan.en.tmp) ****
----------------
ORBITAL ENERGIES
----------------

  NO   OCC          E(Eh)            E(eV) 
   0   2.0000    -100.451970     -2733.4371 
   1   2.0000     -24.223964      -659.1676 
   2   2.0000      -9.938586      -270.4427 
   3   2.0000      -8.983256      -244.4468 
   4   2.0000      -6.807960      -185.2540 
   5   2.0000      -6.807441      -185.2399 
   6   2.0000      -6.807437      -185.2398 
   7   2.0000      -1.043833       -28.4041 
   8   2.0000      -0.592129       -16.1127 
   9   2.0000      -0.545639       -14.8476 
  10   2.0000      -0.411161       -11.1882 
  11   2.0000      -0.391742       -10.6598 
  12   2.0000      -0.391612       -10.6563 
  13   2.0000      -0.264482        -7.1969 
  14   2.0000      -0.264423        -7.1953 
  15   2.0000      -0.131208        -3.5703 
  16   2.0000      -0.129475        -3.5232 
  17   2.0000      -0.129392        -3.5209 
  18   0.0000       0.073536         2.0010 
  19   0.0000       0.109433         2.9778 
  20   0.0000       0.128121         3.4864 
  21   0.0000       0.128525         3.4973 
  22   0.0000       0.428622        11.6634 
  23   0.0000       0.430497        11.7144 
  24   0.0000       0.433790        11.8040 
  25   0.0000       0.542339        14.7578 
  26   0.0000       0.608720        16.5641 
  27   0.0000       0.613631        16.6977 
  28   0.0000       0.613980        16.7073 
  29   0.0000       0.668883        18.2012 
  30   0.0000       0.881466        23.9859 
  31   0.0000       0.881514        23.9872 
  32   0.0000       0.885633        24.0993 
  33   0.0000       0.885726        24.1018 
  34   0.0000       0.892393        24.2833 
  35   0.0000       0.956934        26.0395 
  36   0.0000       0.957035        26.0422 
  37   0.0000       1.027058        27.9477 
  38   0.0000       1.027275        27.9536 
  39   0.0000       1.073526        29.2121 
  40   0.0000       1.103691        30.0330 
  41   0.0000       1.308526        35.6068 
  42   0.0000       1.309001        35.6197 
  43   0.0000       1.471916        40.0529 
  44   0.0000       1.634169        44.4680 
  45   0.0000       1.679656        45.7058 
  46   0.0000       1.680837        45.7379 
  47   0.0000       1.815262        49.3958 
  48   0.0000       1.816414        49.4271 
  49   0.0000       1.888391        51.3857 
  50   0.0000       2.145185        58.3734 
  51   0.0000       2.269885        61.7667 
  52   0.0000       2.270449        61.7821 
  53   0.0000       2.573007        70.0151 
  54   0.0000       2.760111        75.1064 
  55   0.0000       2.760920        75.1285 
  56   0.0000       3.027797        82.3905 
  57   0.0000       3.029886        82.4474 
  58   0.0000       3.257364        88.6374 
  59   0.0000       3.257653        88.6452 
  60   0.0000       3.650659        99.3395 

                    ********************************
                    * MULLIKEN POPULATION ANALYSIS *
                    ********************************

-----------------------
MULLIKEN ATOMIC CHARGES
-----------------------
   0 F :   -0.301803
   1 C :    0.171958
   2 Cl:   -0.904499
   3 H :    0.011910
   4 H :    0.011322
   5 H :    0.011111
Sum of atomic charges:   -1.0000000

--------------------------------
MULLIKEN REDUCED ORBITAL CHARGES
--------------------------------
  0 F s       :     3.919467  s :     3.919467
      pz      :     1.943973  p :     5.376026
      px      :     1.488810
      py      :     1.943243
      dz2     :     0.000828  d :     0.006309
      dxz     :     0.001495
      dyz     :     0.000014
      dx2y2   :     0.002459
      dxy     :     0.001513
  1 C s       :     3.053651  s :     3.053651
      pz      :     1.053181  p :     2.720041
      px      :     0.612192
      py      :     1.054668
      dz2     :     0.008332  d :     0.054350
      dxz     :     0.012154
      dyz     :     0.004372
      dx2y2   :     0.016694
      dxy     :     0.012799
  2 Cls       :     5.996714  s :     5.996714
      pz      :     3.987057  p :    11.907679
      px      :     3.933618
      py      :     3.987004
      dz2     :     0.000011  d :     0.000105
      dxz     :     0.000031
      dyz     :     0.000001
      dx2y2   :     0.000033
      dxy     :     0.000029
  3 H s       :     0.965479  s :     0.965479
      pz      :     0.010227  p :     0.022611
      px      :     0.004674
      py      :     0.007710
  4 H s       :     0.966083  s :     0.966083
      pz      :     0.010898  p :     0.022595
      px      :     0.004850
      py      :     0.006847
  5 H s       :     0.966167  s :     0.966167
      pz      :     0.005494  p :     0.022721
      px      :     0.005240
      py      :     0.011987


                     *******************************
                     * LOEWDIN POPULATION ANALYSIS *
                     *******************************

----------------------
LOEWDIN ATOMIC CHARGES
----------------------
   0 F :   -0.179423
   1 C :    0.065182
   2 Cl:   -0.901905
   3 H :    0.005328
   4 H :    0.005370
   5 H :    0.005448

-------------------------------
LOEWDIN REDUCED ORBITAL CHARGES
-------------------------------
  0 F s       :     3.757243  s :     3.757243
      pz      :     1.941636  p :     5.412393
      px      :     1.529736
      py      :     1.941021
      dz2     :     0.001410  d :     0.009786
      dxz     :     0.002066
      dyz     :     0.000018
      dx2y2   :     0.004193
      dxy     :     0.002099
  1 C s       :     2.886946  s :     2.886946
      pz      :     1.097426  p :     2.917799
      px      :     0.722942
      py      :     1.097432
      dz2     :     0.020564  d :     0.130073
      dxz     :     0.028557
      dyz     :     0.012829
      dx2y2   :     0.037506
      dxy     :     0.030616
  2 Cls       :     5.993655  s :     5.993655
      pz      :     3.989801  p :    11.908156
      px      :     3.928633
      py      :     3.989721
      dz2     :     0.000007  d :     0.000094
      dxz     :     0.000035
      dyz     :     0.000001
      dx2y2   :     0.000019
      dxy     :     0.000033
  3 H s       :     0.929416  s :     0.929416
      pz      :     0.031080  p :     0.065255
      px      :     0.012870
      py      :     0.021306
  4 H s       :     0.929418  s :     0.929418
      pz      :     0.033730  p :     0.065212
      px      :     0.013478
      py      :     0.018004
  5 H s       :     0.929219  s :     0.929219
      pz      :     0.012566  p :     0.065334
      px      :     0.014874
      py      :     0.037894


                      *****************************
                      * MAYER POPULATION ANALYSIS *
                      *****************************

  NA   - Mulliken gross atomic population
  ZA   - Total nuclear charge
  QA   - Mulliken gross atomic charge
  VA   - Mayer's total valence
  BVA  - Mayer's bonded valence
  FA   - Mayer's free valence

  ATOM       NA         ZA         QA         VA         BVA        FA
  0 F      9.3018     9.0000    -0.3018     1.0093     1.0093     0.0000
  1 C      5.8280     6.0000     0.1720     3.8813     3.8813     0.0000
  2 Cl    17.9045    17.0000    -0.9045     0.1882     0.1882     0.0000
  3 H      0.9881     1.0000     0.0119     1.0257     1.0257    -0.0000
  4 H      0.9887     1.0000     0.0113     1.0250     1.0250    -0.0000
  5 H      0.9889     1.0000     0.0111     1.0258     1.0258    -0.0000

  Mayer bond orders larger than 0.1
B(  0-F ,  1-C ) :   0.9543 B(  1-C ,  3-H ) :   0.9661 B(  1-C ,  4-H ) :   0.9661 
B(  1-C ,  5-H ) :   0.9661 

-------
TIMINGS
-------

Total SCF time: 0 days 0 hours 0 min 2 sec 

Total time                  ....       2.398 sec
Sum of individual times     ....       2.222 sec  ( 92.7%)

Fock matrix formation       ....       2.050 sec  ( 85.5%)
  Split-RI-J                ....       0.592 sec  ( 28.9% of F)
  XC integration            ....       0.067 sec  (  3.3% of F)
    Basis function eval.    ....       0.021 sec  ( 30.9% of XC)
    Density eval.           ....       0.005 sec  (  6.8% of XC)
    XC-Functional eval.     ....       0.005 sec  (  7.4% of XC)
    XC-Potential eval.      ....       0.005 sec  (  6.8% of XC)
Diagonalization             ....       0.000 sec  (  0.0%)
Density matrix formation    ....       0.001 sec  (  0.0%)
Population analysis         ....       0.002 sec  (  0.1%)
Initial guess               ....       0.002 sec  (  0.1%)
Orbital Transformation      ....       0.000 sec  (  0.0%)
Orbital Orthonormalization  ....       0.001 sec  (  0.0%)
DIIS solution               ....       0.000 sec  (  0.0%)
SOSCF solution              ....       0.002 sec  (  0.1%)
Grid generation             ....       0.165 sec  (  6.9%)


-------------------------------------------------------------------------------
                          DFT DISPERSION CORRECTION                            
                                                                               
                              DFTD3 V3.1  Rev 1                                
                          USING Becke-Johnson damping                          
-------------------------------------------------------------------------------
The PBE functional is recognized
Active option DFTDOPT                   ...         4   

molecular C6(AA) [au] = 469.883248 


            DFT-D V3
 parameters
 s6 scaling factor         :     1.0000 
 a1 scaling factor         :     0.4289 
 s8 scaling factor         :     0.7875 
 a2 scaling factor         :     4.4407 
 ad hoc parameters k1-k3   :    16.0000     1.3333    -4.0000 

 Edisp/kcal,au: -1.499266983880  -0.002389233766 
 E6   /kcal   :  -1.063454255 
 E8   /kcal   :  -0.435812729 
 % E8         :  29.068387021 

-------------------------   ----------------
Dispersion correction           -0.002389234
-------------------------   ----------------


-------------------------   --------------------
FINAL SINGLE POINT ENERGY      -599.476581162301
-------------------------   --------------------

                                *** OPTIMIZATION RUN DONE ***

Storing optimized geometry in orca1d_01_12_orca_scan.010.xyz ... done
Storing optimized geometry and energy in orca1d_01_12_orca_scan.xyzall ... done
Storing actual gbw-file in orca1d_01_12_orca_scan.010.gbw ... done

                            ***************************************
                            *     ORCA property calculations      *
                            ***************************************

                                    ---------------------
                                    Active property flags
                                    ---------------------
   (+) Dipole Moment


------------------------------------------------------------------------------
                       ORCA ELECTRIC PROPERTIES CALCULATION
------------------------------------------------------------------------------

Dipole Moment Calculation                       ... on
Quadrupole Moment Calculation                   ... off
Polarizability Calculation                      ... off
GBWName                                         ... orca1d_01_12_orca_scan.gbw
Electron density file                           ... orca1d_01_12_orca_scan.scfp.tmp
The origin for moment calculation is the CENTER OF MASS  = ( 0.612755, -0.051022 -0.000657)

-------------
DIPOLE MOMENT
-------------
                                X             Y             Z
Electronic contribution:      0.23567      -0.01574      -0.00913
Nuclear contribution   :     -2.71442       0.12646       0.04039
                        -----------------------------------------
Total Dipole Moment    :     -2.47874       0.11072       0.03126
                        -----------------------------------------
Magnitude (a.u.)       :      2.48141
Magnitude (Debye)      :      6.30725



--------------------
Rotational spectrum 
--------------------
 
Rotational constants in cm-1:     5.178514     0.055904     0.055904 
Rotational constants in MHz : 155247.941283  1675.968059  1675.961315 

 Dipole components along the rotational axes: 
x,y,z [a.u.] :    -2.481410    -0.003229    -0.001745 
x,y,z [Debye]:    -6.307243    -0.008207    -0.004435 

 
                   **** RELAXED SURFACE SCAN DONE ***

                    SUMMARY OF THE CALCULATED SURFACE

----------------------------
RELAXED SURFACE SCAN RESULTS
----------------------------

Column   1: NONAME

The Calculated Surface using the 'Actual Energy'
   1.78000000 -599.43778490
   1.94666667 -599.43755905
   2.11333333 -599.43420186
   2.28000000 -599.44249847
   2.44666667 -599.45683370
   2.61333333 -599.46708540
   2.78000000 -599.47303605
   2.94666667 -599.47590024
   3.11333333 -599.47680224
   3.28000000 -599.47658116

The Calculated Surface using the SCF energy
   1.78000000 -599.43491812
   1.94666667 -599.43470341
   2.11333333 -599.43132743
   2.28000000 -599.43965079
   2.44666667 -599.45400623
   2.61333333 -599.46430960
   2.78000000 -599.47033283
   2.94666667 -599.47328682
   3.11333333 -599.47429457
   3.28000000 -599.47419193


Timings for individual modules:

Sum of individual times         ...      417.622 sec (=   6.960 min)
GTO integral calculation        ...       59.613 sec (=   0.994 min)  14.3 %
SCF iterations                  ...      285.419 sec (=   4.757 min)  68.3 %
SCF Gradient evaluation         ...       70.581 sec (=   1.176 min)  16.9 %
Geometry relaxation             ...        2.008 sec (=   0.033 min)   0.5 %
                             ****ORCA TERMINATED NORMALLY****
TOTAL RUN TIME: 0 days 0 hours 7 minutes 7 seconds 502 msec
