
                                 *****************
                                 * O   R   C   A *
                                 *****************

           --- An Ab Initio, DFT and Semiempirical electronic structure package ---

                  #######################################################
                  #                        -***-                        #
                  #          Department of theory and spectroscopy      #
                  #               Directorship: Frank Neese             #
                  #        Max Planck Institute fuer Kohlenforschung    #
                  #                Kaiser Wilhelm Platz 1               #
                  #                 D-45470 Muelheim/Ruhr               #
                  #                      Germany                        #
                  #                                                     #
                  #                  All rights reserved                #
                  #                        -***-                        #
                  #######################################################


                         Program Version 4.1.1  - RELEASE  -


 With contributions from (in alphabetic order):
   Daniel Aravena         : Magnetic Properties
   Michael Atanasov       : Ab Initio Ligand Field Theory
   Alexander A. Auer      : GIAO ZORA
   Ute Becker             : Parallelization
   Giovanni Bistoni       : ED, Open-shell LED
   Martin Brehm           : Molecular dynamics
   Dmytro Bykov           : SCF Hessian
   Vijay G. Chilkuri      : MRCI spin determinant printing
   Dipayan Datta          : RHF DLPNO-CCSD density
   Achintya Kumar Dutta   : EOM-CC, STEOM-CC
   Dmitry Ganyushin       : Spin-Orbit,Spin-Spin,Magnetic field MRCI
   Miquel Garcia          : C-PCM Hessian
   Yang Guo               : DLPNO-NEVPT2, CIM, IAO-localization
   Andreas Hansen         : Spin unrestricted coupled pair/coupled cluster methods
   Benjamin Helmich-Paris : CASSCF linear response (MC-RPA)
   Lee Huntington         : MR-EOM, pCC
   Robert Izsak           : Overlap fitted RIJCOSX, COSX-SCS-MP3, EOM
   Christian Kollmar      : KDIIS, OOCD, Brueckner-CCSD(T), CCSD density
   Simone Kossmann        : Meta GGA functionals, TD-DFT gradient, OOMP2, MP2 Hessian
   Martin Krupicka        : AUTO-CI
   Lucas Lang             : DCDCAS
   Dagmar Lenk            : GEPOL surface, SMD
   Dimitrios Liakos       : Extrapolation schemes; parallel MDCI
   Dimitrios Manganas     : ROCIS; embedding schemes
   Dimitrios Pantazis     : SARC Basis sets
   Taras Petrenko         : DFT Hessian,TD-DFT gradient, ASA, ECA, R-Raman, ABS, FL, XAS/XES, NRVS
   Peter Pinski           : DLPNO-MP2, DLPNO-MP2 Gradient
   Christoph Reimann      : Effective Core Potentials
   Marius Retegan         : Local ZFS, SOC
   Christoph Riplinger    : Optimizer, TS searches, QM/MM, DLPNO-CCSD(T), (RO)-DLPNO pert. Triples
   Tobias Risthaus        : Range-separated hybrids, TD-DFT gradient, RPA, STAB
   Michael Roemelt        : Restricted open shell CIS
   Masaaki Saitow         : Open-shell DLPNO
   Barbara Sandhoefer     : DKH picture change effects
   Avijit Sen             : IP-ROCIS
   Kantharuban Sivalingam : CASSCF convergence, NEVPT2, FIC-MRCI
   Bernardo de Souza      : ESD, SOC TD-DFT
   Georgi Stoychev        : AutoAux, RI-MP2 NMR
   Willem Van den Heuvel  : Paramagnetic NMR
   Boris Wezisla          : Elementary symmetry handling
   Frank Wennmohs         : Technical directorship


 We gratefully acknowledge several colleagues who have allowed us to
 interface, adapt or use parts of their codes:
   Stefan Grimme, W. Hujo, H. Kruse,             : VdW corrections, initial TS optimization,
                  C. Bannwarth                     DFT functionals, gCP, sTDA/sTD-DF
   Ed Valeev                                     : LibInt (2-el integral package), F12 methods
   Garnet Chan, S. Sharma, J. Yang, R. Olivares  : DMRG
   Ulf Ekstrom                                   : XCFun DFT Library
   Mihaly Kallay                                 : mrcc  (arbitrary order and MRCC methods)
   Andreas Klamt, Michael Diedenhofen            : otool_cosmo (COSMO solvation model)
   Jiri Pittner, Ondrej Demel                    : Mk-CCSD
   Frank Weinhold                                : gennbo (NPA and NBO analysis)
   Christopher J. Cramer and Donald G. Truhlar   : smd solvation model
   Lars Goerigk                                  : TD-DFT with DH, B97 family of functionals
   V. Asgeirsson, H. Jonsson                     : NEB implementation
   FAccTs GmbH                                   : IRC, NEB, NEB-TS, Multilevel


 Your calculation uses the libint2 library for the computation of 2-el integrals
 For citations please refer to: http://libint.valeyev.net

 This ORCA versions uses:
   CBLAS   interface :  Fast vector & matrix operations
   LAPACKE interface :  Fast linear algebra routines
   SCALAPACK package :  Parallel linear algebra routines


Your calculation utilizes the atom-pairwise dispersion correction
with the Becke-Johnson damping scheme (D3BJ)
Cite in your paper:
S.Grimme, S.Ehrlich, L.Goerigk, J Comput Chem, (2011), 32, 1456–1465 
S.Grimme, J.Antony, S.Ehrlich and H.Krieg, J.Chem.Phys., 132, (2010), 154104 
   

Your calculation utilizes the SMD solvation module
Please cite in your paper:
A.V. Marenich, C.J. Cramer, D.G. Truhlar J. Phys. Chem. B, 113, (2009), 6378 

----- Orbital basis set information -----
Your calculation utilizes the basis: def2-SVP
   F. Weigend and R. Ahlrichs, Phys. Chem. Chem. Phys. 7, 3297 (2005).

----- AuxJ basis set information -----
Your calculation utilizes the auxiliary basis: def2/J
   F. Weigend, Phys. Chem. Chem. Phys. 8, 1057 (2006).

================================================================================
                                        WARNINGS
                       Please study these warnings very carefully!
================================================================================


WARNING: Geometry Optimization
  ===> : Switching off AutoStart
         For restart on a previous wavefunction, please use MOREAD

INFO   : the flag for use of LIBINT has been found!

================================================================================
                                       INPUT FILE
================================================================================
NAME = xtb1d_01_12_orca_opt.inp
|  1> ! OptTS Freq PBE0 RIJCOSX D3BJ def2-SVP def2/J PAL8
|  2> %cpcm
|  3>  smd true
|  4>  SMDsolvent "water"
|  5>  end
|  6> %geom
|  7> Calc_Hess true
|  8> Recalc_Hess 40
|  9> Trust 0.2
| 10> MaxIter 100
| 11> end
| 12> %geom
| 13> modify_internal
| 14> { B 1 2 A } end
| 15> end
| 16> %geom
| 17> modify_internal
| 18> { B 0 1 A } end
| 19> end
| 20> %geom MaxIter 100 end
| 21> %scf 
| 22> maxiter 250 
| 23> end
| 24> % maxcore 4000
| 25> *xyz -1 1
| 26> F  -3.05169432 -0.40666321  0.89092862 
| 27> C   0.21424705  0.13293926 -0.41134236 
| 28> Cl  1.15118081 -0.26892900  1.34805718 
| 29> H   0.61441587 -0.61461941 -1.07350371 
| 30> H  -0.82741147  0.00602701 -0.15996771 
| 31> H   0.51037207  1.14679535 -0.61594201 
| 32> *
| 33> 
| 34>                          ****END OF INPUT****
================================================================================

                       *****************************
                       * Geometry Optimization Run *
                       *****************************

Geometry optimization settings:
Update method            Update   .... Bofill
Choice of coordinates    CoordSys .... Z-matrix Internals
Initial Hessian          InHess   .... Almoef's Model

Convergence Tolerances:
Energy Change            TolE     ....  5.0000e-06 Eh
Max. Gradient            TolMAXG  ....  3.0000e-04 Eh/bohr
RMS Gradient             TolRMSG  ....  1.0000e-04 Eh/bohr
Max. Displacement        TolMAXD  ....  4.0000e-03 bohr
RMS Displacement         TolRMSD  ....  2.0000e-03 bohr

------------------------------------------------------------------------------
                        ORCA OPTIMIZATION COORDINATE SETUP
------------------------------------------------------------------------------

The optimization will be done in new redundant internal coordinates
Making redundant internal coordinates   ...  (new redundants) Bond   2,  1 is already included
done
Following TS mode number                ...     0
Evaluating the initial hessian          ...  (Is done on the fly) done
Evaluating the coordinates              ...  done
Calculating the B-matrix                .... done
Calculating the G-matrix                .... done
Diagonalizing the G-matrix              .... done
The first mode is                       ....    4
The number of degrees of freedom        ....   12

    -----------------------------------------------------------------
                    Redundant Internal Coordinates


    -----------------------------------------------------------------
         Definition                    Initial Value    d2E/dq (diagonal element)
    -----------------------------------------------------------------
      1. B(C   1,F   0)                  3.5572         0.000000   
      2. B(Cl  2,C   1)                  2.0334         0.000000   
      3. B(H   3,C   1)                  1.0758         0.000000   
      4. B(H   4,C   1)                  1.0790         0.000000   
      5. B(H   4,F   0)                  2.4944         0.000000   
      6. B(H   5,C   1)                  1.0759         0.000000   
      7. A(Cl  2,C   1,H   4)          102.7084         0.000000   
      8. A(Cl  2,C   1,H   3)          102.9339         0.000000   
      9. A(Cl  2,C   1,H   5)          102.9420         0.000000   
     10. A(H   3,C   1,H   5)          115.8100         0.000000   
     11. A(H   4,C   1,H   5)          114.8882         0.000000   
     12. A(H   3,C   1,H   4)          114.8804         0.000000   
     13. A(F   0,H   4,C   1)          168.0721         0.000000   
     14. D(F   0,H   4,C   1,H   3)    110.0805         0.000000   
     15. D(F   0,H   4,C   1,H   5)   -111.8269         0.000000   
     16. D(F   0,H   4,C   1,Cl  2)     -0.8668         0.000000   
    -----------------------------------------------------------------

Number of atoms                         .... 6
Number of degrees of freedom            .... 16

         *************************************************************
         *                GEOMETRY OPTIMIZATION CYCLE   1            *
         *************************************************************
---------------------------------
CARTESIAN COORDINATES (ANGSTROEM)
---------------------------------
  F     -3.051694   -0.406663    0.890929
  C      0.214247    0.132939   -0.411342
  Cl     1.151181   -0.268929    1.348057
  H      0.614416   -0.614619   -1.073504
  H     -0.827411    0.006027   -0.159968
  H      0.510372    1.146795   -0.615942

----------------------------
CARTESIAN COORDINATES (A.U.)
----------------------------
  NO LB      ZA    FRAG     MASS         X           Y           Z
   0 F     9.0000    0    18.998   -5.766867   -0.768482    1.683611
   1 C     6.0000    0    12.011    0.404868    0.251219   -0.777324
   2 Cl   17.0000    0    35.453    2.175416   -0.508202    2.547459
   3 H     1.0000    0     1.008    1.161078   -1.161462   -2.028628
   4 H     1.0000    0     1.008   -1.563581    0.011389   -0.302295
   5 H     1.0000    0     1.008    0.964463    2.167129   -1.163962

--------------------------------
INTERNAL COORDINATES (ANGSTROEM)
--------------------------------
 F      0   0   0     0.000000000000     0.00000000     0.00000000
 C      1   0   0     3.557169318891     0.00000000     0.00000000
 Cl     2   1   0     2.033428068650    94.37599906     0.00000000
 H      2   1   3     1.075842322567   117.47918252   107.02741061
 H      2   1   3     1.079049770007     8.33335240   180.84804880
 H      2   1   3     1.075850926235   117.72887439   252.90319668

---------------------------
INTERNAL COORDINATES (A.U.)
---------------------------
 F      0   0   0     0.000000000000     0.00000000     0.00000000
 C      1   0   0     6.722075824691     0.00000000     0.00000000
 Cl     2   1   0     3.842622162778    94.37599906     0.00000000
 H      2   1   3     2.033047352933   117.47918252   107.02741061
 H      2   1   3     2.039108550183     8.33335240   180.84804880
 H      2   1   3     2.033063611509   117.72887439   252.90319668

---------------------
BASIS SET INFORMATION
---------------------
There are 4 groups of distinct atoms

 Group   1 Type F   : 7s4p1d contracted to 3s2p1d pattern {511/31/1}
 Group   2 Type C   : 7s4p1d contracted to 3s2p1d pattern {511/31/1}
 Group   3 Type Cl  : 10s7p1d contracted to 4s3p1d pattern {5311/511/1}
 Group   4 Type H   : 4s1p contracted to 2s1p pattern {31/1}

Atom   0F    basis set group =>   1
Atom   1C    basis set group =>   2
Atom   2Cl   basis set group =>   3
Atom   3H    basis set group =>   4
Atom   4H    basis set group =>   4
Atom   5H    basis set group =>   4
-------------------------------
AUXILIARY BASIS SET INFORMATION
-------------------------------
There are 4 groups of distinct atoms

 Group   1 Type F   : 12s5p4d2f1g contracted to 6s4p3d1f1g pattern {711111/2111/211/2/1}
 Group   2 Type C   : 12s5p4d2f1g contracted to 6s4p3d1f1g pattern {711111/2111/211/2/1}
 Group   3 Type Cl  : 14s5p5d2f1g contracted to 8s4p3d1f1g pattern {71111111/2111/311/2/1}
 Group   4 Type H   : 5s2p1d contracted to 3s1p1d pattern {311/2/1}

Atom   0F    basis set group =>   1
Atom   1C    basis set group =>   2
Atom   2Cl   basis set group =>   3
Atom   3H    basis set group =>   4
Atom   4H    basis set group =>   4
Atom   5H    basis set group =>   4


           ************************************************************
           *        Program running with 8 parallel MPI-processes     *
           *              working on a common directory               *
           ************************************************************
------------------------------------------------------------------------------
                           ORCA GTO INTEGRAL CALCULATION
                           -- RI-GTO INTEGRALS CHOSEN --
------------------------------------------------------------------------------

                         BASIS SET STATISTICS AND STARTUP INFO

Gaussian basis set:
 # of primitive gaussian shells          ...   57
 # of primitive gaussian functions       ...  105
 # of contracted shells                  ...   29
 # of contracted basis functions         ...   61
 Highest angular momentum                ...    2
 Maximum contraction depth               ...    5
Auxiliary gaussian basis set:
 # of primitive gaussian shells          ...   99
 # of primitive gaussian functions       ...  265
 # of contracted shells                  ...   62
 # of contracted aux-basis functions     ...  182
 Highest angular momentum                ...    4
 Maximum contraction depth               ...    7
Ratio of auxiliary to basis functions    ...  2.98
Integral package used                  ... LIBINT
 One Electron integrals                  ... done
 Ordering auxiliary basis shells         ... done
 Integral threshhold             Thresh  ...  2.500e-11
 Primitive cut-off               TCut    ...  2.500e-12
 Pre-screening matrix                    ... done
 Shell pair data                         ... 
 Ordering of the shell pairs             ... done (   0.000 sec) 408 of 435 pairs
 Determination of significant pairs      ... done (   0.000 sec)
 Creation of shell pair data             ... done (   0.000 sec)
 Storage of shell pair data              ... done (   0.000 sec)
 Shell pair data done in (   0.000 sec)
 Computing two index integrals           ... done
 Cholesky decomposition of the V-matrix  ... done


Timings:
 Total evaluation time                   ...   0.178 sec (  0.003 min)
 One electron matrix time                ...   0.013 sec (  0.000 min) =  7.4%
 Schwartz matrix evaluation time         ...   0.146 sec (  0.002 min) = 82.3%
 Two index repulsion integral time       ...   0.001 sec (  0.000 min) =  0.6%
 Cholesky decomposition of V             ...   0.001 sec (  0.000 min) =  0.5%
 Three index repulsion integral time     ...   0.000 sec (  0.000 min) =  0.0%



           ************************************************************
           *        Program running with 8 parallel MPI-processes     *
           *              working on a common directory               *
           ************************************************************
-------------------------------------------------------------------------------
                                 ORCA SCF
-------------------------------------------------------------------------------

------------
SCF SETTINGS
------------
Hamiltonian:
 Density Functional     Method          .... DFT(GTOs)
 Exchange Functional    Exchange        .... PBE
   PBE kappa parameter   XKappa         ....  0.804000
   PBE mue parameter    XMuePBE         ....  0.219520
 Correlation Functional Correlation     .... PBE
   PBE beta parameter  CBetaPBE         ....  0.066725
 LDA part of GGA corr.  LDAOpt          .... PW91-LDA
 Gradients option       PostSCFGGA      .... off
 Hybrid DFT is turned on
   Fraction HF Exchange ScalHFX         ....  0.250000
   Scaling of DF-GGA-X  ScalDFX         ....  0.750000
   Scaling of DF-GGA-C  ScalDFC         ....  1.000000
   Scaling of DF-LDA-C  ScalLDAC        ....  1.000000
   Perturbative correction              ....  0.000000
   Density functional embedding theory  .... OFF
   NL short-range parameter             ....  6.900000
 RI-approximation to the Coulomb term is turned on
   Number of auxiliary basis functions  .... 182
   RIJ-COSX (HFX calculated with COS-X)).... on


General Settings:
 Integral files         IntName         .... xtb1d_01_12_orca_opt
 Hartree-Fock type      HFTyp           .... RHF
 Total Charge           Charge          ....   -1
 Multiplicity           Mult            ....    1
 Number of Electrons    NEL             ....   36
 Basis Dimension        Dim             ....   61
 Nuclear Repulsion      ENuc            ....     78.4104614883 Eh

Convergence Acceleration:
 DIIS                   CNVDIIS         .... on
   Start iteration      DIISMaxIt       ....    12
   Startup error        DIISStart       ....  0.200000
   # of expansion vecs  DIISMaxEq       ....     5
   Bias factor          DIISBfac        ....   1.050
   Max. coefficient     DIISMaxC        ....  10.000
 Newton-Raphson         CNVNR           .... off
 SOSCF                  CNVSOSCF        .... on
   Start iteration      SOSCFMaxIt      ....   150
   Startup grad/error   SOSCFStart      ....  0.003300
 Level Shifting         CNVShift        .... on
   Level shift para.    LevelShift      ....    0.2500
   Turn off err/grad.   ShiftErr        ....    0.0010
 Zerner damping         CNVZerner       .... off
 Static damping         CNVDamp         .... on
   Fraction old density DampFac         ....    0.7000
   Max. Damping (<1)    DampMax         ....    0.9800
   Min. Damping (>=0)   DampMin         ....    0.0000
   Turn off err/grad.   DampErr         ....    0.1000
 Fernandez-Rico         CNVRico         .... off

SCF Procedure:
 Maximum # iterations   MaxIter         ....   250
 SCF integral mode      SCFMode         .... Direct
   Integral package                     .... LIBINT
 Reset frequency        DirectResetFreq ....    20
 Integral Threshold     Thresh          ....  2.500e-11 Eh
 Primitive CutOff       TCut            ....  2.500e-12 Eh

Convergence Tolerance:
 Convergence Check Mode ConvCheckMode   .... Total+1el-Energy
 Convergence forced     ConvForced      .... 0
 Energy Change          TolE            ....  1.000e-08 Eh
 1-El. energy change                    ....  1.000e-05 Eh
 Orbital Gradient       TolG            ....  1.000e-05
 Orbital Rotation angle TolX            ....  1.000e-05
 DIIS Error             TolErr          ....  5.000e-07


Diagonalization of the overlap matrix:
Smallest eigenvalue                        ... 1.233e-02
Time for diagonalization                   ...    0.001 sec
Threshold for overlap eigenvalues          ... 1.000e-08
Number of eigenvalues below threshold      ... 0
Time for construction of square roots      ...    0.001 sec
Total time needed                          ...    0.002 sec

-------------------
DFT GRID GENERATION
-------------------

General Integration Accuracy     IntAcc      ...  4.340
Radial Grid Type                 RadialGrid  ... Gauss-Chebyshev
Angular Grid (max. acc.)         AngularGrid ... Lebedev-110
Angular grid pruning method      GridPruning ... 3 (G Style)
Weight generation scheme         WeightScheme... Becke
Basis function cutoff            BFCut       ...    1.0000e-11
Integration weight cutoff        WCut        ...    1.0000e-14
Grids for H and He will be reduced by one unit

# of grid points (after initial pruning)     ...   7622 (   0.0 sec)
# of grid points (after weights+screening)   ...   7467 (   0.0 sec)
nearest neighbour list constructed           ...    0.0 sec
Grid point re-assignment to atoms done       ...    0.0 sec
Grid point division into batches done        ...    0.0 sec
Reduced shell lists constructed in    0.0 sec

Total number of grid points                  ...     7467
Total number of batches                      ...      120
Average number of points per batch           ...       62
Average number of grid points per atom       ...     1244
Average number of shells per batch           ...    15.69 (54.09%)
Average number of basis functions per batch  ...    31.19 (51.13%)
Average number of large shells per batch     ...    11.19 (71.31%)
Average number of large basis fcns per batch ...    21.69 (69.54%)
Maximum spatial batch extension              ...  13.93, 22.25, 19.31 au
Average spatial batch extension              ...   1.15,  1.38,  1.24 au

Time for grid setup =    0.022 sec

------------------------------
INITIAL GUESS: MODEL POTENTIAL
------------------------------
Loading Hartree-Fock densities                     ... done
Calculating cut-offs                               ... done
Setting up the integral package                    ... done
Initializing the effective Hamiltonian             ... done
Starting the Coulomb interaction                   ... done (   0.0 sec)
Reading the grid                                   ... done
Mapping shells                                     ... done
Starting the XC term evaluation                    ... done (   0.0 sec)
  promolecular density results
     # of electrons  =     34.998902816
     EX              =    -43.238140399
     EC              =     -1.229874576
     EX+EC           =    -44.468014975
Transforming the Hamiltonian                       ... done (   0.0 sec)
Diagonalizing the Hamiltonian                      ... done (   0.0 sec)
Back transforming the eigenvectors                 ... done (   0.0 sec)
Now organizing SCF variables                       ... done
                      ------------------
                      INITIAL GUESS DONE (   0.1 sec)
                      ------------------
--------------------
COSX GRID GENERATION
--------------------

General Integration Accuracy     IntAcc      ...  3.340
Radial Grid Type                 RadialGrid  ... Gauss-Chebyshev
Angular Grid (max. acc.)         AngularGrid ... Lebedev-50
Angular grid pruning method      GridPruning ... 3 (G Style)
Weight generation scheme         WeightScheme... Becke
Basis function cutoff            BFCut       ...    1.0000e-11
Integration weight cutoff        WCut        ...    1.0000e-14
Grids for H and He will be reduced by one unit

# of grid points (after initial pruning)     ...   2826 (   0.0 sec)
# of grid points (after weights+screening)   ...   2773 (   0.0 sec)
nearest neighbour list constructed           ...    0.0 sec
Grid point re-assignment to atoms done       ...    0.0 sec
Grid point division into batches done        ...    0.0 sec
Reduced shell lists constructed in    0.0 sec

Total number of grid points                  ...     2773
Total number of batches                      ...       46
Average number of points per batch           ...       60
Average number of grid points per atom       ...      462
Average number of shells per batch           ...    17.43 (60.10%)
Average number of basis functions per batch  ...    35.71 (58.55%)
Average number of large shells per batch     ...    12.14 (69.67%)
Average number of large basis fcns per batch ...    23.57 (66.00%)
Maximum spatial batch extension              ...  12.82, 20.72, 20.72 au
Average spatial batch extension              ...   1.36,  1.69,  1.98 au

Overlap Fitting                  UseSFitting ... on
Constructing numerical overlap ... done (      0.0 sec)
Inverting numerical overlap    ... done (      0.0 sec)
Obtaining analytic overlap     ... done (      0.0 sec)
Final contraction and storage  ... done (      0.0 sec)


General Integration Accuracy     IntAcc      ...  3.670
Radial Grid Type                 RadialGrid  ... Gauss-Chebyshev
Angular Grid (max. acc.)         AngularGrid ... Lebedev-50
Angular grid pruning method      GridPruning ... 3 (G Style)
Weight generation scheme         WeightScheme... Becke
Basis function cutoff            BFCut       ...    1.0000e-11
Integration weight cutoff        WCut        ...    1.0000e-14
Grids for H and He will be reduced by one unit

# of grid points (after initial pruning)     ...   3566 (   0.0 sec)
# of grid points (after weights+screening)   ...   3495 (   0.0 sec)
nearest neighbour list constructed           ...    0.0 sec
Grid point re-assignment to atoms done       ...    0.0 sec
Grid point division into batches done        ...    0.0 sec
Reduced shell lists constructed in    0.0 sec

Total number of grid points                  ...     3495
Total number of batches                      ...       57
Average number of points per batch           ...       61
Average number of grid points per atom       ...      582
Average number of shells per batch           ...    18.00 (62.07%)
Average number of basis functions per batch  ...    37.33 (61.20%)
Average number of large shells per batch     ...    13.44 (74.69%)
Average number of large basis fcns per batch ...    25.89 (69.35%)
Maximum spatial batch extension              ...  13.78, 22.67, 22.67 au
Average spatial batch extension              ...   1.45,  1.74,  2.06 au

Overlap Fitting                  UseSFitting ... on
Constructing numerical overlap ... done (      0.0 sec)
Inverting numerical overlap    ... done (      0.0 sec)
Obtaining analytic overlap     ... done (      0.0 sec)
Final contraction and storage  ... done (      0.0 sec)


General Integration Accuracy     IntAcc      ...  4.010
Radial Grid Type                 RadialGrid  ... Gauss-Chebyshev
Angular Grid (max. acc.)         AngularGrid ... Lebedev-110
Angular grid pruning method      GridPruning ... 3 (G Style)
Weight generation scheme         WeightScheme... Becke
Basis function cutoff            BFCut       ...    1.0000e-11
Integration weight cutoff        WCut        ...    1.0000e-14
Grids for H and He will be reduced by one unit

# of grid points (after initial pruning)     ...   6574 (   0.0 sec)
# of grid points (after weights+screening)   ...   6443 (   0.0 sec)
nearest neighbour list constructed           ...    0.0 sec
Grid point re-assignment to atoms done       ...    0.0 sec
Grid point division into batches done        ...    0.0 sec
Reduced shell lists constructed in    0.0 sec

Total number of grid points                  ...     6443
Total number of batches                      ...      104
Average number of points per batch           ...       61
Average number of grid points per atom       ...     1074
Average number of shells per batch           ...    16.43 (56.65%)
Average number of basis functions per batch  ...    33.14 (54.33%)
Average number of large shells per batch     ...    11.86 (72.17%)
Average number of large basis fcns per batch ...    23.29 (70.26%)
Maximum spatial batch extension              ...  13.60, 21.01, 17.95 au
Average spatial batch extension              ...   1.21,  1.47,  1.28 au

Overlap Fitting                  UseSFitting ... on
Constructing numerical overlap ... done (      0.0 sec)
Inverting numerical overlap    ... done (      0.0 sec)
Obtaining analytic overlap     ... done (      0.0 sec)
Final contraction and storage  ... done (      0.0 sec)

Time for X-Grid setup             =    0.094 sec

--------------------
CPCM SOLVATION MODEL
--------------------
CPCM parameters:
  Epsilon                                         ...      78.3550
  Refrac                                          ...       1.0000
  Rsolv                                           ...       1.3000
  Surface type                                    ...    GEPOL SES
  Epsilon function type                           ...         CPCM
Solvent:                                     ... WATER
SMD-CDS solvent descriptors:
  Soln                                       ...    1.3328
  Soln25                                     ...    1.3323
  Sola                                       ...    0.0000
  Solb                                       ...    0.0000
  Solg                                       ...    0.0000
  Solc                                       ...    0.0000
  Solh                                       ...    0.0000
Radii:
 Radius for F  used is    3.2692 Bohr (=   1.7300 Ang.)
 Radius for C  used is    3.4960 Bohr (=   1.8500 Ang.)
 Radius for Cl used is    4.4975 Bohr (=   2.3800 Ang.)
 Radius for H  used is    2.2677 Bohr (=   1.2000 Ang.)
Calculating surface                               ...        done! (  0.0s)
GEPOL surface points                              ...          321
GEPOL Volume                                      ...     662.5273
GEPOL Surface-area                                ...     426.7657
Calculating surface distance matrix               ...        done! (  0.0s)
Performing Cholesky decomposition & store         ...        done! (  0.0s)
Overall time for CPCM initialization              ...                 0.0s
--------------
SCF ITERATIONS
--------------
ITER       Energy         Delta-E        Max-DP      RMS-DP      [F,P]     Damp
               ***  Starting incremental Fock matrix formation  ***
  0   -599.3468045583   0.000000000000 0.10509036  0.00591055  0.3669331 0.7000
  1   -599.4058442991  -0.059039740755 0.09434058  0.00430310  0.1619818 0.7000
                               ***Turning on DIIS***
  2   -599.4292552741  -0.023410975069 0.14682823  0.00699089  0.0497020 0.0000
  3   -599.4683062284  -0.039050954276 0.06645112  0.00273032  0.0848925 0.0000
  4   -599.4751578203  -0.006851591885 0.01366861  0.00054233  0.0063607 0.0000
  5   -599.4752797589  -0.000121938609 0.00735029  0.00026327  0.0042505 0.0000
                      *** Initiating the SOSCF procedure ***
                           *** Shutting down DIIS ***
                      *** Re-Reading the Fockian *** 
                      *** Removing any level shift *** 
ITER      Energy       Delta-E        Grad      Rot      Max-DP    RMS-DP
  6   -599.47530011  -0.0000203463  0.000327  0.000327  0.004519  0.000174
               *** Restarting incremental Fock matrix formation ***
  7   -599.47530490  -0.0000047914  0.000133  0.000370  0.000509  0.000026
  8   -599.47530483   0.0000000659  0.000160  0.000195  0.000263  0.000014
  9   -599.47530503  -0.0000002022  0.000014  0.000014  0.000060  0.000003
 10   -599.47530503  -0.0000000011  0.000009  0.000007  0.000023  0.000001
 11   -599.47530503   0.0000000003  0.000003  0.000003  0.000011  0.000000
 12   -599.47530504  -0.0000000031  0.000003  0.000001  0.000004  0.000000
                 **** Energy Check signals convergence ****
              ***Rediagonalizing the Fockian in SOSCF/NRSCF***

               *****************************************************
               *                     SUCCESS                       *
               *           SCF CONVERGED AFTER  13 CYCLES          *
               *****************************************************

Setting up the final grid:

General Integration Accuracy     IntAcc      ...  4.670
Radial Grid Type                 RadialGrid  ... Gauss-Chebyshev
Angular Grid (max. acc.)         AngularGrid ... Lebedev-302
Angular grid pruning method      GridPruning ... 3 (G Style)
Weight generation scheme         WeightScheme... Becke
Basis function cutoff            BFCut       ...    1.0000e-11
Integration weight cutoff        WCut        ...    1.0000e-14
Grids for H and He will be reduced by one unit

# of grid points (after initial pruning)     ...  29404 (   0.0 sec)
# of grid points (after weights+screening)   ...  28657 (   0.0 sec)
nearest neighbour list constructed           ...    0.0 sec
Grid point re-assignment to atoms done       ...    0.0 sec
Grid point division into batches done        ...    0.1 sec
Reduced shell lists constructed in    0.1 sec

Total number of grid points                  ...    28657
Total number of batches                      ...      452
Average number of points per batch           ...       63
Average number of grid points per atom       ...     4776
Average number of shells per batch           ...    12.12 (41.80%)
Average number of basis functions per batch  ...    23.91 (39.20%)
Average number of large shells per batch     ...     8.64 (71.27%)
Average number of large basis fcns per batch ...    16.84 (70.44%)
Maximum spatial batch extension              ...  12.43, 17.93, 16.05 au
Average spatial batch extension              ...   0.68,  0.82,  0.75 au

Final grid set up in    0.1 sec
Final integration                            ... done (   0.0 sec)
Change in XC energy                          ...    -0.000513649
Integrated number of electrons               ...    36.000105670
Previous integrated no of electrons          ...    36.002293842
Old exchange energy                            =    -11.027738863 Eh
New exchange energy                            =    -11.027323019 Eh
Exchange energy change after final integration =      0.000415844 Eh
Total energy after final integration           =   -599.475402839 Eh
Final COS-X integration done in                =     0.052 sec

SMD CDS free energy correction energy :                 3.91967     Kcal/mol
Total Energy after SMD CDS correction =              -599.469156445 Eh

----------------
TOTAL SCF ENERGY
----------------

Total Energy       :         -599.46915645 Eh          -16312.38505 eV

Components:
Nuclear Repulsion  :           78.41046149 Eh            2133.65713 eV
Electronic Energy  :         -677.87961793 Eh          -18446.04218 eV
One Electron Energy:         -992.70812705 Eh          -27012.96145 eV
Two Electron Energy:          314.82850912 Eh            8566.91927 eV
CPCM Dielectric    :           -0.13770122 Eh              -3.74704 eV
SMD CDS (Gcds)     :            0.00624639 Eh               0.16997 eV

Virial components:
Potential Energy   :        -1197.05020990 Eh          -32573.39221 eV
Kinetic Energy     :          597.58105345 Eh           16261.00716 eV
Virial Ratio       :            2.00315958


DFT components:
N(Alpha)           :       18.000052834962 electrons
N(Beta)            :       18.000052834962 electrons
N(Total)           :       36.000105669925 electrons
E(X)               :      -32.921097949832 Eh       
E(C)               :       -1.284053246312 Eh       
E(XC)              :      -34.205151196144 Eh       
DFET-embed. en.    :        0.000000000000 Eh       
CPCM Solvation Model Properties:
Surface-charge          :            0.99214340
Charge-correction       :           -0.00131099 Eh              -0.03567 eV
Free-energy (cav+disp)  :            0.00339331 Eh               0.09234 eV
Corrected G(solv)       :         -599.46707412 Eh          -16312.32839 eV

---------------
SCF CONVERGENCE
---------------

  Last Energy change         ...    3.2288e-09  Tolerance :   1.0000e-08
  Last MAX-Density change    ...    3.9968e-15  Tolerance :   1.0000e-07
  Last RMS-Density change    ...    1.0427e-16  Tolerance :   5.0000e-09
  Last Orbital Gradient      ...    6.3227e-08  Tolerance :   1.0000e-05
  Last Orbital Rotation      ...    8.5081e-08  Tolerance :   1.0000e-05

             **** THE GBW FILE WAS UPDATED (xtb1d_01_12_orca_opt.gbw) ****
             **** DENSITY FILE WAS UPDATED (xtb1d_01_12_orca_opt.scfp.tmp) ****
             **** ENERGY FILE WAS UPDATED (xtb1d_01_12_orca_opt.en.tmp) ****
----------------
ORBITAL ENERGIES
----------------

  NO   OCC          E(Eh)            E(eV) 
   0   2.0000    -101.646187     -2765.9334 
   1   2.0000     -24.493546      -666.5033 
   2   2.0000     -10.281827      -279.7827 
   3   2.0000      -9.493908      -258.3424 
   4   2.0000      -7.235532      -196.8888 
   5   2.0000      -7.226054      -196.6309 
   6   2.0000      -7.226001      -196.6295 
   7   2.0000      -0.885859       -24.1054 
   8   2.0000      -0.809926       -22.0392 
   9   2.0000      -0.683560       -18.6006 
  10   2.0000      -0.444935       -12.1073 
  11   2.0000      -0.438537       -11.9332 
  12   2.0000      -0.369695       -10.0599 
  13   2.0000      -0.293032        -7.9738 
  14   2.0000      -0.291886        -7.9426 
  15   2.0000      -0.183972        -5.0061 
  16   2.0000      -0.181468        -4.9380 
  17   2.0000      -0.181187        -4.9304 
  18   0.0000      -0.009443        -0.2570 
  19   0.0000       0.111434         3.0323 
  20   0.0000       0.159437         4.3385 
  21   0.0000       0.193944         5.2775 
  22   0.0000       0.441456        12.0126 
  23   0.0000       0.442732        12.0473 
  24   0.0000       0.481784        13.1100 
  25   0.0000       0.529512        14.4087 
  26   0.0000       0.674755        18.3610 
  27   0.0000       0.689887        18.7728 
  28   0.0000       0.714281        19.4366 
  29   0.0000       0.735643        20.0179 
  30   0.0000       0.822387        22.3783 
  31   0.0000       0.822573        22.3834 
  32   0.0000       0.843154        22.9434 
  33   0.0000       0.844209        22.9721 
  34   0.0000       0.855420        23.2772 
  35   0.0000       0.924755        25.1639 
  36   0.0000       0.925307        25.1789 
  37   0.0000       1.241622        33.7862 
  38   0.0000       1.242401        33.8074 
  39   0.0000       1.248286        33.9676 
  40   0.0000       1.286800        35.0156 
  41   0.0000       1.335607        36.3437 
  42   0.0000       1.336457        36.3668 
  43   0.0000       1.511454        41.1288 
  44   0.0000       1.518677        41.3253 
  45   0.0000       1.699096        46.2348 
  46   0.0000       1.714947        46.6661 
  47   0.0000       1.861716        50.6599 
  48   0.0000       2.055611        55.9360 
  49   0.0000       2.060835        56.0782 
  50   0.0000       2.066958        56.2448 
  51   0.0000       2.425680        66.0061 
  52   0.0000       2.426109        66.0178 
  53   0.0000       2.822110        76.7935 
  54   0.0000       2.923523        79.5531 
  55   0.0000       2.937617        79.9366 
  56   0.0000       3.331452        90.6534 
  57   0.0000       3.331666        90.6592 
  58   0.0000       3.332923        90.6934 
  59   0.0000       3.333112        90.6986 
  60   0.0000       3.342348        90.9499 

                    ********************************
                    * MULLIKEN POPULATION ANALYSIS *
                    ********************************

-----------------------
MULLIKEN ATOMIC CHARGES
-----------------------
   0 F :   -0.893207
   1 C :   -0.070923
   2 Cl:   -0.314246
   3 H :    0.120080
   4 H :    0.039831
   5 H :    0.118466
Sum of atomic charges:   -1.0000000

--------------------------------
MULLIKEN REDUCED ORBITAL CHARGES
--------------------------------
  0 F s       :     3.990562  s :     3.990562
      pz      :     1.979362  p :     5.902641
      px      :     1.926349
      py      :     1.996930
      dz2     :    -0.000000  d :     0.000004
      dxz     :     0.000002
      dyz     :     0.000000
      dx2y2   :     0.000001
      dxy     :     0.000001
  1 C s       :     3.188471  s :     3.188471
      pz      :     0.769139  p :     2.860211
      px      :     1.022482
      py      :     1.068589
      dz2     :     0.004095  d :     0.022242
      dxz     :     0.003835
      dyz     :     0.004776
      dx2y2   :     0.006725
      dxy     :     0.002810
  2 Cls       :     5.972061  s :     5.972061
      pz      :     3.509417  p :    11.326983
      px      :     3.853008
      py      :     3.964558
      dz2     :     0.005420  d :     0.015202
      dxz     :     0.005689
      dyz     :     0.002563
      dx2y2   :     0.000876
      dxy     :     0.000654
  3 H s       :     0.854794  s :     0.854794
      pz      :     0.008183  p :     0.025126
      px      :     0.006262
      py      :     0.010681
  4 H s       :     0.933292  s :     0.933292
      pz      :     0.004735  p :     0.026877
      px      :     0.017312
      py      :     0.004831
  5 H s       :     0.856446  s :     0.856446
      pz      :     0.004157  p :     0.025089
      px      :     0.005475
      py      :     0.015456


                     *******************************
                     * LOEWDIN POPULATION ANALYSIS *
                     *******************************

----------------------
LOEWDIN ATOMIC CHARGES
----------------------
   0 F :   -0.925683
   1 C :   -0.000916
   2 Cl:   -0.155631
   3 H :    0.041865
   4 H :   -0.001261
   5 H :    0.041626

-------------------------------
LOEWDIN REDUCED ORBITAL CHARGES
-------------------------------
  0 F s       :     3.993764  s :     3.993764
      pz      :     1.985781  p :     5.931897
      px      :     1.948258
      py      :     1.997859
      dz2     :     0.000001  d :     0.000022
      dxz     :     0.000011
      dyz     :     0.000001
      dx2y2   :     0.000008
      dxy     :     0.000002
  1 C s       :     2.942675  s :     2.942675
      pz      :     0.846294  p :     3.004845
      px      :     1.057608
      py      :     1.100943
      dz2     :     0.009473  d :     0.053397
      dxz     :     0.008563
      dyz     :     0.011584
      dx2y2   :     0.017154
      dxy     :     0.006622
  2 Cls       :     5.872249  s :     5.872249
      pz      :     3.481569  p :    11.268881
      px      :     3.836207
      py      :     3.951105
      dz2     :     0.005148  d :     0.014501
      dxz     :     0.005647
      dyz     :     0.002310
      dx2y2   :     0.000796
      dxy     :     0.000600
  3 H s       :     0.883704  s :     0.883704
      pz      :     0.025570  p :     0.074431
      px      :     0.018287
      py      :     0.030573
  4 H s       :     0.917574  s :     0.917574
      pz      :     0.013363  p :     0.083688
      px      :     0.056888
      py      :     0.013436
  5 H s       :     0.883999  s :     0.883999
      pz      :     0.012568  p :     0.074375
      px      :     0.016124
      py      :     0.045683


                      *****************************
                      * MAYER POPULATION ANALYSIS *
                      *****************************

  NA   - Mulliken gross atomic population
  ZA   - Total nuclear charge
  QA   - Mulliken gross atomic charge
  VA   - Mayer's total valence
  BVA  - Mayer's bonded valence
  FA   - Mayer's free valence

  ATOM       NA         ZA         QA         VA         BVA        FA
  0 F      9.8932     9.0000    -0.8932     0.2027     0.2027     0.0000
  1 C      6.0709     6.0000    -0.0709     3.7308     3.7308     0.0000
  2 Cl    17.3142    17.0000    -0.3142     0.9319     0.9319    -0.0000
  3 H      0.8799     1.0000     0.1201     0.9768     0.9768    -0.0000
  4 H      0.9602     1.0000     0.0398     1.1670     1.1670    -0.0000
  5 H      0.8815     1.0000     0.1185     0.9775     0.9775     0.0000

  Mayer bond orders larger than 0.1
B(  0-F ,  4-H ) :   0.2457 B(  1-C ,  2-Cl) :   0.9153 B(  1-C ,  3-H ) :   0.9720 
B(  1-C ,  4-H ) :   0.9176 B(  1-C ,  5-H ) :   0.9730 

-------
TIMINGS
-------

Total SCF time: 0 days 0 hours 0 min 5 sec 

Total time                  ....       5.208 sec
Sum of individual times     ....       5.077 sec  ( 97.5%)

Fock matrix formation       ....       4.737 sec  ( 90.9%)
  Split-RI-J                ....       1.338 sec  ( 28.3% of F)
  Chain of spheres X        ....       0.628 sec  ( 13.3% of F)
  COS-X 1 center corr.      ....       0.000 sec  (  0.0% of F)
  XC integration            ....       0.140 sec  (  2.9% of F)
    Basis function eval.    ....       0.022 sec  ( 15.9% of XC)
    Density eval.           ....       0.009 sec  (  6.2% of XC)
    XC-Functional eval.     ....       0.010 sec  (  7.2% of XC)
    XC-Potential eval.      ....       0.009 sec  (  6.8% of XC)
Diagonalization             ....       0.003 sec  (  0.1%)
Density matrix formation    ....       0.001 sec  (  0.0%)
Population analysis         ....       0.002 sec  (  0.0%)
Initial guess               ....       0.109 sec  (  2.1%)
Orbital Transformation      ....       0.000 sec  (  0.0%)
Orbital Orthonormalization  ....       0.000 sec  (  0.0%)
DIIS solution               ....       0.002 sec  (  0.0%)
SOSCF solution              ....       0.002 sec  (  0.0%)
Grid generation             ....       0.222 sec  (  4.3%)


-------------------------------------------------------------------------------
                          DFT DISPERSION CORRECTION                            
                                                                               
                              DFTD3 V3.1  Rev 1                                
                          USING Becke-Johnson damping                          
-------------------------------------------------------------------------------
The PBE0 functional is recognized
Active option DFTDOPT                   ...         4   

molecular C6(AA) [au] = 487.401141 


            DFT-D V3
 parameters
 s6 scaling factor         :     1.0000 
 a1 scaling factor         :     0.4145 
 s8 scaling factor         :     1.2177 
 a2 scaling factor         :     4.8593 
 ad hoc parameters k1-k3   :    16.0000     1.3333    -4.0000 

 Edisp/kcal,au: -1.350170947516  -0.002151634134 
 E6   /kcal   :  -0.849802328 
 E8   /kcal   :  -0.500368619 
 % E8         :  37.059649375 

-------------------------   ----------------
Dispersion correction           -0.002151634
-------------------------   ----------------


-------------------------   --------------------
FINAL SINGLE POINT ENERGY      -599.471308079614
-------------------------   --------------------



           ************************************************************
           *        Program running with 8 parallel MPI-processes     *
           *              working on a common directory               *
           ************************************************************
------------------------------------------------------------------------------
                         ORCA SCF GRADIENT CALCULATION
------------------------------------------------------------------------------

Gradient of the Kohn-Sham DFT energy:
Kohn-Sham wavefunction type      ... RKS
Hartree-Fock exchange scaling    ...    0.250
Number of operators              ...    1
Number of atoms                  ...    6
Basis set dimensions             ...   61
Integral neglect threshold       ... 2.5e-11
Integral primitive cutoff        ... 2.5e-12

Nuclear repulsion gradient       ... done
One Electron Gradient            ... done
Pre-screening matrix             ... done
RI-J gradient                    ... done
COSX-gradient                    ... done
Exchange-correlation gradient    ... done
Dispersion correction            ... done

------------------
CARTESIAN GRADIENT
------------------

   1   F   :   -0.006474254   -0.000140712    0.004341048
   2   C   :   -0.023622438    0.012916855   -0.051147435
   3   Cl  :    0.021428500   -0.009477613    0.041178601
   4   H   :   -0.005019064    0.006719692    0.009315000
   5   H   :    0.016745414    0.003521562   -0.007076405
   6   H   :   -0.003910282   -0.011099699    0.004912770

Difference to translation invariance:
           :   -0.0008521249    0.0024400860    0.0015235798

Norm of the cartesian gradient     ...    0.0794293233
RMS gradient                       ...    0.0187216710
MAX gradient                       ...    0.0511474347

-------
TIMINGS
-------

Total SCF gradient time            ...        0.592 sec

One electron gradient       ....       0.002 sec  (  0.4%)
Prescreening matrices       ....       0.008 sec  (  1.3%)
RI-J Coulomb gradient       ....       0.102 sec  ( 17.2%)
COSX gradient               ....       0.075 sec  ( 12.6%)
XC gradient                 ....       0.053 sec  (  8.9%)
CPCM gradient               ....       0.061 sec  ( 10.4%)
   A-Matrix (El+Nuc)        ....       0.002 sec  (  0.3%)
   Potential                ....       0.060 sec  ( 10.1%)


           ************************************************************
           *        Program running with 8 parallel MPI-processes     *
           *              working on a common directory               *
           ************************************************************

-------------------------------------------------------------------------------
                               ORCA SCF HESSIAN
-------------------------------------------------------------------------------

Hessian of the Kohn-Sham DFT energy:
Kohn-Sham wavefunction type                      ... RKS
Hartree-Fock exchange scaling                    ...    0.250
Number of operators                              ...    1
Number of atoms                                  ...    6
Basis set dimensions                             ...   61
Integral neglect threshold                       ... 2.5e-11
Integral primitive cutoff                        ... 2.5e-12

Setting up DFT Hessian calculations              ... 
Electron density on the grid                     ... found on disk
Electron density on the final grid               ... found on disk
Building xc-kernel on the grid                   ... done   (      0.0 sec)
Building xc-kernel on the final grid             ... done   (      0.0 sec)
                                                     done   (      0.0 sec)

Nuclear repulsion Hessian                        ... done   (      0.0 sec)
C-PCM contribution to the Fock matrix            ... done   (      0.4 sec)

----------------------------------------------
Forming right-hand sides of CP-SCF equations     ...
----------------------------------------------
One electron integral derivatives                ... done   (      0.1 sec)
Transforming the overlap derivative matrices     ... done   (      0.0 sec)
Adding tr(S(x)F(y) C-PCM term to the hessian     ... done   (      0.2 sec)
Making the Q(x) pseudodensities                  ... done   (      0.0 sec)
Adding the E*S(x)*S(y) terms to the Hessian      ... done   (      0.0 sec)
Calculating energy weighted overlap derivatives  ... done   (      0.0 sec)
Two electron integral derivatives (RI)           ... done   (      0.3 sec)
Exchange-correlation integral derivatives        ... done   (      0.3 sec)
tr(F(y)Q(x)) contribution to the Hessian         ... done   (      0.0 sec)
Response fock operator R(S(x)) (RIJCOSX)         ... done   (      0.4 sec)
XC Response fock operator R(S(x))                ... done   (      0.1 sec)
tr(F(y)S(x)) contribution to the Hessian         ... done   (      0.0 sec)
Transforming and finalizing RHSs                 ... done   (      0.0 sec)

----------------------------------------------
Solving the CP-SCF equations (RIJCOSX)           ...
----------------------------------------------
     CP-SCF ITERATION   0: 
     CP-SCF ITERATION   1:      0.000714263448
     CP-SCF ITERATION   2:      0.000024759604
     CP-SCF ITERATION   3:      0.000003990701
     CP-SCF ITERATION   4:      0.000000196258
     CP-SCF ITERATION   5:      0.000000009841

                                                 ... done   (      2.8 sec)
Forming perturbed density Hessian contributions  ... done   (      0.0 sec)
Calculating [Q*(d^2 A/dXdY)*Q  ] C-PCM term      ... done   (      0.0 sec)
Calculating [d^2(V_N)/(dXdY)*Q ] C-PCM term      ... done   (      0.0 sec)
Calculating [d^2(V_el)/(dXdY)*Q] C-PCM term      ... done   (      0.1 sec)
Calculating C-PCM term that depends on dQ/dX     ... done   (      0.0 sec)
2nd integral derivative contribs (RI)            ... done   (      0.6 sec)
Exchange-correlation Hessian                     ... done   (      0.3 sec)
Dispersion correction in the Hessian             ... done   (      0.6 sec)
Dipol derivatives                                ... done   (      0.1 sec)

Total SCF Hessian time: 0 days 0 hours 0 min 6 sec 

Writing the Hessian file to the disk             ... done


Maximum memory used throughout the entire calculation: 121.9 MB

-----------------------
VIBRATIONAL FREQUENCIES
-----------------------

Scaling factor for frequencies =  1.000000000  (already applied!)

   0:         0.00 cm**-1
   1:         0.00 cm**-1
   2:         0.00 cm**-1
   3:         0.00 cm**-1
   4:         0.00 cm**-1
   5:         0.00 cm**-1
   6:      -302.53 cm**-1 ***imaginary mode***
   7:        61.24 cm**-1
   8:       152.70 cm**-1
   9:       335.74 cm**-1
  10:       824.70 cm**-1
  11:       877.02 cm**-1
  12:      1200.76 cm**-1
  13:      1358.93 cm**-1
  14:      1423.79 cm**-1
  15:      3233.18 cm**-1
  16:      3415.44 cm**-1
  17:      3457.51 cm**-1


------------
NORMAL MODES
------------

These modes are the Cartesian displacements weighted by the diagonal matrix
M(i,i)=1/sqrt(m[i]) where m[i] is the mass of the displaced atom
Thus, these vectors are normalized but *not* orthogonal

                  0          1          2          3          4          5    
      0       0.000000   0.000000   0.000000   0.000000   0.000000   0.000000
      1       0.000000   0.000000   0.000000   0.000000   0.000000   0.000000
      2       0.000000   0.000000   0.000000   0.000000   0.000000   0.000000
      3       0.000000   0.000000   0.000000   0.000000   0.000000   0.000000
      4       0.000000   0.000000   0.000000   0.000000   0.000000   0.000000
      5       0.000000   0.000000   0.000000   0.000000   0.000000   0.000000
      6       0.000000   0.000000   0.000000   0.000000   0.000000   0.000000
      7       0.000000   0.000000   0.000000   0.000000   0.000000   0.000000
      8       0.000000   0.000000   0.000000   0.000000   0.000000   0.000000
      9       0.000000   0.000000   0.000000   0.000000   0.000000   0.000000
     10       0.000000   0.000000   0.000000   0.000000   0.000000   0.000000
     11       0.000000   0.000000   0.000000   0.000000   0.000000   0.000000
     12       0.000000   0.000000   0.000000   0.000000   0.000000   0.000000
     13       0.000000   0.000000   0.000000   0.000000   0.000000   0.000000
     14       0.000000   0.000000   0.000000   0.000000   0.000000   0.000000
     15       0.000000   0.000000   0.000000   0.000000   0.000000   0.000000
     16       0.000000   0.000000   0.000000   0.000000   0.000000   0.000000
     17       0.000000   0.000000   0.000000   0.000000   0.000000   0.000000
                  6          7          8          9         10         11    
      0       0.001669   0.728851  -0.027283  -0.007963   0.000063   0.001648
      1      -0.026362   0.052618   0.040369  -0.002210  -0.000965   0.000605
      2      -0.006205  -0.030909  -0.162711   0.006604  -0.000276  -0.001687
      3      -0.001548  -0.312320  -0.321517  -0.314438   0.005416  -0.090971
      4       0.042278  -0.022340  -0.074463   0.143679  -0.081244  -0.014279
      5       0.010381   0.012748   0.213220  -0.623955  -0.021269   0.030713
      6      -0.000446  -0.258415   0.157262   0.123179  -0.001111   0.015404
      7      -0.001678  -0.018140   0.010931  -0.053984   0.017986   0.003998
      8      -0.000415   0.008930  -0.005189   0.235625   0.004821  -0.011319
      9      -0.448416  -0.314878  -0.472350  -0.098935  -0.315312   0.387215
     10      -0.332021  -0.020799  -0.065169   0.019493   0.229005  -0.020898
     11       0.159575   0.008029   0.110700  -0.345002  -0.578432   0.337927
     12      -0.031908  -0.297534  -0.254591  -0.229835  -0.008552  -0.268635
     13       0.545668  -0.044501  -0.136557   0.068766   0.170025   0.141677
     14       0.137364   0.101762   0.494291  -0.316663   0.047432  -0.601326
     15       0.482998  -0.314029  -0.458916  -0.106819   0.297217   0.392569
     16      -0.161542  -0.022191  -0.056296   0.140071  -0.045382  -0.102651
     17      -0.289069   0.006776   0.103514  -0.315268   0.620074   0.327332
                 12         13         14         15         16         17    
      0       0.002163  -0.001556   0.000076  -0.000365   0.000253  -0.000004
      1      -0.000062   0.000042  -0.001654  -0.000090   0.000088   0.000052
      2       0.000901  -0.000351  -0.000480   0.000252  -0.000240   0.000022
      3       0.022147  -0.065133   0.003386   0.030229  -0.084882  -0.006204
      4      -0.020598  -0.009643  -0.074219  -0.003104  -0.017971   0.096207
      5       0.083135   0.026299  -0.019248   0.018138   0.047223   0.025360
      6       0.009011  -0.002313   0.000004  -0.000098   0.000263   0.000009
      7      -0.003084  -0.000114  -0.001306   0.000004   0.000042  -0.000201
      8       0.013764   0.000063  -0.000392  -0.000038  -0.000097  -0.000047
      9      -0.228125   0.405281   0.397755   0.189162   0.189314   0.273282
     10       0.249561   0.463307   0.116611  -0.349835  -0.353832  -0.491629
     11      -0.390006  -0.229471   0.020996  -0.300953  -0.302217  -0.429764
     12      -0.176750   0.022824  -0.044726  -0.680405   0.665192   0.002690
     13       0.156562  -0.097826   0.783816  -0.084198   0.081509   0.008369
     14      -0.632315   0.333464   0.213208   0.169789  -0.163906   0.001246
     15      -0.216719   0.458669  -0.394944   0.141356   0.142883  -0.202311
     16      -0.051061  -0.247358   0.061046   0.472596   0.483328  -0.657034
     17      -0.469375  -0.412977   0.017999  -0.088381  -0.088650   0.127596


-----------
IR SPECTRUM
-----------

 Mode    freq (cm**-1)   T**2         TX         TY         TZ
-------------------------------------------------------------------
   7:        61.24   56.328004  ( -7.448992  -0.626506   0.669342)
   8:       152.70   26.760180  ( -3.802982  -1.095085   3.331410)
   9:       335.74   70.492606  ( -3.818869   1.668595  -7.288665)
  10:       824.70    0.203159  ( -0.021095   0.440150   0.094774)
  11:       877.02    4.573771  (  2.133892   0.126594   0.065192)
  12:      1200.76   30.852758  (  3.817824  -0.815045   3.951288)
  13:      1358.93   12.352619  (  2.609214   0.658240  -2.260828)
  14:      1423.79    4.389258  ( -0.053412   2.053343   0.412540)
  15:      3233.18   50.585081  ( -5.994052  -1.303179   3.599743)
  16:      3415.44   57.335332  (  7.331565   0.851647  -1.690615)
  17:      3457.51    0.911597  (  0.092142  -0.898932  -0.308267)

The first frequency considered to be a vibration is 7
The total number of vibrations considered is 11


--------------------------
THERMOCHEMISTRY AT 298.15K
--------------------------

Temperature         ... 298.15 K
Pressure            ... 1.00 atm
Total Mass          ... 69.49 AMU

Throughout the following assumptions are being made:
  (1) The electronic state is orbitally nondegenerate
  (2) There are no thermally accessible electronically excited states
  (3) Hindered rotations indicated by low frequency modes are not
      treated as such but are treated as vibrations and this may
      cause some error
  (4) All equations used are the standard statistical mechanics
      equations for an ideal gas
  (5) All vibrations are strictly harmonic

freq.      61.24  E(vib)   ...       0.51 
freq.     152.70  E(vib)   ...       0.40 
freq.     335.74  E(vib)   ...       0.24 
freq.     824.70  E(vib)   ...       0.04 
freq.     877.02  E(vib)   ...       0.04 
freq.    1200.76  E(vib)   ...       0.01 
freq.    1358.93  E(vib)   ...       0.01 
freq.    1423.79  E(vib)   ...       0.00 
freq.    3233.18  E(vib)   ...       0.00 
freq.    3415.44  E(vib)   ...       0.00 
freq.    3457.51  E(vib)   ...       0.00 

------------
INNER ENERGY
------------

The inner energy is: U= E(el) + E(ZPE) + E(vib) + E(rot) + E(trans)
    E(el)   - is the total energy from the electronic structure calculation
              = E(kin-el) + E(nuc-el) + E(el-el) + E(nuc-nuc)
    E(ZPE)  - the the zero temperature vibrational energy from the frequency calculation
    E(vib)  - the the finite temperature correction to E(ZPE) due to population
              of excited vibrational states
    E(rot)  - is the rotational thermal energy
    E(trans)- is the translational thermal energy

Summary of contributions to the inner energy U:
Electronic energy                ...   -599.47130808 Eh
Zero point energy                ...      0.03722756 Eh      23.36 kcal/mol
Thermal vibrational correction   ...      0.00199029 Eh       1.25 kcal/mol
Thermal rotational correction    ...      0.00141627 Eh       0.89 kcal/mol
Thermal translational correction ...      0.00141627 Eh       0.89 kcal/mol
-----------------------------------------------------------------------
Total thermal energy                   -599.42925768 Eh


Summary of corrections to the electronic energy:
(perhaps to be used in another calculation)
Total thermal correction                  0.00482284 Eh       3.03 kcal/mol
Non-thermal (ZPE) correction              0.03722756 Eh      23.36 kcal/mol
-----------------------------------------------------------------------
Total correction                          0.04205040 Eh      26.39 kcal/mol


--------
ENTHALPY
--------

The enthalpy is H = U + kB*T
                kB is Boltzmann's constant
Total free energy                 ...   -599.42925768 Eh 
Thermal Enthalpy correction       ...      0.00094421 Eh       0.59 kcal/mol
-----------------------------------------------------------------------
Total Enthalpy                    ...   -599.42831347 Eh


Note: Rotational entropy computed according to Herzberg 
Infrared and Raman Spectra, Chapter V,1, Van Nostrand Reinhold, 1945 
Point Group:  C1, Symmetry Number:   1  
Rotational constants in cm-1:     0.445721     0.074630     0.064749 

Vibrational entropy computed according to the QRRHO of S. Grimme
Chem.Eur.J. 2012 18 9955


-------
ENTROPY
-------

The entropy contributions are T*S = T*(S(el)+S(vib)+S(rot)+S(trans))
     S(el)   - electronic entropy
     S(vib)  - vibrational entropy
     S(rot)  - rotational entropy
     S(trans)- translational entropy
The entropies will be listed as mutliplied by the temperature to get
units of energy

Electronic entropy                ...      0.00000000 Eh      0.00 kcal/mol
Vibrational entropy               ...      0.00367627 Eh      2.31 kcal/mol
Rotational entropy                ...      0.01240969 Eh      7.79 kcal/mol
Translational entropy             ...      0.01835566 Eh     11.52 kcal/mol
-----------------------------------------------------------------------
Final entropy term                ...      0.03444161 Eh     21.61 kcal/mol


-------------------
GIBBS FREE ENTHALPY
-------------------

The Gibbs free enthalpy is G = H - T*S

Total enthalpy                    ...   -599.42831347 Eh 
Total entropy correction          ...     -0.03444161 Eh    -21.61 kcal/mol
-----------------------------------------------------------------------
Final Gibbs free enthalpy         ...   -599.46275508 Eh

For completeness - the Gibbs free enthalpy minus the electronic energy
G-E(el)                           ...      0.00855300 Eh      5.37 kcal/mol

Actual Hessian File stored as xtb1d_01_12_orca_opt.001.hess
------------------------------------------------------------------------------
                         ORCA GEOMETRY RELAXATION STEP
------------------------------------------------------------------------------

Reading the OPT-File                    .... done
Getting information on internals        .... done
Copying old internal coords+grads       .... done
Making the new internal coordinates     .... (new redundants).... done
Validating the new internal coordinates .... (new redundants).... done
Calculating the B-matrix                .... done
Calculating the G,G- and P matrices     .... done
Transforming gradient to internals      .... done
Projecting the internal gradient        .... done
Number of atoms                         ....   6
Number of internal coordinates          ....  16
Current Energy                          ....  -599.471308080 Eh
Current gradient norm                   ....     0.079429323 Eh/bohr
Maximum allowed component of the step   ....  0.300
Current trust radius                    ....  0.200
Evaluating the initial hessian          ....  (read) 
(Reading Exact Hessian)...  
InHessName: xtb1d_01_12_orca_opt.hess	The file <xtb1d_01_12_orca_opt.hess> is opened as a .hess file
done
done
Diagonalizing the Hessian               .... done
Dimension of the hessian                .... 16
Lowest eigenvalues of the non projected Hessian:
 -0.000055583 -0.000008782 -0.000003781  0.000006893  0.000017278
done
Projecting the Hessian                  .... done
Diagonalizing the Hessian               .... done
Dimension of the hessian                ....  16
Lowest eigenvalues of the Hessian:
 -0.000050858  0.000623880  0.023992340  0.031617238  0.077889191
WARNING! Eigenvalue   1 too small, replaced by -0.000100000
Hessian has   1 negative eigenvalues
Taking P-RFO step
Searching for lambda that maximizes along the lowest mode
TS mode is mode number   0 with eigenvalue  -0.00010000 and components:
   1.   -0.00646658
   2.    0.00022231
   3.    0.00032933
   4.   -0.00002910
   5.   -0.00544561
   6.   -0.00026136
   7.    0.00026881
   8.    0.00163492
   9.   -0.00200847
  10.   -0.00030207
  11.    0.01359818
  12.   -0.01321779
  13.   -0.00339349
  14.   -0.57835774
  15.   -0.57839255
  16.   -0.57490406

Lambda that maximizes along the TS mode:       0.00002395
Searching for lambda that minimizes along all other modes
In cycle   1: lambdaN =  -0.00171296   step =   0.00171296
In cycle   2: lambdaN =  -0.01177055   step =   0.01005759
In cycle   3: lambdaN =  -0.02815379   step =   0.01638324
In cycle   4: lambdaN =  -0.03204582   step =   0.00389203
In cycle   5: lambdaN =  -0.03213847   step =   0.00009266
In cycle   6: lambdaN =  -0.03213852   step =   0.00000005
In cycle   7: lambdaN =  -0.03213852   step =   0.00000000
Lambda that minimizes along all other modes:  -0.03213852
Calculated stepsize too large (   0.5704 >    0.2000). Scaled with    0.3506.
The final length of the internal step   ....       0.2000
Converting the step to cartesian space:
 Initial RMS(Int)=    0.0500000000
Transforming coordinates:
 Iter   0:  RMS(Cart)=    0.0295287910 RMS(Int)=    0.0518535559
 Iter   1:  RMS(Cart)=    0.0010216851 RMS(Int)=    0.0033408145
 Iter   2:  RMS(Cart)=    0.0000843346 RMS(Int)=    0.0001651016
 Iter   3:  RMS(Cart)=    0.0000052486 RMS(Int)=    0.0000100576
 Iter   4:  RMS(Cart)=    0.0000004496 RMS(Int)=    0.0000018496
 Iter   5:  RMS(Cart)=    0.0000000474 RMS(Int)=    0.0000000900
done
Storing new coordinates                 .... done

                                .--------------------.
          ----------------------|Geometry convergence|-------------------------
          Item                value                   Tolerance       Converged
          ---------------------------------------------------------------------
          RMS gradient        0.0131067813            0.0001000000      NO
          MAX gradient        0.0472773769            0.0003000000      NO
          RMS step            0.0500000000            0.0020000000      NO
          MAX step            0.1051923333            0.0040000000      NO
          ........................................................
          Max(Bonds)      0.0557      Max(Angles)    2.03
          Max(Dihed)        6.03      Max(Improp)    0.00
          ---------------------------------------------------------------------

The optimization has not yet converged - more geometry cycles are needed


    ---------------------------------------------------------------------------
                         Redundant Internal Coordinates
                            (Angstroem and degrees)

        Definition                    Value    dE/dq     Step     New-Value  comp.(TS mode)
    ----------------------------------------------------------------------------
     1. B(C   1,F   0)                3.5572 -0.001629 -0.0151    3.5421   
     2. B(Cl  2,C   1)                2.0334  0.047277 -0.0557    1.9778   
     3. B(H   3,C   1)                1.0758 -0.011887  0.0057    1.0816   
     4. B(H   4,C   1)                1.0790 -0.009633  0.0067    1.0858   
     5. B(H   4,F   0)                2.4944  0.009102 -0.0245    2.4700   
     6. B(H   5,C   1)                1.0759 -0.012654  0.0061    1.0819   
     7. A(Cl  2,C   1,H   4)          102.71 -0.001497    1.25    103.96   
     8. A(Cl  2,C   1,H   3)          102.93 -0.000840    2.03    104.97   
     9. A(Cl  2,C   1,H   5)          102.94 -0.000555    2.01    104.95   
    10. A(H   3,C   1,H   5)          115.81  0.002734   -1.44    114.37   
    11. A(H   4,C   1,H   5)          114.89 -0.000506   -1.28    113.60   
    12. A(H   3,C   1,H   4)          114.88 -0.000161   -1.09    113.79   
    13. A(F   0,H   4,C   1)          168.07 -0.003999    0.96    169.04   
    14. D(F   0,H   4,C   1,H   3)    110.08 -0.001847    6.03    116.11          0.58
    15. D(F   0,H   4,C   1,H   5)   -111.83  0.001822    2.51   -109.32          0.58
    16. D(F   0,H   4,C   1,Cl  2)     -0.87  0.000083    5.07      4.21          0.57
    ----------------------------------------------------------------------------

         *************************************************************
         *                GEOMETRY OPTIMIZATION CYCLE   2            *
         *************************************************************
---------------------------------
CARTESIAN COORDINATES (ANGSTROEM)
---------------------------------
  F     -3.049482   -0.392160    0.865658
  C      0.225369    0.124913   -0.380898
  Cl     1.160000   -0.262986    1.318379
  H      0.609191   -0.610894   -1.074478
  H     -0.823279   -0.010703   -0.134047
  H      0.489312    1.147380   -0.616385

----------------------------
CARTESIAN COORDINATES (A.U.)
----------------------------
  NO LB      ZA    FRAG     MASS         X           Y           Z
   0 F     9.0000    0    18.998   -5.762686   -0.741074    1.635857
   1 C     6.0000    0    12.011    0.425885    0.236052   -0.719793
   2 Cl   17.0000    0    35.453    2.192082   -0.496972    2.491376
   3 H     1.0000    0     1.008    1.151204   -1.154423   -2.030468
   4 H     1.0000    0     1.008   -1.555773   -0.020227   -0.253312
   5 H     1.0000    0     1.008    0.924666    2.168234   -1.164799

--------------------------------
INTERNAL COORDINATES (ANGSTROEM)
--------------------------------
 F      0   0   0     0.000000000000     0.00000000     0.00000000
 C      1   0   0     3.542020955112     0.00000000     0.00000000
 Cl     2   1   0     1.977762682461    96.07985890     0.00000000
 H      2   1   3     1.081566015495   117.03148923   109.65857801
 H      2   1   3     1.085812967788     7.62079514   176.25670312
 H      2   1   3     1.081923790129   116.11131995   250.11591753

---------------------------
INTERNAL COORDINATES (A.U.)
---------------------------
 F      0   0   0     0.000000000000     0.00000000     0.00000000
 C      1   0   0     6.693449565771     0.00000000     0.00000000
 Cl     2   1   0     3.737429827740    96.07985890     0.00000000
 H      2   1   3     2.043863565042   117.03148923   109.65857801
 H      2   1   3     2.051889141780     7.62079514   176.25670312
 H      2   1   3     2.044539661117   116.11131995   250.11591753



           ************************************************************
           *        Program running with 8 parallel MPI-processes     *
           *              working on a common directory               *
           ************************************************************
 One Electron integrals                  ... done
 Pre-screening matrix                    ... done


           ************************************************************
           *        Program running with 8 parallel MPI-processes     *
           *              working on a common directory               *
           ************************************************************

Diagonalization of the overlap matrix:
Smallest eigenvalue                        ... 1.200e-02
Time for diagonalization                   ...    0.002 sec
Threshold for overlap eigenvalues          ... 1.000e-08
Number of eigenvalues below threshold      ... 0
Time for construction of square roots      ...    0.001 sec
Total time needed                          ...    0.003 sec

-------------------
DFT GRID GENERATION
-------------------

General Integration Accuracy     IntAcc      ...  4.340
Radial Grid Type                 RadialGrid  ... Gauss-Chebyshev
Angular Grid (max. acc.)         AngularGrid ... Lebedev-110
Angular grid pruning method      GridPruning ... 3 (G Style)
Weight generation scheme         WeightScheme... Becke
Basis function cutoff            BFCut       ...    1.0000e-11
Integration weight cutoff        WCut        ...    1.0000e-14
Grids for H and He will be reduced by one unit

# of grid points (after initial pruning)     ...   7622 (   0.0 sec)
# of grid points (after weights+screening)   ...   7460 (   0.0 sec)
nearest neighbour list constructed           ...    0.0 sec
Grid point re-assignment to atoms done       ...    0.0 sec
Grid point division into batches done        ...    0.0 sec
Reduced shell lists constructed in    0.0 sec

Total number of grid points                  ...     7460
Total number of batches                      ...      120
Average number of points per batch           ...       62
Average number of grid points per atom       ...     1243
Average number of shells per batch           ...    15.50 (53.45%)
Average number of basis functions per batch  ...    30.75 (50.41%)
Average number of large shells per batch     ...    11.44 (73.79%)
Average number of large basis fcns per batch ...    22.31 (72.56%)
Maximum spatial batch extension              ...  13.94, 22.30, 19.31 au
Average spatial batch extension              ...   1.14,  1.38,  1.23 au

Time for grid setup =    0.019 sec

--------------------
COSX GRID GENERATION
--------------------

General Integration Accuracy     IntAcc      ...  3.340
Radial Grid Type                 RadialGrid  ... Gauss-Chebyshev
Angular Grid (max. acc.)         AngularGrid ... Lebedev-50
Angular grid pruning method      GridPruning ... 3 (G Style)
Weight generation scheme         WeightScheme... Becke
Basis function cutoff            BFCut       ...    1.0000e-11
Integration weight cutoff        WCut        ...    1.0000e-14
Grids for H and He will be reduced by one unit

# of grid points (after initial pruning)     ...   2826 (   0.0 sec)
# of grid points (after weights+screening)   ...   2774 (   0.0 sec)
nearest neighbour list constructed           ...    0.0 sec
Grid point re-assignment to atoms done       ...    0.0 sec
Grid point division into batches done        ...    0.0 sec
Reduced shell lists constructed in    0.0 sec

Total number of grid points                  ...     2774
Total number of batches                      ...       46
Average number of points per batch           ...       60
Average number of grid points per atom       ...      462
Average number of shells per batch           ...    17.29 (59.61%)
Average number of basis functions per batch  ...    35.00 (57.38%)
Average number of large shells per batch     ...    12.29 (71.07%)
Average number of large basis fcns per batch ...    23.71 (67.76%)
Maximum spatial batch extension              ...  12.82, 20.72, 20.72 au
Average spatial batch extension              ...   1.36,  1.69,  1.99 au

Overlap Fitting                  UseSFitting ... on
Constructing numerical overlap ... done (      0.0 sec)
Inverting numerical overlap    ... done (      0.0 sec)
Obtaining analytic overlap     ... done (      0.0 sec)
Final contraction and storage  ... done (      0.0 sec)


General Integration Accuracy     IntAcc      ...  3.670
Radial Grid Type                 RadialGrid  ... Gauss-Chebyshev
Angular Grid (max. acc.)         AngularGrid ... Lebedev-50
Angular grid pruning method      GridPruning ... 3 (G Style)
Weight generation scheme         WeightScheme... Becke
Basis function cutoff            BFCut       ...    1.0000e-11
Integration weight cutoff        WCut        ...    1.0000e-14
Grids for H and He will be reduced by one unit

# of grid points (after initial pruning)     ...   3566 (   0.0 sec)
# of grid points (after weights+screening)   ...   3493 (   0.0 sec)
nearest neighbour list constructed           ...    0.0 sec
Grid point re-assignment to atoms done       ...    0.0 sec
Grid point division into batches done        ...    0.0 sec
Reduced shell lists constructed in    0.0 sec

Total number of grid points                  ...     3493
Total number of batches                      ...       57
Average number of points per batch           ...       61
Average number of grid points per atom       ...      582
Average number of shells per batch           ...    18.00 (62.07%)
Average number of basis functions per batch  ...    37.33 (61.20%)
Average number of large shells per batch     ...    13.33 (74.07%)
Average number of large basis fcns per batch ...    25.56 (68.45%)
Maximum spatial batch extension              ...  13.78, 22.67, 22.67 au
Average spatial batch extension              ...   1.44,  1.74,  2.06 au

Overlap Fitting                  UseSFitting ... on
Constructing numerical overlap ... done (      0.0 sec)
Inverting numerical overlap    ... done (      0.0 sec)
Obtaining analytic overlap     ... done (      0.0 sec)
Final contraction and storage  ... done (      0.0 sec)


General Integration Accuracy     IntAcc      ...  4.010
Radial Grid Type                 RadialGrid  ... Gauss-Chebyshev
Angular Grid (max. acc.)         AngularGrid ... Lebedev-110
Angular grid pruning method      GridPruning ... 3 (G Style)
Weight generation scheme         WeightScheme... Becke
Basis function cutoff            BFCut       ...    1.0000e-11
Integration weight cutoff        WCut        ...    1.0000e-14
Grids for H and He will be reduced by one unit

# of grid points (after initial pruning)     ...   6574 (   0.0 sec)
# of grid points (after weights+screening)   ...   6439 (   0.0 sec)
nearest neighbour list constructed           ...    0.0 sec
Grid point re-assignment to atoms done       ...    0.0 sec
Grid point division into batches done        ...    0.0 sec
Reduced shell lists constructed in    0.0 sec

Total number of grid points                  ...     6439
Total number of batches                      ...      104
Average number of points per batch           ...       61
Average number of grid points per atom       ...     1073
[...]
Integration weight cutoff        WCut        ...    1.0000e-14
Grids for H and He will be reduced by one unit

# of grid points (after initial pruning)     ...   2826 (   0.0 sec)
# of grid points (after weights+screening)   ...   2762 (   0.0 sec)
nearest neighbour list constructed           ...    0.0 sec
Grid point re-assignment to atoms done       ...    0.0 sec
Grid point division into batches done        ...    0.0 sec
Reduced shell lists constructed in    0.0 sec

Total number of grid points                  ...     2762
Total number of batches                      ...       47
Average number of points per batch           ...       58
Average number of grid points per atom       ...      460
Average number of shells per batch           ...    18.43 (63.55%)
Average number of basis functions per batch  ...    38.14 (62.53%)
Average number of large shells per batch     ...    15.29 (82.95%)
Average number of large basis fcns per batch ...    31.00 (81.27%)
Maximum spatial batch extension              ...  12.62, 20.72, 20.72 au
Average spatial batch extension              ...   1.29,  1.65,  1.96 au

Overlap Fitting                  UseSFitting ... on
Constructing numerical overlap ... done (      0.0 sec)
Inverting numerical overlap    ... done (      0.0 sec)
Obtaining analytic overlap     ... done (      0.0 sec)
Final contraction and storage  ... done (      0.0 sec)


General Integration Accuracy     IntAcc      ...  3.670
Radial Grid Type                 RadialGrid  ... Gauss-Chebyshev
Angular Grid (max. acc.)         AngularGrid ... Lebedev-50
Angular grid pruning method      GridPruning ... 3 (G Style)
Weight generation scheme         WeightScheme... Becke
Basis function cutoff            BFCut       ...    1.0000e-11
Integration weight cutoff        WCut        ...    1.0000e-14
Grids for H and He will be reduced by one unit

# of grid points (after initial pruning)     ...   3566 (   0.0 sec)
# of grid points (after weights+screening)   ...   3480 (   0.0 sec)
nearest neighbour list constructed           ...    0.0 sec
Grid point re-assignment to atoms done       ...    0.0 sec
Grid point division into batches done        ...    0.0 sec
Reduced shell lists constructed in    0.0 sec

Total number of grid points                  ...     3480
Total number of batches                      ...       57
Average number of points per batch           ...       61
Average number of grid points per atom       ...      580
Average number of shells per batch           ...    19.00 (65.52%)
Average number of basis functions per batch  ...    39.44 (64.66%)
Average number of large shells per batch     ...    16.11 (84.80%)
Average number of large basis fcns per batch ...    32.78 (83.10%)
Maximum spatial batch extension              ...  13.54, 22.67, 22.67 au
Average spatial batch extension              ...   1.24,  1.59,  1.85 au

Overlap Fitting                  UseSFitting ... on
Constructing numerical overlap ... done (      0.0 sec)
Inverting numerical overlap    ... done (      0.0 sec)
Obtaining analytic overlap     ... done (      0.0 sec)
Final contraction and storage  ... done (      0.0 sec)


General Integration Accuracy     IntAcc      ...  4.010
Radial Grid Type                 RadialGrid  ... Gauss-Chebyshev
Angular Grid (max. acc.)         AngularGrid ... Lebedev-110
Angular grid pruning method      GridPruning ... 3 (G Style)
Weight generation scheme         WeightScheme... Becke
Basis function cutoff            BFCut       ...    1.0000e-11
Integration weight cutoff        WCut        ...    1.0000e-14
Grids for H and He will be reduced by one unit

# of grid points (after initial pruning)     ...   6574 (   0.0 sec)
# of grid points (after weights+screening)   ...   6429 (   0.0 sec)
nearest neighbour list constructed           ...    0.0 sec
Grid point re-assignment to atoms done       ...    0.0 sec
Grid point division into batches done        ...    0.0 sec
Reduced shell lists constructed in    0.0 sec

Total number of grid points                  ...     6429
Total number of batches                      ...      103
Average number of points per batch           ...       62
Average number of grid points per atom       ...     1072
Average number of shells per batch           ...    17.86 (61.58%)
Average number of basis functions per batch  ...    36.57 (59.95%)
Average number of large shells per batch     ...    13.71 (76.80%)
Average number of large basis fcns per batch ...    26.71 (73.05%)
Maximum spatial batch extension              ...  13.69, 24.23, 20.40 au
Average spatial batch extension              ...   0.92,  1.39,  1.29 au

Overlap Fitting                  UseSFitting ... on
Constructing numerical overlap ... done (      0.0 sec)
Inverting numerical overlap    ... done (      0.0 sec)
Obtaining analytic overlap     ... done (      0.0 sec)
Final contraction and storage  ... done (      0.0 sec)

Time for X-Grid setup             =    0.100 sec

--------------------
CPCM SOLVATION MODEL
--------------------
CPCM parameters:
  Epsilon                                         ...      78.3550
  Refrac                                          ...       1.0000
  Rsolv                                           ...       1.3000
  Surface type                                    ...    GEPOL SES
  Epsilon function type                           ...         CPCM
Solvent:                                     ... WATER
SMD-CDS solvent descriptors:
  Soln                                       ...    1.3328
  Soln25                                     ...    1.3323
  Sola                                       ...    0.0000
  Solb                                       ...    0.0000
  Solg                                       ...    0.0000
  Solc                                       ...    0.0000
  Solh                                       ...    0.0000
Radii:
 Radius for F  used is    3.2692 Bohr (=   1.7300 Ang.)
 Radius for C  used is    3.4960 Bohr (=   1.8500 Ang.)
 Radius for Cl used is    4.4975 Bohr (=   2.3800 Ang.)
 Radius for H  used is    2.2677 Bohr (=   1.2000 Ang.)
Calculating surface                               ...        done! (  0.0s)
GEPOL surface points                              ...          229
GEPOL Volume                                      ...     613.9607
GEPOL Surface-area                                ...     401.9738
Calculating surface distance matrix               ...        done! (  0.0s)
Performing Cholesky decomposition & store         ...        done! (  0.0s)
Overall time for CPCM initialization              ...                 0.0s
--------------
SCF ITERATIONS
--------------
ITER       Energy         Delta-E        Max-DP      RMS-DP      [F,P]     Damp
               ***  Starting incremental Fock matrix formation  ***
                      *** Initiating the SOSCF procedure ***
                      *** Re-Reading the Fockian *** 
                      *** Removing any level shift *** 
ITER      Energy       Delta-E        Grad      Rot      Max-DP    RMS-DP
  0   -599.49471474 -599.4947147422  0.000797  0.000797  0.005043  0.000250
               *** Restarting incremental Fock matrix formation ***
  1   -599.49474841  -0.0000336668  0.000362  0.000849  0.003307  0.000153
  2   -599.49475380  -0.0000053892  0.000129  0.000269  0.000847  0.000039
  3   -599.49475406  -0.0000002603  0.000197  0.000092  0.000226  0.000013
  4   -599.49475408  -0.0000000169  0.000010  0.000012  0.000048  0.000002
  5   -599.49475409  -0.0000000124  0.000004  0.000002  0.000008  0.000000
                  ***Gradient check signals convergence***
              ***Rediagonalizing the Fockian in SOSCF/NRSCF***

               *****************************************************
               *                     SUCCESS                       *
               *           SCF CONVERGED AFTER   6 CYCLES          *
               *****************************************************

Setting up the final grid:

General Integration Accuracy     IntAcc      ...  4.670
Radial Grid Type                 RadialGrid  ... Gauss-Chebyshev
Angular Grid (max. acc.)         AngularGrid ... Lebedev-302
Angular grid pruning method      GridPruning ... 3 (G Style)
Weight generation scheme         WeightScheme... Becke
Basis function cutoff            BFCut       ...    1.0000e-11
Integration weight cutoff        WCut        ...    1.0000e-14
Grids for H and He will be reduced by one unit

# of grid points (after initial pruning)     ...  29404 (   0.0 sec)
# of grid points (after weights+screening)   ...  28561 (   0.0 sec)
nearest neighbour list constructed           ...    0.0 sec
Grid point re-assignment to atoms done       ...    0.0 sec
Grid point division into batches done        ...    0.1 sec
Reduced shell lists constructed in    0.1 sec

Total number of grid points                  ...    28561
Total number of batches                      ...      448
Average number of points per batch           ...       63
Average number of grid points per atom       ...     4760
Average number of shells per batch           ...    14.02 (48.34%)
Average number of basis functions per batch  ...    27.88 (45.70%)
Average number of large shells per batch     ...    10.72 (76.47%)
Average number of large basis fcns per batch ...    20.93 (75.08%)
Maximum spatial batch extension              ...  13.30, 16.09, 16.88 au
Average spatial batch extension              ...   0.59,  0.75,  0.78 au

Final grid set up in    0.1 sec
Final integration                            ... done (   0.0 sec)
Change in XC energy                          ...    -0.000377308
Integrated number of electrons               ...    35.999996360
Previous integrated no of electrons          ...    36.004296590
Old exchange energy                            =    -11.036705225 Eh
New exchange energy                            =    -11.036321006 Eh
Exchange energy change after final integration =      0.000384220 Eh
Total energy after final integration           =   -599.494747173 Eh
Final COS-X integration done in                =     0.055 sec

SMD CDS free energy correction energy :                 3.17126     Kcal/mol
Total Energy after SMD CDS correction =              -599.489693454 Eh
Total Energy       :         -599.48969345 Eh          -16312.94389 eV
  Last Energy change         ...    3.4725e-09  Tolerance :   1.0000e-08
  Last MAX-Density change    ...    3.5527e-15  Tolerance :   1.0000e-07
             **** THE GBW FILE WAS UPDATED (xtb1d_01_12_orca_opt.gbw) ****
             **** DENSITY FILE WAS UPDATED (xtb1d_01_12_orca_opt.scfp.tmp) ****
             **** ENERGY FILE WAS UPDATED (xtb1d_01_12_orca_opt.en.tmp) ****
Total SCF time: 0 days 0 hours 0 min 2 sec 


-------------------------------------------------------------------------------
                          DFT DISPERSION CORRECTION                            
                                                                               
                              DFTD3 V3.1  Rev 1                                
                          USING Becke-Johnson damping                          
-------------------------------------------------------------------------------
-------------------------   ----------------
Dispersion correction           -0.002352880
-------------------------   ----------------


-------------------------   --------------------
FINAL SINGLE POINT ENERGY      -599.492046333683
-------------------------   --------------------



           ************************************************************
           *        Program running with 8 parallel MPI-processes     *
           *              working on a common directory               *
           ************************************************************
------------------------------------------------------------------------------
                         ORCA SCF GRADIENT CALCULATION
------------------------------------------------------------------------------

Gradient of the Kohn-Sham DFT energy:
Kohn-Sham wavefunction type      ... RKS
Hartree-Fock exchange scaling    ...    0.250
Number of operators              ...    1
Number of atoms                  ...    6
Basis set dimensions             ...   61
Integral neglect threshold       ... 2.5e-11
Integral primitive cutoff        ... 2.5e-12

Nuclear repulsion gradient       ... done
One Electron Gradient            ... done
Pre-screening matrix             ... done
RI-J gradient                    ... done
COSX-gradient                    ... done
Exchange-correlation gradient    ... done
Dispersion correction            ... done

------------------
CARTESIAN GRADIENT
------------------

   1   F   :   -0.000222310    0.000045439    0.000967520
   2   C   :   -0.000166851    0.000174642    0.000496686
   3   Cl  :   -0.000042001    0.000463702    0.000168926
   4   H   :   -0.000350608    0.000149630    0.000538187
   5   H   :   -0.000243048   -0.000587341    0.001173976
   6   H   :   -0.000458340    0.000113532    0.000626912

Difference to translation invariance:
           :   -0.0014831575    0.0003596036    0.0039722061

Norm of the cartesian gradient     ...    0.0020907274
RMS gradient                       ...    0.0004927892
MAX gradient                       ...    0.0011739759

-------
TIMINGS
-------

Total SCF gradient time            ...        0.562 sec

One electron gradient       ....       0.003 sec  (  0.6%)
Prescreening matrices       ....       0.005 sec  (  0.9%)
RI-J Coulomb gradient       ....       0.097 sec  ( 17.2%)
COSX gradient               ....       0.082 sec  ( 14.6%)
XC gradient                 ....       0.040 sec  (  7.2%)
CPCM gradient               ....       0.058 sec  ( 10.4%)
   A-Matrix (El+Nuc)        ....       0.001 sec  (  0.1%)
   Potential                ....       0.057 sec  ( 10.2%)
------------------------------------------------------------------------------
                         ORCA GEOMETRY RELAXATION STEP
------------------------------------------------------------------------------

Reading the OPT-File                    .... done
Getting information on internals        .... done
Copying old internal coords+grads       .... done
Making the new internal coordinates     .... (new redundants).... done
Validating the new internal coordinates .... (new redundants).... done
Calculating the B-matrix                .... done
Calculating the G,G- and P matrices     .... done
Transforming gradient to internals      .... done
Projecting the internal gradient        .... done
Number of atoms                         ....   6
Number of internal coordinates          ....  14
Current Energy                          ....  -599.492046334 Eh
Current gradient norm                   ....     0.002090727 Eh/bohr
Maximum allowed component of the step   ....  0.300
Current trust radius                    ....  0.100
Updating the Hessian (Bofill)          .... Diagonalizing the Hessian               .... done
Dimension of the hessian                ....  14
Lowest eigenvalues of the Hessian:
 -0.008318716  0.001928500  0.011536487  0.099219846  0.110118300
Hessian has   1 negative eigenvalues
Taking P-RFO step
Searching for lambda that maximizes along the lowest mode
TS mode is mode number   0 with eigenvalue  -0.00831872 and components:
   1.   -0.09972925
   2.   -0.01320670
   3.   -0.00434110
   4.   -0.02026129
   5.    0.19166368
   6.   -0.00217990
   7.    0.01297073
   8.    0.00431364
   9.    0.04173127
  10.    0.00838438
  11.   -0.01585003
  12.   -0.05048692
  13.    0.46131802
  14.    0.85737825

Lambda that maximizes along the TS mode:       0.00000007
Searching for lambda that minimizes along all other modes
In cycle   1: lambdaN =  -0.00000032   step =   0.00000032
In cycle   2: lambdaN =  -0.00000032   step =   0.00000000
Lambda that minimizes along all other modes:  -0.00000032
The final length of the internal step   ....       0.0085
Converting the step to cartesian space:
 Initial RMS(Int)=    0.0022757355
Transforming coordinates:
 Iter   0:  RMS(Cart)=    0.0032283311 RMS(Int)=    0.0022726578
 Iter   1:  RMS(Cart)=    0.0000056406 RMS(Int)=    0.0000227897
 Iter   2:  RMS(Cart)=    0.0000002863 RMS(Int)=    0.0000076461
 Iter   3:  RMS(Cart)=    0.0000001050 RMS(Int)=    0.0000027929
 Iter   4:  RMS(Cart)=    0.0000000384 RMS(Int)=    0.0000010201
done
Storing new coordinates                 .... done
The predicted energy change is          ....    -0.000000124
Previously predicted energy change      ....    -0.000001485
Actually observed energy change         ....     0.000077094
Ratio of predicted to observed change   ....   -51.897671009
New trust radius                        ....     0.100000000

                                .--------------------.
          ----------------------|Geometry convergence|-------------------------
          Item                value                   Tolerance       Converged
          ---------------------------------------------------------------------
          Energy change       0.0000770938            0.0000050000      NO
          RMS gradient        0.0000451019            0.0001000000      YES
          MAX gradient        0.0001215191            0.0003000000      YES
          RMS step            0.0022757355            0.0020000000      NO
          MAX step            0.0057584055            0.0040000000      NO
          ........................................................
          Max(Bonds)      0.0030      Max(Angles)    0.32
          Max(Dihed)        0.00      Max(Improp)    0.00
          ---------------------------------------------------------------------

The optimization has not yet converged - more geometry cycles are needed


    ---------------------------------------------------------------------------
                         Redundant Internal Coordinates
                            (Angstroem and degrees)

        Definition                    Value    dE/dq     Step     New-Value  comp.(TS mode)
    ----------------------------------------------------------------------------
     1. B(C   1,F   0)                2.6795  0.000069 -0.0030    2.6765   
     2. B(Cl  2,C   1)                1.7981 -0.000008  0.0000    1.7982   
     3. B(H   3,C   1)                1.0970  0.000012 -0.0000    1.0970   
     4. B(H   4,C   1)                1.1180  0.000122 -0.0003    1.1177   
     5. B(H   4,F   0)                1.7245 -0.000005 -0.0012    1.7233   
     6. B(H   5,C   1)                1.0985  0.000003 -0.0000    1.0985   
     7. A(Cl  2,C   1,H   3)          107.50 -0.000009    0.01    107.51   
     8. A(Cl  2,C   1,H   5)          107.69 -0.000010    0.01    107.70   
     9. A(Cl  2,C   1,H   4)          114.82 -0.000049    0.05    114.87   
    10. A(H   3,C   1,H   5)          108.99 -0.000006    0.01    109.00   
    11. A(H   4,C   1,H   5)          108.65  0.000035   -0.01    108.64   
    12. A(H   3,C   1,H   4)          109.06  0.000040   -0.07    109.00   
    13. L(F   0,H   4,C   1,Cl  2, 1) 219.42  0.000055    0.32    219.75          0.46
    14. L(F   0,H   4,C   1,Cl  2, 2) 226.20  0.000016   -0.00    226.20          0.86
    ----------------------------------------------------------------------------




    ----------------------------------------------------------------------------
                                   ERROR !!!
       The optimization did not converge but reached the maximum 
       number of optimization cycles.
       As a subsequent Frequencies calculation has been requested
       ORCA will abort at this point of the run.
       Please restart the calculation with the lowest energy geometry and/or
       a larger maxiter for the geometry optimization.
    ----------------------------------------------------------------------------


[file orca_main/run.cpp, line 9757]: ORCA finished with error return - aborting the run
