
                                 *****************
                                 * O   R   C   A *
                                 *****************

           --- An Ab Initio, DFT and Semiempirical electronic structure package ---

                  #######################################################
                  #                        -***-                        #
                  #          Department of theory and spectroscopy      #
                  #               Directorship: Frank Neese             #
                  #        Max Planck Institute fuer Kohlenforschung    #
                  #                Kaiser Wilhelm Platz 1               #
                  #                 D-45470 Muelheim/Ruhr               #
                  #                      Germany                        #
                  #                                                     #
                  #                  All rights reserved                #
                  #                        -***-                        #
                  #######################################################


                         Program Version 4.1.1  - RELEASE  -


 With contributions from (in alphabetic order):
   Daniel Aravena         : Magnetic Properties
   Michael Atanasov       : Ab Initio Ligand Field Theory
   Alexander A. Auer      : GIAO ZORA
   Ute Becker             : Parallelization
   Giovanni Bistoni       : ED, Open-shell LED
   Martin Brehm           : Molecular dynamics
   Dmytro Bykov           : SCF Hessian
   Vijay G. Chilkuri      : MRCI spin determinant printing
   Dipayan Datta          : RHF DLPNO-CCSD density
   Achintya Kumar Dutta   : EOM-CC, STEOM-CC
   Dmitry Ganyushin       : Spin-Orbit,Spin-Spin,Magnetic field MRCI
   Miquel Garcia          : C-PCM Hessian
   Yang Guo               : DLPNO-NEVPT2, CIM, IAO-localization
   Andreas Hansen         : Spin unrestricted coupled pair/coupled cluster methods
   Benjamin Helmich-Paris : CASSCF linear response (MC-RPA)
   Lee Huntington         : MR-EOM, pCC
   Robert Izsak           : Overlap fitted RIJCOSX, COSX-SCS-MP3, EOM
   Christian Kollmar      : KDIIS, OOCD, Brueckner-CCSD(T), CCSD density
   Simone Kossmann        : Meta GGA functionals, TD-DFT gradient, OOMP2, MP2 Hessian
   Martin Krupicka        : AUTO-CI
   Lucas Lang             : DCDCAS
   Dagmar Lenk            : GEPOL surface, SMD
   Dimitrios Liakos       : Extrapolation schemes; parallel MDCI
   Dimitrios Manganas     : ROCIS; embedding schemes
   Dimitrios Pantazis     : SARC Basis sets
   Taras Petrenko         : DFT Hessian,TD-DFT gradient, ASA, ECA, R-Raman, ABS, FL, XAS/XES, NRVS
   Peter Pinski           : DLPNO-MP2, DLPNO-MP2 Gradient
   Christoph Reimann      : Effective Core Potentials
   Marius Retegan         : Local ZFS, SOC
   Christoph Riplinger    : Optimizer, TS searches, QM/MM, DLPNO-CCSD(T), (RO)-DLPNO pert. Triples
   Tobias Risthaus        : Range-separated hybrids, TD-DFT gradient, RPA, STAB
   Michael Roemelt        : Restricted open shell CIS
   Masaaki Saitow         : Open-shell DLPNO
   Barbara Sandhoefer     : DKH picture change effects
   Avijit Sen             : IP-ROCIS
   Kantharuban Sivalingam : CASSCF convergence, NEVPT2, FIC-MRCI
   Bernardo de Souza      : ESD, SOC TD-DFT
   Georgi Stoychev        : AutoAux, RI-MP2 NMR
   Willem Van den Heuvel  : Paramagnetic NMR
   Boris Wezisla          : Elementary symmetry handling
   Frank Wennmohs         : Technical directorship


 We gratefully acknowledge several colleagues who have allowed us to
 interface, adapt or use parts of their codes:
   Stefan Grimme, W. Hujo, H. Kruse,             : VdW corrections, initial TS optimization,
                  C. Bannwarth                     DFT functionals, gCP, sTDA/sTD-DF
   Ed Valeev                                     : LibInt (2-el integral package), F12 methods
   Garnet Chan, S. Sharma, J. Yang, R. Olivares  : DMRG
   Ulf Ekstrom                                   : XCFun DFT Library
   Mihaly Kallay                                 : mrcc  (arbitrary order and MRCC methods)
   Andreas Klamt, Michael Diedenhofen            : otool_cosmo (COSMO solvation model)
   Jiri Pittner, Ondrej Demel                    : Mk-CCSD
   Frank Weinhold                                : gennbo (NPA and NBO analysis)
   Christopher J. Cramer and Donald G. Truhlar   : smd solvation model
   Lars Goerigk                                  : TD-DFT with DH, B97 family of functionals
   V. Asgeirsson, H. Jonsson                     : NEB implementation
   FAccTs GmbH                                   : IRC, NEB, NEB-TS, Multilevel


 Your calculation uses the libint2 library for the computation of 2-el integrals
 For citations please refer to: http://libint.valeyev.net

 This ORCA versions uses:
   CBLAS   interface :  Fast vector & matrix operations
   LAPACKE interface :  Fast linear algebra routines
   SCALAPACK package :  Parallel linear algebra routines


Your calculation utilizes the atom-pairwise dispersion correction
with the Becke-Johnson damping scheme (D3BJ)
Cite in your paper:
S.Grimme, S.Ehrlich, L.Goerigk, J Comput Chem, (2011), 32, 1456–1465 
S.Grimme, J.Antony, S.Ehrlich and H.Krieg, J.Chem.Phys., 132, (2010), 154104 
   

Your calculation utilizes the SMD solvation module
Please cite in your paper:
A.V. Marenich, C.J. Cramer, D.G. Truhlar J. Phys. Chem. B, 113, (2009), 6378 

----- Orbital basis set information -----
Your calculation utilizes the basis: def2-SVP
   F. Weigend and R. Ahlrichs, Phys. Chem. Chem. Phys. 7, 3297 (2005).

----- AuxJ basis set information -----
Your calculation utilizes the auxiliary basis: def2/J
   F. Weigend, Phys. Chem. Chem. Phys. 8, 1057 (2006).

================================================================================
                                        WARNINGS
                       Please study these warnings very carefully!
================================================================================


WARNING: Geometry Optimization
  ===> : Switching off AutoStart
         For restart on a previous wavefunction, please use MOREAD

INFO   : the flag for use of LIBINT has been found!

================================================================================
                                       INPUT FILE
================================================================================
NAME = xtb1d_01_12_reopt_orca_opt.inp
|  1> ! OptTS Freq PBE0 RIJCOSX D3BJ def2-SVP def2/J PAL8
|  2> %cpcm
|  3>  smd true
|  4>  SMDsolvent "water"
|  5>  end
|  6> %geom
|  7> Calc_Hess true
|  8> Recalc_Hess 40
|  9> Trust 0.2
| 10> MaxIter 100
| 11> end
| 12> %geom
| 13> modify_internal
| 14> { B 1 2 A } end
| 15> end
| 16> %geom
| 17> modify_internal
| 18> { B 0 1 A } end
| 19> end
| 20> %geom MaxIter 100 end
| 21> %scf 
| 22> maxiter 250 
| 23> end
| 24> % maxcore 4000
| 25> *xyz -1 1
| 26> F  -2.54112200 -0.21036800  0.17222000 
| 27> C   0.11175700  0.05068700 -0.09993800 
| 28> Cl  1.60681700 -0.14724700  0.87931300 
| 29> H   0.20599700 -0.59689600 -0.98036900 
| 30> H  -0.83706600 -0.19814600  0.43648900 
| 31> H   0.06472800  1.09752000 -0.42948500 
| 32> *
| 33> 
| 34>                          ****END OF INPUT****
================================================================================

                       *****************************
                       * Geometry Optimization Run *
                       *****************************

Geometry optimization settings:
Update method            Update   .... Bofill
Choice of coordinates    CoordSys .... Z-matrix Internals
Initial Hessian          InHess   .... Almoef's Model

Convergence Tolerances:
Energy Change            TolE     ....  5.0000e-06 Eh
Max. Gradient            TolMAXG  ....  3.0000e-04 Eh/bohr
RMS Gradient             TolRMSG  ....  1.0000e-04 Eh/bohr
Max. Displacement        TolMAXD  ....  4.0000e-03 bohr
RMS Displacement         TolRMSD  ....  2.0000e-03 bohr

------------------------------------------------------------------------------
                        ORCA OPTIMIZATION COORDINATE SETUP
------------------------------------------------------------------------------

The optimization will be done in new redundant internal coordinates
Making redundant internal coordinates   ...  (new redundants) Bond   2,  1 is already included
done
Following TS mode number                ...     0
Evaluating the initial hessian          ...  (Is done on the fly) done
Evaluating the coordinates              ...  done
Calculating the B-matrix                .... done
Calculating the G-matrix                .... done
Diagonalizing the G-matrix              .... done
The first mode is                       ....    4
The number of degrees of freedom        ....   12

    -----------------------------------------------------------------
                    Redundant Internal Coordinates


    -----------------------------------------------------------------
         Definition                    Initial Value    d2E/dq (diagonal element)
    -----------------------------------------------------------------
      1. B(C   1,F   0)                  2.6795         0.000000   
      2. B(Cl  2,C   1)                  1.7981         0.000000   
      3. B(H   3,C   1)                  1.0970         0.000000   
      4. B(H   4,C   1)                  1.1180         0.000000   
      5. B(H   4,F   0)                  1.7245         0.000000   
      6. B(H   5,C   1)                  1.0985         0.000000   
      7. A(Cl  2,C   1,H   4)          114.8239         0.000000   
      8. A(Cl  2,C   1,H   3)          107.4979         0.000000   
      9. A(Cl  2,C   1,H   5)          107.6905         0.000000   
     10. A(H   3,C   1,H   5)          108.9939         0.000000   
     11. A(H   4,C   1,H   5)          108.6455         0.000000   
     12. A(H   3,C   1,H   4)          109.0628         0.000000   
     13. A(F   0,H   4,C   1)          140.0564         0.000000   
     14. D(F   0,H   4,C   1,H   3)    -61.1626         0.000000   
     15. D(F   0,H   4,C   1,H   5)     57.5243         0.000000   
     16. D(F   0,H   4,C   1,Cl  2)    178.1506         0.000000   
    -----------------------------------------------------------------

Number of atoms                         .... 6
Number of degrees of freedom            .... 16

         *************************************************************
         *                GEOMETRY OPTIMIZATION CYCLE   1            *
         *************************************************************
---------------------------------
CARTESIAN COORDINATES (ANGSTROEM)
---------------------------------
  F     -2.541122   -0.210368    0.172220
  C      0.111757    0.050687   -0.099938
  Cl     1.606817   -0.147247    0.879313
  H      0.205997   -0.596896   -0.980369
  H     -0.837066   -0.198146    0.436489
  H      0.064728    1.097520   -0.429485

----------------------------
CARTESIAN COORDINATES (A.U.)
----------------------------
  NO LB      ZA    FRAG     MASS         X           Y           Z
   0 F     9.0000    0    18.998   -4.802025   -0.397538    0.325449
   1 C     6.0000    0    12.011    0.211190    0.095785   -0.188855
   2 Cl   17.0000    0    35.453    3.036444   -0.278257    1.661661
   3 H     1.0000    0     1.008    0.389278   -1.127970   -1.852629
   4 H     1.0000    0     1.008   -1.581825   -0.374442    0.824845
   5 H     1.0000    0     1.008    0.122318    2.074012   -0.811609

--------------------------------
INTERNAL COORDINATES (ANGSTROEM)
--------------------------------
 F      0   0   0     0.000000000000     0.00000000     0.00000000
 C      1   0   0     2.679549715648     0.00000000     0.00000000
 Cl     2   1   0     1.798142039150   139.21217157     0.00000000
 H      2   1   3     1.096997568480    96.26096332   126.16978178
 H      2   1   3     1.118005757385    24.40545313     2.56983272
 H      2   1   3     1.098486359469    94.64191249   235.88866103

---------------------------
INTERNAL COORDINATES (A.U.)
---------------------------
 F      0   0   0     0.000000000000     0.00000000     0.00000000
 C      1   0   0     5.063615124802     0.00000000     0.00000000
 Cl     2   1   0     3.397996003883   139.21217157     0.00000000
 H      2   1   3     2.073024974004    96.26096332   126.16978178
 H      2   1   3     2.112724697606    24.40545313     2.56983272
 H      2   1   3     2.075838381244    94.64191249   235.88866103

---------------------
BASIS SET INFORMATION
---------------------
There are 4 groups of distinct atoms

 Group   1 Type F   : 7s4p1d contracted to 3s2p1d pattern {511/31/1}
 Group   2 Type C   : 7s4p1d contracted to 3s2p1d pattern {511/31/1}
 Group   3 Type Cl  : 10s7p1d contracted to 4s3p1d pattern {5311/511/1}
 Group   4 Type H   : 4s1p contracted to 2s1p pattern {31/1}

Atom   0F    basis set group =>   1
Atom   1C    basis set group =>   2
Atom   2Cl   basis set group =>   3
Atom   3H    basis set group =>   4
Atom   4H    basis set group =>   4
Atom   5H    basis set group =>   4
-------------------------------
AUXILIARY BASIS SET INFORMATION
-------------------------------
There are 4 groups of distinct atoms

 Group   1 Type F   : 12s5p4d2f1g contracted to 6s4p3d1f1g pattern {711111/2111/211/2/1}
 Group   2 Type C   : 12s5p4d2f1g contracted to 6s4p3d1f1g pattern {711111/2111/211/2/1}
 Group   3 Type Cl  : 14s5p5d2f1g contracted to 8s4p3d1f1g pattern {71111111/2111/311/2/1}
 Group   4 Type H   : 5s2p1d contracted to 3s1p1d pattern {311/2/1}

Atom   0F    basis set group =>   1
Atom   1C    basis set group =>   2
Atom   2Cl   basis set group =>   3
Atom   3H    basis set group =>   4
Atom   4H    basis set group =>   4
Atom   5H    basis set group =>   4


           ************************************************************
           *        Program running with 8 parallel MPI-processes     *
           *              working on a common directory               *
           ************************************************************
------------------------------------------------------------------------------
                           ORCA GTO INTEGRAL CALCULATION
                           -- RI-GTO INTEGRALS CHOSEN --
------------------------------------------------------------------------------

                         BASIS SET STATISTICS AND STARTUP INFO

Gaussian basis set:
 # of primitive gaussian shells          ...   57
 # of primitive gaussian functions       ...  105
 # of contracted shells                  ...   29
 # of contracted basis functions         ...   61
 Highest angular momentum                ...    2
 Maximum contraction depth               ...    5
Auxiliary gaussian basis set:
 # of primitive gaussian shells          ...   99
 # of primitive gaussian functions       ...  265
 # of contracted shells                  ...   62
 # of contracted aux-basis functions     ...  182
 Highest angular momentum                ...    4
 Maximum contraction depth               ...    7
Ratio of auxiliary to basis functions    ...  2.98
Integral package used                  ... LIBINT
 One Electron integrals                  ... done
 Ordering auxiliary basis shells         ... done
 Integral threshhold             Thresh  ...  2.500e-11
 Primitive cut-off               TCut    ...  2.500e-12
 Pre-screening matrix                    ... done
 Shell pair data                         ... 
 Ordering of the shell pairs             ... done (   0.000 sec) 418 of 435 pairs
 Determination of significant pairs      ... done (   0.000 sec)
 Creation of shell pair data             ... done (   0.000 sec)
 Storage of shell pair data              ... done (   0.000 sec)
 Shell pair data done in (   0.000 sec)
 Computing two index integrals           ... done
 Cholesky decomposition of the V-matrix  ... done


Timings:
 Total evaluation time                   ...   0.160 sec (  0.003 min)
 One electron matrix time                ...   0.014 sec (  0.000 min) =  8.6%
 Schwartz matrix evaluation time         ...   0.128 sec (  0.002 min) = 80.0%
 Two index repulsion integral time       ...   0.001 sec (  0.000 min) =  0.6%
 Cholesky decomposition of V             ...   0.001 sec (  0.000 min) =  0.5%
 Three index repulsion integral time     ...   0.000 sec (  0.000 min) =  0.0%



           ************************************************************
           *        Program running with 8 parallel MPI-processes     *
           *              working on a common directory               *
           ************************************************************
-------------------------------------------------------------------------------
                                 ORCA SCF
-------------------------------------------------------------------------------

------------
SCF SETTINGS
------------
Hamiltonian:
 Density Functional     Method          .... DFT(GTOs)
 Exchange Functional    Exchange        .... PBE
   PBE kappa parameter   XKappa         ....  0.804000
   PBE mue parameter    XMuePBE         ....  0.219520
 Correlation Functional Correlation     .... PBE
   PBE beta parameter  CBetaPBE         ....  0.066725
 LDA part of GGA corr.  LDAOpt          .... PW91-LDA
 Gradients option       PostSCFGGA      .... off
 Hybrid DFT is turned on
   Fraction HF Exchange ScalHFX         ....  0.250000
   Scaling of DF-GGA-X  ScalDFX         ....  0.750000
   Scaling of DF-GGA-C  ScalDFC         ....  1.000000
   Scaling of DF-LDA-C  ScalLDAC        ....  1.000000
   Perturbative correction              ....  0.000000
   Density functional embedding theory  .... OFF
   NL short-range parameter             ....  6.900000
 RI-approximation to the Coulomb term is turned on
   Number of auxiliary basis functions  .... 182
   RIJ-COSX (HFX calculated with COS-X)).... on


General Settings:
 Integral files         IntName         .... xtb1d_01_12_reopt_orca_opt
 Hartree-Fock type      HFTyp           .... RHF
 Total Charge           Charge          ....   -1
 Multiplicity           Mult            ....    1
 Number of Electrons    NEL             ....   36
 Basis Dimension        Dim             ....   61
 Nuclear Repulsion      ENuc            ....     86.5791606458 Eh

Convergence Acceleration:
 DIIS                   CNVDIIS         .... on
   Start iteration      DIISMaxIt       ....    12
   Startup error        DIISStart       ....  0.200000
   # of expansion vecs  DIISMaxEq       ....     5
   Bias factor          DIISBfac        ....   1.050
   Max. coefficient     DIISMaxC        ....  10.000
 Newton-Raphson         CNVNR           .... off
 SOSCF                  CNVSOSCF        .... on
   Start iteration      SOSCFMaxIt      ....   150
   Startup grad/error   SOSCFStart      ....  0.003300
 Level Shifting         CNVShift        .... on
   Level shift para.    LevelShift      ....    0.2500
   Turn off err/grad.   ShiftErr        ....    0.0010
 Zerner damping         CNVZerner       .... off
 Static damping         CNVDamp         .... on
   Fraction old density DampFac         ....    0.7000
   Max. Damping (<1)    DampMax         ....    0.9800
   Min. Damping (>=0)   DampMin         ....    0.0000
   Turn off err/grad.   DampErr         ....    0.1000
 Fernandez-Rico         CNVRico         .... off

SCF Procedure:
 Maximum # iterations   MaxIter         ....   250
 SCF integral mode      SCFMode         .... Direct
   Integral package                     .... LIBINT
 Reset frequency        DirectResetFreq ....    20
 Integral Threshold     Thresh          ....  2.500e-11 Eh
 Primitive CutOff       TCut            ....  2.500e-12 Eh

Convergence Tolerance:
 Convergence Check Mode ConvCheckMode   .... Total+1el-Energy
 Convergence forced     ConvForced      .... 0
 Energy Change          TolE            ....  1.000e-08 Eh
 1-El. energy change                    ....  1.000e-05 Eh
 Orbital Gradient       TolG            ....  1.000e-05
 Orbital Rotation angle TolX            ....  1.000e-05
 DIIS Error             TolErr          ....  5.000e-07


Diagonalization of the overlap matrix:
Smallest eigenvalue                        ... 1.036e-02
Time for diagonalization                   ...    0.002 sec
Threshold for overlap eigenvalues          ... 1.000e-08
Number of eigenvalues below threshold      ... 0
Time for construction of square roots      ...    0.001 sec
Total time needed                          ...    0.003 sec

-------------------
DFT GRID GENERATION
-------------------

General Integration Accuracy     IntAcc      ...  4.340
Radial Grid Type                 RadialGrid  ... Gauss-Chebyshev
Angular Grid (max. acc.)         AngularGrid ... Lebedev-110
Angular grid pruning method      GridPruning ... 3 (G Style)
Weight generation scheme         WeightScheme... Becke
Basis function cutoff            BFCut       ...    1.0000e-11
Integration weight cutoff        WCut        ...    1.0000e-14
Grids for H and He will be reduced by one unit

# of grid points (after initial pruning)     ...   7622 (   0.0 sec)
# of grid points (after weights+screening)   ...   7448 (   0.0 sec)
nearest neighbour list constructed           ...    0.0 sec
Grid point re-assignment to atoms done       ...    0.0 sec
Grid point division into batches done        ...    0.0 sec
Reduced shell lists constructed in    0.0 sec

Total number of grid points                  ...     7448
Total number of batches                      ...      121
Average number of points per batch           ...       61
Average number of grid points per atom       ...     1241
Average number of shells per batch           ...    17.12 (59.03%)
Average number of basis functions per batch  ...    34.18 (56.03%)
Average number of large shells per batch     ...    13.41 (78.35%)
Average number of large basis fcns per batch ...    26.24 (76.76%)
Maximum spatial batch extension              ...  13.20, 22.78, 25.60 au
Average spatial batch extension              ...   0.93,  1.32,  1.37 au

Time for grid setup =    0.022 sec

------------------------------
INITIAL GUESS: MODEL POTENTIAL
------------------------------
Loading Hartree-Fock densities                     ... done
Calculating cut-offs                               ... done
Setting up the integral package                    ... done
Initializing the effective Hamiltonian             ... done
Starting the Coulomb interaction                   ... done (   0.0 sec)
Reading the grid                                   ... done
Mapping shells                                     ... done
Starting the XC term evaluation                    ... done (   0.0 sec)
  promolecular density results
     # of electrons  =     34.991612202
     EX              =    -43.279654352
     EC              =     -1.243137093
     EX+EC           =    -44.522791445
Transforming the Hamiltonian                       ... done (   0.0 sec)
Diagonalizing the Hamiltonian                      ... done (   0.0 sec)
Back transforming the eigenvectors                 ... done (   0.0 sec)
Now organizing SCF variables                       ... done
                      ------------------
                      INITIAL GUESS DONE (   0.1 sec)
                      ------------------
--------------------
COSX GRID GENERATION
--------------------

General Integration Accuracy     IntAcc      ...  3.340
Radial Grid Type                 RadialGrid  ... Gauss-Chebyshev
Angular Grid (max. acc.)         AngularGrid ... Lebedev-50
Angular grid pruning method      GridPruning ... 3 (G Style)
Weight generation scheme         WeightScheme... Becke
Basis function cutoff            BFCut       ...    1.0000e-11
Integration weight cutoff        WCut        ...    1.0000e-14
Grids for H and He will be reduced by one unit

# of grid points (after initial pruning)     ...   2826 (   0.0 sec)
# of grid points (after weights+screening)   ...   2762 (   0.0 sec)
nearest neighbour list constructed           ...    0.0 sec
Grid point re-assignment to atoms done       ...    0.0 sec
Grid point division into batches done        ...    0.0 sec
Reduced shell lists constructed in    0.0 sec

Total number of grid points                  ...     2762
Total number of batches                      ...       47
Average number of points per batch           ...       58
Average number of grid points per atom       ...      460
Average number of shells per batch           ...    18.43 (63.55%)
Average number of basis functions per batch  ...    38.14 (62.53%)
Average number of large shells per batch     ...    15.29 (82.95%)
Average number of large basis fcns per batch ...    31.00 (81.27%)
Maximum spatial batch extension              ...  12.62, 20.72, 20.72 au
Average spatial batch extension              ...   1.29,  1.65,  1.96 au

Overlap Fitting                  UseSFitting ... on
Constructing numerical overlap ... done (      0.0 sec)
Inverting numerical overlap    ... done (      0.0 sec)
Obtaining analytic overlap     ... done (      0.0 sec)
Final contraction and storage  ... done (      0.0 sec)


General Integration Accuracy     IntAcc      ...  3.670
Radial Grid Type                 RadialGrid  ... Gauss-Chebyshev
Angular Grid (max. acc.)         AngularGrid ... Lebedev-50
Angular grid pruning method      GridPruning ... 3 (G Style)
Weight generation scheme         WeightScheme... Becke
Basis function cutoff            BFCut       ...    1.0000e-11
Integration weight cutoff        WCut        ...    1.0000e-14
Grids for H and He will be reduced by one unit

# of grid points (after initial pruning)     ...   3566 (   0.0 sec)
# of grid points (after weights+screening)   ...   3480 (   0.0 sec)
nearest neighbour list constructed           ...    0.0 sec
Grid point re-assignment to atoms done       ...    0.0 sec
Grid point division into batches done        ...    0.0 sec
Reduced shell lists constructed in    0.0 sec

Total number of grid points                  ...     3480
Total number of batches                      ...       57
Average number of points per batch           ...       61
Average number of grid points per atom       ...      580
Average number of shells per batch           ...    19.00 (65.52%)
Average number of basis functions per batch  ...    39.44 (64.66%)
Average number of large shells per batch     ...    16.11 (84.80%)
Average number of large basis fcns per batch ...    32.78 (83.10%)
Maximum spatial batch extension              ...  13.54, 22.67, 22.67 au
Average spatial batch extension              ...   1.24,  1.58,  1.85 au

Overlap Fitting                  UseSFitting ... on
Constructing numerical overlap ... done (      0.0 sec)
Inverting numerical overlap    ... done (      0.0 sec)
Obtaining analytic overlap     ... done (      0.0 sec)
Final contraction and storage  ... done (      0.0 sec)


General Integration Accuracy     IntAcc      ...  4.010
Radial Grid Type                 RadialGrid  ... Gauss-Chebyshev
Angular Grid (max. acc.)         AngularGrid ... Lebedev-110
Angular grid pruning method      GridPruning ... 3 (G Style)
Weight generation scheme         WeightScheme... Becke
Basis function cutoff            BFCut       ...    1.0000e-11
Integration weight cutoff        WCut        ...    1.0000e-14
Grids for H and He will be reduced by one unit

# of grid points (after initial pruning)     ...   6574 (   0.0 sec)
# of grid points (after weights+screening)   ...   6429 (   0.0 sec)
nearest neighbour list constructed           ...    0.0 sec
Grid point re-assignment to atoms done       ...    0.0 sec
Grid point division into batches done        ...    0.0 sec
Reduced shell lists constructed in    0.0 sec

Total number of grid points                  ...     6429
Total number of batches                      ...      103
Average number of points per batch           ...       62
Average number of grid points per atom       ...     1072
Average number of shells per batch           ...    17.86 (61.58%)
Average number of basis functions per batch  ...    36.57 (59.95%)
Average number of large shells per batch     ...    13.71 (76.80%)
Average number of large basis fcns per batch ...    26.71 (73.05%)
Maximum spatial batch extension              ...  13.69, 24.23, 20.40 au
Average spatial batch extension              ...   0.92,  1.39,  1.30 au

Overlap Fitting                  UseSFitting ... on
Constructing numerical overlap ... done (      0.0 sec)
Inverting numerical overlap    ... done (      0.0 sec)
Obtaining analytic overlap     ... done (      0.0 sec)
Final contraction and storage  ... done (      0.0 sec)

Time for X-Grid setup             =    0.095 sec

--------------------
CPCM SOLVATION MODEL
--------------------
CPCM parameters:
  Epsilon                                         ...      78.3550
  Refrac                                          ...       1.0000
  Rsolv                                           ...       1.3000
  Surface type                                    ...    GEPOL SES
  Epsilon function type                           ...         CPCM
Solvent:                                     ... WATER
SMD-CDS solvent descriptors:
  Soln                                       ...    1.3328
  Soln25                                     ...    1.3323
  Sola                                       ...    0.0000
  Solb                                       ...    0.0000
  Solg                                       ...    0.0000
  Solc                                       ...    0.0000
  Solh                                       ...    0.0000
Radii:
 Radius for F  used is    3.2692 Bohr (=   1.7300 Ang.)
 Radius for C  used is    3.4960 Bohr (=   1.8500 Ang.)
 Radius for Cl used is    4.4975 Bohr (=   2.3800 Ang.)
 Radius for H  used is    2.2677 Bohr (=   1.2000 Ang.)
Calculating surface                               ...        done! (  0.0s)
GEPOL surface points                              ...          229
GEPOL Volume                                      ...     613.9607
GEPOL Surface-area                                ...     401.9738
Calculating surface distance matrix               ...        done! (  0.0s)
Performing Cholesky decomposition & store         ...        done! (  0.0s)
Overall time for CPCM initialization              ...                 0.0s
--------------
SCF ITERATIONS
--------------
ITER       Energy         Delta-E        Max-DP      RMS-DP      [F,P]     Damp
               ***  Starting incremental Fock matrix formation  ***
  0   -599.3660754196   0.000000000000 0.08661965  0.00548514  0.3488591 0.7000
  1   -599.4248024321  -0.058727012530 0.06327113  0.00386088  0.1534730 0.7000
                               ***Turning on DIIS***
  2   -599.4484631766  -0.023660744532 0.10132590  0.00626445  0.0460364 0.0000
  3   -599.4876323436  -0.039169166977 0.04656066  0.00251683  0.0798445 0.0000
  4   -599.4945941573  -0.006961813668 0.00914139  0.00050166  0.0070902 0.0000
  5   -599.4947263672  -0.000132209927 0.00467486  0.00022441  0.0047651 0.0000
                      *** Initiating the SOSCF procedure ***
                           *** Shutting down DIIS ***
                      *** Re-Reading the Fockian *** 
                      *** Removing any level shift *** 
ITER      Energy       Delta-E        Grad      Rot      Max-DP    RMS-DP
  6   -599.49475309  -0.0000267186  0.000371  0.000371  0.003161  0.000130
               *** Restarting incremental Fock matrix formation ***
  7   -599.49475405  -0.0000009602  0.000137  0.000179  0.000338  0.000019
  8   -599.49475393   0.0000001165  0.000138  0.000083  0.000189  0.000011
  9   -599.49475409  -0.0000001584  0.000011  0.000011  0.000052  0.000002
 10   -599.49475408   0.0000000105  0.000008  0.000007  0.000023  0.000001
                  ***Gradient check signals convergence***
              ***Rediagonalizing the Fockian in SOSCF/NRSCF***

               *****************************************************
               *                     SUCCESS                       *
               *           SCF CONVERGED AFTER  11 CYCLES          *
               *****************************************************

Setting up the final grid:

General Integration Accuracy     IntAcc      ...  4.670
Radial Grid Type                 RadialGrid  ... Gauss-Chebyshev
Angular Grid (max. acc.)         AngularGrid ... Lebedev-302
Angular grid pruning method      GridPruning ... 3 (G Style)
Weight generation scheme         WeightScheme... Becke
Basis function cutoff            BFCut       ...    1.0000e-11
Integration weight cutoff        WCut        ...    1.0000e-14
Grids for H and He will be reduced by one unit

# of grid points (after initial pruning)     ...  29404 (   0.0 sec)
# of grid points (after weights+screening)   ...  28561 (   0.0 sec)
nearest neighbour list constructed           ...    0.0 sec
Grid point re-assignment to atoms done       ...    0.0 sec
Grid point division into batches done        ...    0.1 sec
Reduced shell lists constructed in    0.1 sec

Total number of grid points                  ...    28561
Total number of batches                      ...      448
Average number of points per batch           ...       63
Average number of grid points per atom       ...     4760
Average number of shells per batch           ...    14.02 (48.34%)
Average number of basis functions per batch  ...    27.88 (45.70%)
Average number of large shells per batch     ...    10.72 (76.47%)
Average number of large basis fcns per batch ...    20.93 (75.08%)
Maximum spatial batch extension              ...  13.30, 16.09, 16.88 au
Average spatial batch extension              ...   0.59,  0.75,  0.78 au

Final grid set up in    0.1 sec
Final integration                            ... done (   0.0 sec)
Change in XC energy                          ...    -0.000377306
Integrated number of electrons               ...    35.999996360
Previous integrated no of electrons          ...    36.004296591
Old exchange energy                            =    -11.036705021 Eh
New exchange energy                            =    -11.036320798 Eh
Exchange energy change after final integration =      0.000384222 Eh
Total energy after final integration           =   -599.494747169 Eh
Final COS-X integration done in                =     0.054 sec

SMD CDS free energy correction energy :                 3.17126     Kcal/mol
Total Energy after SMD CDS correction =              -599.489693450 Eh

----------------
TOTAL SCF ENERGY
----------------

Total Energy       :         -599.48969345 Eh          -16312.94389 eV

Components:
Nuclear Repulsion  :           86.57916065 Eh            2355.93873 eV
Electronic Energy  :         -686.06885410 Eh          -18668.88263 eV
One Electron Energy:        -1009.26949159 Eh          -27463.61909 eV
Two Electron Energy:          323.20063749 Eh            8794.73646 eV
CPCM Dielectric    :           -0.11856801 Eh              -3.22640 eV
SMD CDS (Gcds)     :            0.00505372 Eh               0.13752 eV

Virial components:
Potential Energy   :        -1197.28331836 Eh          -32579.73541 eV
Kinetic Energy     :          597.79362491 Eh           16266.79152 eV
Virial Ratio       :            2.00283721


DFT components:
N(Alpha)           :       17.999998179992 electrons
N(Beta)            :       17.999998179992 electrons
N(Total)           :       35.999996359984 electrons
E(X)               :      -32.948074448683 Eh       
E(C)               :       -1.295929413548 Eh       
E(XC)              :      -34.244003862230 Eh       
DFET-embed. en.    :        0.000000000000 Eh       
CPCM Solvation Model Properties:
Surface-charge          :            0.99232158
Charge-correction       :           -0.00137241 Eh              -0.03735 eV
Free-energy (cav+disp)  :            0.00331848 Eh               0.09030 eV
Corrected G(solv)       :         -599.48774738 Eh          -16312.89094 eV

---------------
SCF CONVERGENCE
---------------

  Last Energy change         ...   -7.9247e-09  Tolerance :   1.0000e-08
  Last MAX-Density change    ...    1.7764e-15  Tolerance :   1.0000e-07
  Last RMS-Density change    ...    8.6370e-17  Tolerance :   5.0000e-09
  Last Orbital Gradient      ...    1.1006e-06  Tolerance :   1.0000e-05
  Last Orbital Rotation      ...    1.6030e-06  Tolerance :   1.0000e-05

             **** THE GBW FILE WAS UPDATED (xtb1d_01_12_reopt_orca_opt.gbw) ****
             **** DENSITY FILE WAS UPDATED (xtb1d_01_12_reopt_orca_opt.scfp.tmp) ****
             **** ENERGY FILE WAS UPDATED (xtb1d_01_12_reopt_orca_opt.en.tmp) ****
----------------
ORBITAL ENERGIES
----------------

  NO   OCC          E(Eh)            E(eV) 
   0   2.0000    -101.643038     -2765.8477 
   1   2.0000     -24.516275      -667.1217 
   2   2.0000     -10.239921      -278.6424 
   3   2.0000      -9.493638      -258.3350 
   4   2.0000      -7.234815      -196.8693 
   5   2.0000      -7.225667      -196.6204 
   6   2.0000      -7.225640      -196.6197 
   7   2.0000      -0.912257       -24.8238 
   8   2.0000      -0.839843       -22.8533 
   9   2.0000      -0.647947       -17.6315 
  10   2.0000      -0.421876       -11.4798 
  11   2.0000      -0.411247       -11.1906 
  12   2.0000      -0.397190       -10.8081 
  13   2.0000      -0.287106        -7.8126 
  14   2.0000      -0.284639        -7.7454 
  15   2.0000      -0.205226        -5.5845 
  16   2.0000      -0.203228        -5.5301 
  17   2.0000      -0.195091        -5.3087 
  18   0.0000       0.082806         2.2533 
  19   0.0000       0.120923         3.2905 
  20   0.0000       0.157900         4.2967 
  21   0.0000       0.222867         6.0645 
  22   0.0000       0.448844        12.2137 
  23   0.0000       0.455885        12.4053 
  24   0.0000       0.476967        12.9789 
  25   0.0000       0.556157        15.1338 
  26   0.0000       0.681592        18.5470 
  27   0.0000       0.694298        18.8928 
  28   0.0000       0.700327        19.0569 
  29   0.0000       0.806370        21.9424 
  30   0.0000       0.811984        22.0952 
  31   0.0000       0.824750        22.4426 
  32   0.0000       0.834087        22.6967 
  33   0.0000       0.834831        22.7169 
  34   0.0000       0.840885        22.8816 
  35   0.0000       0.931810        25.3558 
  36   0.0000       0.948749        25.8168 
  37   0.0000       1.230196        33.4753 
  38   0.0000       1.290526        35.1170 
  39   0.0000       1.301526        35.4163 
  40   0.0000       1.318540        35.8793 
  41   0.0000       1.327944        36.1352 
  42   0.0000       1.384598        37.6768 
  43   0.0000       1.569060        42.6963 
  44   0.0000       1.605777        43.6954 
  45   0.0000       1.764825        48.0233 
  46   0.0000       1.779297        48.4171 
  47   0.0000       1.911982        52.0277 
  48   0.0000       1.971866        53.6572 
  49   0.0000       2.094349        56.9901 
  50   0.0000       2.251593        61.2690 
  51   0.0000       2.435961        66.2859 
  52   0.0000       2.475544        67.3630 
  53   0.0000       2.717089        73.9358 
  54   0.0000       2.905850        79.0722 
  55   0.0000       2.928890        79.6991 
  56   0.0000       3.309969        90.0688 
  57   0.0000       3.310554        90.0848 
  58   0.0000       3.312612        90.1408 
  59   0.0000       3.321918        90.3940 
  60   0.0000       3.432946        93.4152 

                    ********************************
                    * MULLIKEN POPULATION ANALYSIS *
                    ********************************

-----------------------
MULLIKEN ATOMIC CHARGES
-----------------------
   0 F :   -0.821514
   1 C :   -0.128271
   2 Cl:   -0.285815
   3 H :    0.074226
   4 H :    0.089155
   5 H :    0.072220
Sum of atomic charges:   -1.0000000

--------------------------------
MULLIKEN REDUCED ORBITAL CHARGES
--------------------------------
  0 F s       :     3.971454  s :     3.971454
      pz      :     1.964623  p :     5.849906
      px      :     1.892477
      py      :     1.992806
      dz2     :     0.000030  d :     0.000154
      dxz     :     0.000022
      dyz     :     0.000000
      dx2y2   :     0.000096
      dxy     :     0.000006
  1 C s       :     3.133507  s :     3.133507
      pz      :     1.011468  p :     2.963690
      px      :     0.878736
      py      :     1.073486
      dz2     :     0.004208  d :     0.031074
      dxz     :     0.008211
      dyz     :     0.006218
      dx2y2   :     0.009562
      dxy     :     0.002876
  2 Cls       :     5.957823  s :     5.957823
      pz      :     3.787214  p :    11.296094
      px      :     3.536101
      py      :     3.972779
      dz2     :     0.004451  d :     0.031899
      dxz     :     0.012322
      dyz     :     0.002355
      dx2y2   :     0.008336
      dxy     :     0.004436
  3 H s       :     0.901892  s :     0.901892
      pz      :     0.011091  p :     0.023882
      px      :     0.004183
      py      :     0.008608
  4 H s       :     0.877658  s :     0.877658
      pz      :     0.005420  p :     0.033187
      px      :     0.022646
      py      :     0.005121
  5 H s       :     0.903979  s :     0.903979
      pz      :     0.005386  p :     0.023801
      px      :     0.004159
      py      :     0.014256


                     *******************************
                     * LOEWDIN POPULATION ANALYSIS *
                     *******************************

----------------------
LOEWDIN ATOMIC CHARGES
----------------------
   0 F :   -0.827433
   1 C :   -0.152720
   2 Cl:   -0.064108
   3 H :    0.022769
   4 H :   -0.001127
   5 H :    0.022618

-------------------------------
LOEWDIN REDUCED ORBITAL CHARGES
-------------------------------
  0 F s       :     3.962289  s :     3.962289
      pz      :     1.975874  p :     5.864842
      px      :     1.895192
      py      :     1.993776
      dz2     :     0.000061  d :     0.000302
      dxz     :     0.000041
      dyz     :     0.000000
      dx2y2   :     0.000193
      dxy     :     0.000007
  1 C s       :     2.937481  s :     2.937481
      pz      :     1.060662  p :     3.140353
      px      :     0.967272
      py      :     1.112419
      dz2     :     0.009967  d :     0.074886
      dxz     :     0.019232
      dyz     :     0.016063
      dx2y2   :     0.023392
      dxy     :     0.006231
  2 Cls       :     5.790101  s :     5.790101
      pz      :     3.769447  p :    11.239205
      px      :     3.517766
      py      :     3.951992
      dz2     :     0.004940  d :     0.034801
      dxz     :     0.013473
      dyz     :     0.002379
      dx2y2   :     0.009600
      dxy     :     0.004409
  3 H s       :     0.906807  s :     0.906807
      pz      :     0.034499  p :     0.070424
      px      :     0.011962
      py      :     0.023964
  4 H s       :     0.883851  s :     0.883851
      pz      :     0.018495  p :     0.117275
      px      :     0.084232
      py      :     0.014548
  5 H s       :     0.907324  s :     0.907324
      pz      :     0.016763  p :     0.070058
      px      :     0.012233
      py      :     0.041062


                      *****************************
                      * MAYER POPULATION ANALYSIS *
                      *****************************

  NA   - Mulliken gross atomic population
  ZA   - Total nuclear charge
  QA   - Mulliken gross atomic charge
  VA   - Mayer's total valence
  BVA  - Mayer's bonded valence
  FA   - Mayer's free valence

  ATOM       NA         ZA         QA         VA         BVA        FA
  0 F      9.8215     9.0000    -0.8215     0.3214     0.3214     0.0000
  1 C      6.1283     6.0000    -0.1283     3.7366     3.7366     0.0000
  2 Cl    17.2858    17.0000    -0.2858     0.9514     0.9514    -0.0000
  3 H      0.9258     1.0000     0.0742     0.9862     0.9862     0.0000
  4 H      0.9108     1.0000     0.0892     1.1370     1.1370     0.0000
  5 H      0.9278     1.0000     0.0722     0.9869     0.9869     0.0000

  Mayer bond orders larger than 0.1
B(  0-F ,  4-H ) :   0.2742 B(  1-C ,  2-Cl) :   0.9097 B(  1-C ,  3-H ) :   0.9756 
B(  1-C ,  4-H ) :   0.8511 B(  1-C ,  5-H ) :   0.9762 

-------
TIMINGS
-------

Total SCF time: 0 days 0 hours 0 min 4 sec 

Total time                  ....       4.676 sec
Sum of individual times     ....       4.555 sec  ( 97.4%)

Fock matrix formation       ....       4.231 sec  ( 90.5%)
  Split-RI-J                ....       1.212 sec  ( 28.6% of F)
  Chain of spheres X        ....       0.600 sec  ( 14.2% of F)
  XC integration            ....       0.134 sec  (  3.2% of F)
    Basis function eval.    ....       0.019 sec  ( 14.3% of XC)
    Density eval.           ....       0.008 sec  (  5.7% of XC)
    XC-Functional eval.     ....       0.009 sec  (  6.4% of XC)
    XC-Potential eval.      ....       0.009 sec  (  6.5% of XC)
Diagonalization             ....       0.004 sec  (  0.1%)
Density matrix formation    ....       0.001 sec  (  0.0%)
Population analysis         ....       0.002 sec  (  0.0%)
Initial guess               ....       0.093 sec  (  2.0%)
Orbital Transformation      ....       0.000 sec  (  0.0%)
Orbital Orthonormalization  ....       0.000 sec  (  0.0%)
DIIS solution               ....       0.002 sec  (  0.0%)
SOSCF solution              ....       0.001 sec  (  0.0%)
Grid generation             ....       0.222 sec  (  4.7%)


-------------------------------------------------------------------------------
                          DFT DISPERSION CORRECTION                            
                                                                               
                              DFTD3 V3.1  Rev 1                                
                          USING Becke-Johnson damping                          
-------------------------------------------------------------------------------
The PBE0 functional is recognized
Active option DFTDOPT                   ...         4   

molecular C6(AA) [au] = 486.474847 


            DFT-D V3
 parameters
 s6 scaling factor         :     1.0000 
 a1 scaling factor         :     0.4145 
 s8 scaling factor         :     1.2177 
 a2 scaling factor         :     4.8593 
 ad hoc parameters k1-k3   :    16.0000     1.3333    -4.0000 

 Edisp/kcal,au: -1.476454625649  -0.002352879963 
 E6   /kcal   :  -0.931434739 
 E8   /kcal   :  -0.545019887 
 % E8         :  36.914096619 

-------------------------   ----------------
Dispersion correction           -0.002352880
-------------------------   ----------------


-------------------------   --------------------
FINAL SINGLE POINT ENERGY      -599.492046329784
-------------------------   --------------------



           ************************************************************
           *        Program running with 8 parallel MPI-processes     *
           *              working on a common directory               *
           ************************************************************
------------------------------------------------------------------------------
                         ORCA SCF GRADIENT CALCULATION
------------------------------------------------------------------------------

Gradient of the Kohn-Sham DFT energy:
Kohn-Sham wavefunction type      ... RKS
Hartree-Fock exchange scaling    ...    0.250
Number of operators              ...    1
Number of atoms                  ...    6
Basis set dimensions             ...   61
Integral neglect threshold       ... 2.5e-11
Integral primitive cutoff        ... 2.5e-12

Nuclear repulsion gradient       ... done
One Electron Gradient            ... done
Pre-screening matrix             ... done
RI-J gradient                    ... done
COSX-gradient                    ... done
Exchange-correlation gradient    ... done
Dispersion correction            ... done

------------------
CARTESIAN GRADIENT
------------------

   1   F   :   -0.000222395    0.000045565    0.000967648
   2   C   :   -0.000166440    0.000175021    0.000496257
   3   Cl  :   -0.000042948    0.000463361    0.000168044
   4   H   :   -0.000350564    0.000149858    0.000538579
   5   H   :   -0.000242819   -0.000587372    0.001173734
   6   H   :   -0.000458277    0.000112841    0.000627236

Difference to translation invariance:
           :   -0.0014834437    0.0003592738    0.0039714983

Norm of the cartesian gradient     ...    0.0020905707
RMS gradient                       ...    0.0004927522
MAX gradient                       ...    0.0011737338

-------
TIMINGS
-------

Total SCF gradient time            ...        0.587 sec

One electron gradient       ....       0.004 sec  (  0.8%)
Prescreening matrices       ....       0.008 sec  (  1.3%)
RI-J Coulomb gradient       ....       0.101 sec  ( 17.1%)
COSX gradient               ....       0.082 sec  ( 14.0%)
XC gradient                 ....       0.040 sec  (  6.9%)
CPCM gradient               ....       0.068 sec  ( 11.6%)
   A-Matrix (El+Nuc)        ....       0.001 sec  (  0.1%)
   Potential                ....       0.067 sec  ( 11.4%)


           ************************************************************
           *        Program running with 8 parallel MPI-processes     *
           *              working on a common directory               *
           ************************************************************

-------------------------------------------------------------------------------
                               ORCA SCF HESSIAN
-------------------------------------------------------------------------------

Hessian of the Kohn-Sham DFT energy:
Kohn-Sham wavefunction type                      ... RKS
Hartree-Fock exchange scaling                    ...    0.250
Number of operators                              ...    1
Number of atoms                                  ...    6
Basis set dimensions                             ...   61
Integral neglect threshold                       ... 2.5e-11
Integral primitive cutoff                        ... 2.5e-12

Setting up DFT Hessian calculations              ... 
Electron density on the grid                     ... found on disk
Electron density on the final grid               ... found on disk
Building xc-kernel on the grid                   ... done   (      0.0 sec)
Building xc-kernel on the final grid             ... done   (      0.0 sec)
                                                     done   (      0.0 sec)

Nuclear repulsion Hessian                        ... done   (      0.0 sec)
C-PCM contribution to the Fock matrix            ... done   (      0.4 sec)

----------------------------------------------
Forming right-hand sides of CP-SCF equations     ...
----------------------------------------------
One electron integral derivatives                ... done   (      0.1 sec)
Transforming the overlap derivative matrices     ... done   (      0.0 sec)
Adding tr(S(x)F(y) C-PCM term to the hessian     ... done   (      0.2 sec)
Making the Q(x) pseudodensities                  ... done   (      0.0 sec)
Adding the E*S(x)*S(y) terms to the Hessian      ... done   (      0.0 sec)
Calculating energy weighted overlap derivatives  ... done   (      0.0 sec)
Two electron integral derivatives (RI)           ... done   (      0.3 sec)
Exchange-correlation integral derivatives        ... done   (      0.4 sec)
tr(F(y)Q(x)) contribution to the Hessian         ... done   (      0.0 sec)
Response fock operator R(S(x)) (RIJCOSX)         ... done   (      0.4 sec)
XC Response fock operator R(S(x))                ... done   (      0.1 sec)
tr(F(y)S(x)) contribution to the Hessian         ... done   (      0.0 sec)
Transforming and finalizing RHSs                 ... done   (      0.0 sec)

----------------------------------------------
Solving the CP-SCF equations (RIJCOSX)           ...
----------------------------------------------
     CP-SCF ITERATION   0: 
     CP-SCF ITERATION   1:      0.000520729238
     CP-SCF ITERATION   2:      0.000025224590
     CP-SCF ITERATION   3:      0.000002387099
     CP-SCF ITERATION   4:      0.000000201172
     CP-SCF ITERATION   5:      0.000000006082

                                                 ... done   (      2.9 sec)
Forming perturbed density Hessian contributions  ... done   (      0.0 sec)
Calculating [Q*(d^2 A/dXdY)*Q  ] C-PCM term      ... done   (      0.0 sec)
Calculating [d^2(V_N)/(dXdY)*Q ] C-PCM term      ... done   (      0.0 sec)
Calculating [d^2(V_el)/(dXdY)*Q] C-PCM term      ... done   (      0.1 sec)
Calculating C-PCM term that depends on dQ/dX     ... done   (      0.0 sec)
2nd integral derivative contribs (RI)            ... done   (      0.8 sec)
Exchange-correlation Hessian                     ... done   (      0.5 sec)
Dispersion correction in the Hessian             ... done   (      0.5 sec)
Dipol derivatives                                ... done   (      0.1 sec)

Total SCF Hessian time: 0 days 0 hours 0 min 7 sec 

Writing the Hessian file to the disk             ... done


Maximum memory used throughout the entire calculation: 121.9 MB

-----------------------
VIBRATIONAL FREQUENCIES
-----------------------

Scaling factor for frequencies =  1.000000000  (already applied!)

   0:         0.00 cm**-1
   1:         0.00 cm**-1
   2:         0.00 cm**-1
   3:         0.00 cm**-1
   4:         0.00 cm**-1
   5:         0.00 cm**-1
   6:       -54.93 cm**-1 ***imaginary mode***
   7:       204.48 cm**-1
   8:       227.19 cm**-1
   9:       697.53 cm**-1
  10:       958.76 cm**-1
  11:      1028.16 cm**-1
  12:      1335.17 cm**-1
  13:      1419.64 cm**-1
  14:      1445.66 cm**-1
  15:      2871.66 cm**-1
  16:      3128.71 cm**-1
  17:      3193.72 cm**-1


------------
NORMAL MODES
------------

These modes are the Cartesian displacements weighted by the diagonal matrix
M(i,i)=1/sqrt(m[i]) where m[i] is the mass of the displaced atom
Thus, these vectors are normalized but *not* orthogonal

                  0          1          2          3          4          5    
      0       0.000000   0.000000   0.000000   0.000000   0.000000   0.000000
      1       0.000000   0.000000   0.000000   0.000000   0.000000   0.000000
      2       0.000000   0.000000   0.000000   0.000000   0.000000   0.000000
      3       0.000000   0.000000   0.000000   0.000000   0.000000   0.000000
      4       0.000000   0.000000   0.000000   0.000000   0.000000   0.000000
      5       0.000000   0.000000   0.000000   0.000000   0.000000   0.000000
      6       0.000000   0.000000   0.000000   0.000000   0.000000   0.000000
      7       0.000000   0.000000   0.000000   0.000000   0.000000   0.000000
      8       0.000000   0.000000   0.000000   0.000000   0.000000   0.000000
      9       0.000000   0.000000   0.000000   0.000000   0.000000   0.000000
     10       0.000000   0.000000   0.000000   0.000000   0.000000   0.000000
     11       0.000000   0.000000   0.000000   0.000000   0.000000   0.000000
     12       0.000000   0.000000   0.000000   0.000000   0.000000   0.000000
     13       0.000000   0.000000   0.000000   0.000000   0.000000   0.000000
     14       0.000000   0.000000   0.000000   0.000000   0.000000   0.000000
     15       0.000000   0.000000   0.000000   0.000000   0.000000   0.000000
     16       0.000000   0.000000   0.000000   0.000000   0.000000   0.000000
     17       0.000000   0.000000   0.000000   0.000000   0.000000   0.000000
                  6          7          8          9         10         11    
      0       0.082344   0.046934   0.531785   0.013032  -0.001138   0.000188
      1      -0.045031  -0.045952   0.060413   0.000971  -0.000142   0.001876
      2       0.155789  -0.017702   0.012515   0.001119   0.000909   0.000738
      3       0.158458  -0.034022  -0.248122  -0.497385  -0.039808  -0.010467
      4       0.118698   0.121634  -0.117446   0.053408  -0.042140   0.097946
      5      -0.330590   0.055145   0.086517  -0.293626   0.100640   0.035431
      6      -0.117714  -0.010499  -0.176088   0.189520   0.002232   0.001568
      7      -0.028336  -0.024473   0.016671  -0.023606   0.008465  -0.019594
      8       0.062000  -0.013056  -0.045624   0.120521  -0.022464  -0.007286
      9       0.336360  -0.362057  -0.161510  -0.205226   0.453258   0.569367
     10       0.109141  -0.297285   0.101939   0.036588   0.118854  -0.212208
     11      -0.306823   0.329188  -0.068418  -0.248549   0.031303   0.337321
     12      -0.001043  -0.072169  -0.194269  -0.561532  -0.527704   0.002779
     13       0.197406   0.578390  -0.371828   0.051063   0.129327  -0.242727
     14      -0.519323   0.206619   0.086807  -0.292072  -0.475761  -0.095217
     15       0.364782   0.324311  -0.517039  -0.217919   0.491744  -0.506131
     16       0.124423  -0.003636  -0.055631   0.087932  -0.041105  -0.058368
     17      -0.351463  -0.400057   0.319490  -0.220638   0.018215  -0.421943
                 12         13         14         15         16         17    
      0      -0.000899   0.000079  -0.000153  -0.001373   0.000150   0.000010
      1      -0.000661   0.000616  -0.004081   0.000425  -0.000031  -0.000165
      2       0.001755  -0.001022  -0.001651  -0.001368   0.000193  -0.000009
      3       0.090749  -0.031335  -0.000380   0.065539  -0.020554  -0.009645
      4      -0.012686  -0.014399  -0.061025   0.013704  -0.035209   0.087651
      5       0.052154   0.052209  -0.019229  -0.026799   0.068589   0.037533
      6       0.008142  -0.000786  -0.000246  -0.001412   0.000352   0.000054
      7      -0.001576  -0.000957  -0.002736  -0.000143   0.000136  -0.000328
      8       0.006165   0.003293  -0.000786   0.000118  -0.000173  -0.000116
      9      -0.482187   0.050686   0.403160   0.025540   0.057618   0.082846
     10       0.165573   0.532726   0.170975  -0.120458  -0.369303  -0.459947
     11      -0.164447  -0.360057  -0.124679  -0.160331  -0.470775  -0.621280
     12      -0.359925   0.178371  -0.026178  -0.731539   0.196844   0.017769
     13       0.162130  -0.134521   0.745101  -0.244687   0.058118   0.022397
     14      -0.466514   0.265070   0.298688   0.561861  -0.136213  -0.007841
     15      -0.508660   0.170483  -0.360930   0.000620  -0.024745   0.012218
     16      -0.108663  -0.204581  -0.015797   0.198864   0.726506  -0.592228
     17      -0.240419  -0.623677   0.113875  -0.060562  -0.207841   0.186148


-----------
IR SPECTRUM
-----------

 Mode    freq (cm**-1)   T**2         TX         TY         TZ
-------------------------------------------------------------------
   7:       204.48    5.577818  ( -2.314913   0.327395   0.334374)
   8:       227.19   90.893315  ( -9.482932  -0.886564   0.425827)
   9:       697.53  135.405808  (-10.954302   0.481067  -3.895850)
  10:       958.76   47.769932  ( -6.891346  -0.137436  -0.510291)
  11:      1028.16    1.213261  ( -0.102030  -1.040331  -0.347220)
  12:      1335.17   26.571550  ( -2.903302  -1.338963   4.043459)
  13:      1419.64   52.546446  (  6.248696   1.343510  -3.419829)
  14:      1445.66    6.988257  (  0.195752   2.613882   0.342867)
  15:      2871.66  370.523059  (-18.855202  -2.331961   3.092954)
  16:      3128.71   77.894621  (  8.116903  -1.064742   3.298004)
  17:      3193.72   18.669816  (  0.469853   3.958991   1.665965)

The first frequency considered to be a vibration is 7
The total number of vibrations considered is 11


--------------------------
THERMOCHEMISTRY AT 298.15K
--------------------------

Temperature         ... 298.15 K
Pressure            ... 1.00 atm
Total Mass          ... 69.49 AMU

Throughout the following assumptions are being made:
  (1) The electronic state is orbitally nondegenerate
  (2) There are no thermally accessible electronically excited states
  (3) Hindered rotations indicated by low frequency modes are not
      treated as such but are treated as vibrations and this may
      cause some error
  (4) All equations used are the standard statistical mechanics
      equations for an ideal gas
  (5) All vibrations are strictly harmonic

freq.     204.48  E(vib)   ...       0.35 
freq.     227.19  E(vib)   ...       0.33 
freq.     697.53  E(vib)   ...       0.07 
freq.     958.76  E(vib)   ...       0.03 
freq.    1028.16  E(vib)   ...       0.02 
freq.    1335.17  E(vib)   ...       0.01 
freq.    1419.64  E(vib)   ...       0.00 
freq.    1445.66  E(vib)   ...       0.00 
freq.    2871.66  E(vib)   ...       0.00 
freq.    3128.71  E(vib)   ...       0.00 
freq.    3193.72  E(vib)   ...       0.00 

------------
INNER ENERGY
------------

The inner energy is: U= E(el) + E(ZPE) + E(vib) + E(rot) + E(trans)
    E(el)   - is the total energy from the electronic structure calculation
              = E(kin-el) + E(nuc-el) + E(el-el) + E(nuc-nuc)
    E(ZPE)  - the the zero temperature vibrational energy from the frequency calculation
    E(vib)  - the the finite temperature correction to E(ZPE) due to population
              of excited vibrational states
    E(rot)  - is the rotational thermal energy
    E(trans)- is the translational thermal energy

Summary of contributions to the inner energy U:
Electronic energy                ...   -599.49204633 Eh
Zero point energy                ...      0.03761412 Eh      23.60 kcal/mol
Thermal vibrational correction   ...      0.00128573 Eh       0.81 kcal/mol
Thermal rotational correction    ...      0.00141627 Eh       0.89 kcal/mol
Thermal translational correction ...      0.00141627 Eh       0.89 kcal/mol
-----------------------------------------------------------------------
Total thermal energy                   -599.45031394 Eh


Summary of corrections to the electronic energy:
(perhaps to be used in another calculation)
Total thermal correction                  0.00411827 Eh       2.58 kcal/mol
Non-thermal (ZPE) correction              0.03761412 Eh      23.60 kcal/mol
-----------------------------------------------------------------------
Total correction                          0.04173239 Eh      26.19 kcal/mol


--------
ENTHALPY
--------

The enthalpy is H = U + kB*T
                kB is Boltzmann's constant
Total free energy                 ...   -599.45031394 Eh 
Thermal Enthalpy correction       ...      0.00094421 Eh       0.59 kcal/mol
-----------------------------------------------------------------------
Total Enthalpy                    ...   -599.44936973 Eh


Note: Rotational entropy computed according to Herzberg 
Infrared and Raman Spectra, Chapter V,1, Van Nostrand Reinhold, 1945 
Point Group:  C1, Symmetry Number:   1  
Rotational constants in cm-1:     1.658839     0.075937     0.073634 

Vibrational entropy computed according to the QRRHO of S. Grimme
Chem.Eur.J. 2012 18 9955


-------
ENTROPY
-------

The entropy contributions are T*S = T*(S(el)+S(vib)+S(rot)+S(trans))
     S(el)   - electronic entropy
     S(vib)  - vibrational entropy
     S(rot)  - rotational entropy
     S(trans)- translational entropy
The entropies will be listed as mutliplied by the temperature to get
units of energy

Electronic entropy                ...      0.00000000 Eh      0.00 kcal/mol
Vibrational entropy               ...      0.00216642 Eh      1.36 kcal/mol
Rotational entropy                ...      0.01172037 Eh      7.35 kcal/mol
Translational entropy             ...      0.01835566 Eh     11.52 kcal/mol
-----------------------------------------------------------------------
Final entropy term                ...      0.03224244 Eh     20.23 kcal/mol


-------------------
GIBBS FREE ENTHALPY
-------------------

The Gibbs free enthalpy is G = H - T*S

Total enthalpy                    ...   -599.44936973 Eh 
Total entropy correction          ...     -0.03224244 Eh    -20.23 kcal/mol
-----------------------------------------------------------------------
Final Gibbs free enthalpy         ...   -599.48161218 Eh

For completeness - the Gibbs free enthalpy minus the electronic energy
G-E(el)                           ...      0.01043415 Eh      6.55 kcal/mol

Actual Hessian File stored as xtb1d_01_12_reopt_orca_opt.001.hess
------------------------------------------------------------------------------
                         ORCA GEOMETRY RELAXATION STEP
------------------------------------------------------------------------------

Reading the OPT-File                    .... done
Getting information on internals        .... done
Copying old internal coords+grads       .... done
Making the new internal coordinates     .... (new redundants).... done
Validating the new internal coordinates .... (new redundants).... done
Calculating the B-matrix                .... done
Calculating the G,G- and P matrices     .... done
Transforming gradient to internals      .... done
Projecting the internal gradient        .... done
Number of atoms                         ....   6
Number of internal coordinates          ....  16
Current Energy                          ....  -599.492046330 Eh
Current gradient norm                   ....     0.002090571 Eh/bohr
Maximum allowed component of the step   ....  0.300
Current trust radius                    ....  0.200
Evaluating the initial hessian          ....  (read) 
(Reading Exact Hessian)...  
InHessName: xtb1d_01_12_reopt_orca_opt.hess	The file <xtb1d_01_12_reopt_orca_opt.hess> is opened as a .hess file
done
done
Diagonalizing the Hessian               .... done
Dimension of the hessian                .... 16
Lowest eigenvalues of the non projected Hessian:
 -0.002957222 -0.000038472 -0.000000705  0.000010472  0.000026620
done
Projecting the Hessian                  .... done
Diagonalizing the Hessian               .... done
Dimension of the hessian                ....  16
Lowest eigenvalues of the Hessian:
 -0.002871456  0.001393212  0.011390661  0.065701241  0.078965525
Hessian has   1 negative eigenvalues
Taking P-RFO step
Searching for lambda that maximizes along the lowest mode
TS mode is mode number   0 with eigenvalue  -0.00287146 and components:
   1.    0.35092652
   2.   -0.00009630
   3.    0.00408228
   4.    0.06152627
   5.   -0.43412988
   6.    0.00613393
   7.   -0.08828680
   8.   -0.00902738
   9.   -0.01171275
  10.   -0.00614638
  11.    0.05855442
  12.    0.05742217
  13.    0.81694721
  14.   -0.01528353
  15.    0.04413874
  16.    0.01343609

Lambda that maximizes along the TS mode:       0.00016643
Searching for lambda that minimizes along all other modes
In cycle   1: lambdaN =  -0.00004783   step =   0.00004783
In cycle   2: lambdaN =  -0.00004788   step =   0.00000005
In cycle   3: lambdaN =  -0.00004788   step =   0.00000000
Lambda that minimizes along all other modes:  -0.00004788
Calculated stepsize too large (   0.2929 >    0.2000). Scaled with    0.6829.
The final length of the internal step   ....       0.2000
Converting the step to cartesian space:
 Initial RMS(Int)=    0.0500000000
Transforming coordinates:
 Iter   0:  RMS(Cart)=    0.0742500501 RMS(Int)=    1.5565938426
 Iter   1:  RMS(Cart)=    0.0041944203 RMS(Int)=    0.0055522931
 Iter   2:  RMS(Cart)=    0.0005462187 RMS(Int)=    0.0005746546
 Iter   3:  RMS(Cart)=    0.0000624806 RMS(Int)=    0.0000737169
 Iter   4:  RMS(Cart)=    0.0000083208 RMS(Int)=    0.0000100944
 Iter   5:  RMS(Cart)=    0.0000012445 RMS(Int)=    0.0000014885
 Iter   6:  RMS(Cart)=    0.0000001810 RMS(Int)=    0.0000002141
 Iter   7:  RMS(Cart)=    0.0000000256 RMS(Int)=    0.0000000304
done
Storing new coordinates                 .... done

                                .--------------------.
          ----------------------|Geometry convergence|-------------------------
          Item                value                   Tolerance       Converged
          ---------------------------------------------------------------------
          RMS gradient        0.0002513509            0.0001000000      NO
          MAX gradient        0.0007134440            0.0003000000      NO
          RMS step            0.0500000000            0.0020000000      NO
          MAX step            0.1327589756            0.0040000000      NO
          ........................................................
          Max(Bonds)      0.0369      Max(Angles)    7.61
          Max(Dihed)        4.03      Max(Improp)    0.00
          ---------------------------------------------------------------------

The optimization has not yet converged - more geometry cycles are needed


    ---------------------------------------------------------------------------
                         Redundant Internal Coordinates
                            (Angstroem and degrees)

        Definition                    Value    dE/dq     Step     New-Value  comp.(TS mode)
    ----------------------------------------------------------------------------
     1. B(C   1,F   0)                2.6795 -0.000107 -0.0312    2.6484          0.35
     2. B(Cl  2,C   1)                1.7981 -0.000078  0.0002    1.7983   
     3. B(H   3,C   1)                1.0970  0.000012 -0.0004    1.0965   
     4. B(H   4,C   1)                1.1180  0.000393 -0.0060    1.1120   
     5. B(H   4,F   0)                1.7245  0.000164  0.0369    1.7614          0.43
     6. B(H   5,C   1)                1.0985  0.000003 -0.0005    1.0980   
     7. A(Cl  2,C   1,H   4)          114.82  0.000361    0.74    115.57   
     8. A(Cl  2,C   1,H   3)          107.50 -0.000007    0.09    107.59   
     9. A(Cl  2,C   1,H   5)          107.69 -0.000234    0.16    107.85   
    10. A(H   3,C   1,H   5)          108.99 -0.000045    0.08    109.07   
    11. A(H   4,C   1,H   5)          108.65 -0.000112   -0.19    108.46   
    12. A(H   3,C   1,H   4)          109.06  0.000022   -0.88    108.19   
    13. A(F   0,H   4,C   1)          140.06 -0.000713   -7.61    132.45          0.82
    14. D(F   0,H   4,C   1,H   3)    -61.16 -0.000034    3.99    -57.17   
    15. D(F   0,H   4,C   1,H   5)     57.52 -0.000141    3.47     61.00   
    16. D(F   0,H   4,C   1,Cl  2)    178.15 -0.000285    4.03    182.18   
    ----------------------------------------------------------------------------

         *************************************************************
         *                GEOMETRY OPTIMIZATION CYCLE   2            *
         *************************************************************
---------------------------------
CARTESIAN COORDINATES (ANGSTROEM)
---------------------------------
  F     -2.523336   -0.208342    0.071249
  C      0.106890    0.051064   -0.070074
  Cl     1.654492   -0.142150    0.825265
  H      0.146331   -0.607580   -0.945889
  H     -0.814858   -0.191188    0.505738
  H      0.041592    1.093745   -0.408060

----------------------------
CARTESIAN COORDINATES (A.U.)
----------------------------
  NO LB      ZA    FRAG     MASS         X           Y           Z
   0 F     9.0000    0    18.998   -4.768414   -0.393709    0.134641
   1 C     6.0000    0    12.011    0.201992    0.096498   -0.132420
   2 Cl   17.0000    0    35.453    3.126536   -0.268624    1.559525
   3 H     1.0000    0     1.008    0.276525   -1.148159   -1.787472
   4 H     1.0000    0     1.008   -1.539858   -0.361293    0.955707
   5 H     1.0000    0     1.008    0.078598    2.066879   -0.771121

--------------------------------
INTERNAL COORDINATES (ANGSTROEM)
--------------------------------
 F      0   0   0     0.000000000000     0.00000000     0.00000000
 C      1   0   0     2.646762345516     0.00000000     0.00000000
 Cl     2   1   0     1.798342381625   144.89315936     0.00000000
 H      2   1   3     1.096549529490    91.11851994   123.59215219
 H      2   1   4     1.113491873514    29.35938799   232.98473976
 H      2   1   5     1.098035226344    92.88936315   236.17029557

---------------------------
INTERNAL COORDINATES (A.U.)
---------------------------
 F      0   0   0     0.000000000000     0.00000000     0.00000000
 C      1   0   0     5.001655974601     0.00000000     0.00000000
 Cl     2   1   0     3.398374596295   144.89315936     0.00000000
 H      2   1   3     2.072178303016    91.11851994   123.59215219
 H      2   1   4     2.104194693289    29.35938799   232.98473976
 H      2   1   5     2.074985863187    92.88936315   236.17029557



           ************************************************************
           *        Program running with 8 parallel MPI-processes     *
           *              working on a common directory               *
           ************************************************************
 One Electron integrals                  ... done
 Pre-screening matrix                    ... done


           ************************************************************
           *        Program running with 8 parallel MPI-processes     *
           *              working on a common directory               *
           ************************************************************

Diagonalization of the overlap matrix:
Smallest eigenvalue                        ... 1.071e-02
Time for diagonalization                   ...    0.002 sec
Threshold for overlap eigenvalues          ... 1.000e-08
Number of eigenvalues below threshold      ... 0
Time for construction of square roots      ...    0.001 sec
Total time needed                          ...    0.004 sec

-------------------
DFT GRID GENERATION
-------------------

General Integration Accuracy     IntAcc      ...  4.340
Radial Grid Type                 RadialGrid  ... Gauss-Chebyshev
Angular Grid (max. acc.)         AngularGrid ... Lebedev-110
Angular grid pruning method      GridPruning ... 3 (G Style)
Weight generation scheme         WeightScheme... Becke
Basis function cutoff            BFCut       ...    1.0000e-11
Integration weight cutoff        WCut        ...    1.0000e-14
Grids for H and He will be reduced by one unit

# of grid points (after initial pruning)     ...   7622 (   0.0 sec)
# of grid points (after weights+screening)   ...   7450 (   0.0 sec)
nearest neighbour list constructed           ...    0.0 sec
Grid point re-assignment to atoms done       ...    0.0 sec
Grid point division into batches done        ...    0.0 sec
Reduced shell lists constructed in    0.0 sec

Total number of grid points                  ...     7450
Total number of batches                      ...      121
Average number of points per batch           ...       61
Average number of grid points per atom       ...     1242
Average number of shells per batch           ...    17.18 (59.23%)
Average number of basis functions per batch  ...    34.59 (56.70%)
Average number of large shells per batch     ...    13.76 (80.14%)
Average number of large basis fcns per batch ...    27.53 (79.59%)
Maximum spatial batch extension              ...  13.20, 22.78, 25.60 au
Average spatial batch extension              ...   0.91,  1.32,  1.32 au

Time for grid setup =    0.018 sec

--------------------
COSX GRID GENERATION
--------------------

General Integration Accuracy     IntAcc      ...  3.340
Radial Grid Type                 RadialGrid  ... Gauss-Chebyshev
Angular Grid (max. acc.)         AngularGrid ... Lebedev-50
Angular grid pruning method      GridPruning ... 3 (G Style)
Weight generation scheme         WeightScheme... Becke
Basis function cutoff            BFCut       ...    1.0000e-11
Integration weight cutoff        WCut        ...    1.0000e-14
Grids for H and He will be reduced by one unit

# of grid points (after initial pruning)     ...   2826 (   0.0 sec)
# of grid points (after weights+screening)   ...   2763 (   0.0 sec)
nearest neighbour list constructed           ...    0.0 sec
Grid point re-assignment to atoms done       ...    0.0 sec
Grid point division into batches done        ...    0.0 sec
Reduced shell lists constructed in    0.0 sec

Total number of grid points                  ...     2763
Total number of batches                      ...       47
Average number of points per batch           ...       58
Average number of grid points per atom       ...      460
Average number of shells per batch           ...    18.57 (64.04%)
Average number of basis functions per batch  ...    38.00 (62.30%)
Average number of large shells per batch     ...    15.43 (83.08%)
Average number of large basis fcns per batch ...    31.43 (82.71%)
Maximum spatial batch extension              ...  12.62, 20.72, 22.31 au
Average spatial batch extension              ...   1.27,  1.62,  1.92 au

Overlap Fitting                  UseSFitting ... on
Constructing numerical overlap ... done (      0.0 sec)
Inverting numerical overlap    ... done (      0.0 sec)
Obtaining analytic overlap     ... done (      0.0 sec)
Final contraction and storage  ... done (      0.0 sec)


General Integration Accuracy     IntAcc      ...  3.670
Radial Grid Type                 RadialGrid  ... Gauss-Chebyshev
Angular Grid (max. acc.)         AngularGrid ... Lebedev-50
Angular grid pruning method      GridPruning ... 3 (G Style)
Weight generation scheme         WeightScheme... Becke
Basis function cutoff            BFCut       ...    1.0000e-11
Integration weight cutoff        WCut        ...    1.0000e-14
Grids for H and He will be reduced by one unit

# of grid points (after initial pruning)     ...   3566 (   0.0 sec)
# of grid points (after weights+screening)   ...   3480 (   0.0 sec)
nearest neighbour list constructed           ...    0.0 sec
Grid point re-assignment to atoms done       ...    0.0 sec
Grid point division into batches done        ...    0.0 sec
Reduced shell lists constructed in    0.0 sec

Total number of grid points                  ...     3480
Total number of batches                      ...       58
Average number of points per batch           ...       60
Average number of grid points per atom       ...      580
Average number of shells per batch           ...    19.11 (65.90%)
Average number of basis functions per batch  ...    39.78 (65.21%)
Average number of large shells per batch     ...    16.33 (85.47%)
Average number of large basis fcns per batch ...    33.22 (83.52%)
Maximum spatial batch extension              ...  13.54, 22.67, 22.67 au
Average spatial batch extension              ...   1.19,  1.56,  1.80 au

Overlap Fitting                  UseSFitting ... on
Constructing numerical overlap ... done (      0.0 sec)
Inverting numerical overlap    ... done (      0.0 sec)
Obtaining analytic overlap     ... done (      0.0 sec)
Final contraction and storage  ... done (      0.0 sec)


General Integration Accuracy     IntAcc      ...  4.010
Radial Grid Type                 RadialGrid  ... Gauss-Chebyshev
Angular Grid (max. acc.)         AngularGrid ... Lebedev-110
Angular grid pruning method      GridPruning ... 3 (G Style)
Weight generation scheme         WeightScheme... Becke
Basis function cutoff            BFCut       ...    1.0000e-11
Integration weight cutoff        WCut        ...    1.0000e-14
Grids for H and He will be reduced by one unit

# of grid points (after initial pruning)     ...   6574 (   0.0 sec)
# of grid points (after weights+screening)   ...   6430 (   0.0 sec)
nearest neighbour list constructed           ...    0.0 sec
Grid point re-assignment to atoms done       ...    0.0 sec
Grid point division into batches done        ...    0.0 sec
Reduced shell lists constructed in    0.0 sec

Total number of grid points                  ...     6430
Total number of batches                      ...      103
Average number of points per batch           ...       62
Average number of grid points per atom       ...     1072
Average number of shells per batch           ...    17.79 (61.33%)
Average number of basis functions per batch  ...    36.93 (60.54%)
Average number of large shells per batch     ...    13.93 (78.31%)
Average number of large basis fcns per batch ...    27.36 (74.08%)
Maximum spatial batch extension              ...  13.60, 24.23, 20.40 au
[...]

Fock matrix formation       ....       2.122 sec  ( 83.8%)
  Split-RI-J                ....       0.582 sec  ( 27.4% of F)
  Chain of spheres X        ....       0.331 sec  ( 15.6% of F)
  COS-X 1 center corr.      ....       0.000 sec  (  0.0% of F)
  XC integration            ....       0.061 sec  (  2.9% of F)
    Basis function eval.    ....       0.010 sec  ( 17.0% of XC)
    Density eval.           ....       0.004 sec  (  6.7% of XC)
    XC-Functional eval.     ....       0.005 sec  (  7.4% of XC)
    XC-Potential eval.      ....       0.005 sec  (  7.5% of XC)
Diagonalization             ....       0.000 sec  (  0.0%)
Density matrix formation    ....       0.001 sec  (  0.0%)
Population analysis         ....       0.002 sec  (  0.1%)
Initial guess               ....       0.003 sec  (  0.1%)
Orbital Transformation      ....       0.000 sec  (  0.0%)
Orbital Orthonormalization  ....       0.001 sec  (  0.0%)
DIIS solution               ....       0.000 sec  (  0.0%)
SOSCF solution              ....       0.001 sec  (  0.0%)
Grid generation             ....       0.272 sec  ( 10.8%)


-------------------------------------------------------------------------------
                          DFT DISPERSION CORRECTION                            
                                                                               
                              DFTD3 V3.1  Rev 1                                
                          USING Becke-Johnson damping                          
-------------------------------------------------------------------------------
The PBE0 functional is recognized
Active option DFTDOPT                   ...         4   

molecular C6(AA) [au] = 486.466674 


            DFT-D V3
 parameters
 s6 scaling factor         :     1.0000 
 a1 scaling factor         :     0.4145 
 s8 scaling factor         :     1.2177 
 a2 scaling factor         :     4.8593 
 ad hoc parameters k1-k3   :    16.0000     1.3333    -4.0000 

 Edisp/kcal,au: -1.478719159711  -0.002356488727 
 E6   /kcal   :  -0.932965950 
 E8   /kcal   :  -0.545753210 
 % E8         :  36.907157523 

-------------------------   ----------------
Dispersion correction           -0.002356489
-------------------------   ----------------


-------------------------   --------------------
FINAL SINGLE POINT ENERGY      -599.491823935911
-------------------------   --------------------

                                *** OPTIMIZATION RUN DONE ***

                            ***************************************
                            *     ORCA property calculations      *
                            ***************************************

                                    ---------------------
                                    Active property flags
                                    ---------------------
   (+) Dipole Moment


------------------------------------------------------------------------------
                       ORCA ELECTRIC PROPERTIES CALCULATION
------------------------------------------------------------------------------

Dipole Moment Calculation                       ... on
Quadrupole Moment Calculation                   ... off
Polarizability Calculation                      ... off
GBWName                                         ... xtb1d_01_12_reopt_orca_opt.gbw
Electron density file                           ... xtb1d_01_12_reopt_orca_opt.scfp.tmp
The origin for moment calculation is the CENTER OF MASS  = ( 0.275282, -0.249684  0.845468)

-------------
DIPOLE MOMENT
-------------
                                X             Y             Z
Electronic contribution:      3.93277      -0.55896       2.43484
Nuclear contribution   :     -0.46574       0.82409      -2.39679
                        -----------------------------------------
Total Dipole Moment    :      3.46703       0.26513       0.03805
                        -----------------------------------------
Magnitude (a.u.)       :      3.47736
Magnitude (Debye)      :      8.83875



--------------------
Rotational spectrum 
--------------------
 
Rotational constants in cm-1:     1.744486     0.075849     0.073713 
Rotational constants in MHz : 52298.388946  2273.900352  2209.850256 

 Dipole components along the rotational axes: 
x,y,z [a.u.] :     3.421361    -0.621505    -0.007614 
x,y,z [Debye]:     8.696409    -1.579741    -0.019354 

 


           ************************************************************
           *        Program running with 8 parallel MPI-processes     *
           *              working on a common directory               *
           ************************************************************

-------------------------------------------------------------------------------
                               ORCA SCF HESSIAN
-------------------------------------------------------------------------------

Hessian of the Kohn-Sham DFT energy:
Kohn-Sham wavefunction type                      ... RKS
Hartree-Fock exchange scaling                    ...    0.250
Number of operators                              ...    1
Number of atoms                                  ...    6
Basis set dimensions                             ...   61
Integral neglect threshold                       ... 2.5e-11
Integral primitive cutoff                        ... 2.5e-12

Setting up DFT Hessian calculations              ... 
Electron density on the grid                     ... found on disk
Electron density on the final grid               ... found on disk
Building xc-kernel on the grid                   ... done   (      0.0 sec)
Building xc-kernel on the final grid             ... done   (      0.0 sec)
                                                     done   (      0.0 sec)

Nuclear repulsion Hessian                        ... done   (      0.0 sec)
C-PCM contribution to the Fock matrix            ... done   (      0.4 sec)

----------------------------------------------
Forming right-hand sides of CP-SCF equations     ...
----------------------------------------------
One electron integral derivatives                ... done   (      0.1 sec)
Transforming the overlap derivative matrices     ... done   (      0.0 sec)
Adding tr(S(x)F(y) C-PCM term to the hessian     ... done   (      0.2 sec)
Making the Q(x) pseudodensities                  ... done   (      0.0 sec)
Adding the E*S(x)*S(y) terms to the Hessian      ... done   (      0.0 sec)
Calculating energy weighted overlap derivatives  ... done   (      0.0 sec)
Two electron integral derivatives (RI)           ... done   (      0.3 sec)
Exchange-correlation integral derivatives        ... done   (      0.4 sec)
tr(F(y)Q(x)) contribution to the Hessian         ... done   (      0.0 sec)
Response fock operator R(S(x)) (RIJCOSX)         ... done   (      0.4 sec)
XC Response fock operator R(S(x))                ... done   (      0.1 sec)
tr(F(y)S(x)) contribution to the Hessian         ... done   (      0.0 sec)
Transforming and finalizing RHSs                 ... done   (      0.0 sec)

----------------------------------------------
Solving the CP-SCF equations (RIJCOSX)           ...
----------------------------------------------
     CP-SCF ITERATION   0: 
     CP-SCF ITERATION   1:      0.000527067215
     CP-SCF ITERATION   2:      0.000025312617
     CP-SCF ITERATION   3:      0.000002359095
     CP-SCF ITERATION   4:      0.000000200521
     CP-SCF ITERATION   5:      0.000000006033

                                                 ... done   (      2.8 sec)
Forming perturbed density Hessian contributions  ... done   (      0.0 sec)
Calculating [Q*(d^2 A/dXdY)*Q  ] C-PCM term      ... done   (      0.0 sec)
Calculating [d^2(V_N)/(dXdY)*Q ] C-PCM term      ... done   (      0.0 sec)
Calculating [d^2(V_el)/(dXdY)*Q] C-PCM term      ... done   (      0.1 sec)
Calculating C-PCM term that depends on dQ/dX     ... done   (      0.0 sec)
2nd integral derivative contribs (RI)            ... done   (      0.6 sec)
Exchange-correlation Hessian                     ... done   (      0.3 sec)
Dispersion correction in the Hessian             ... done   (      0.6 sec)
Dipol derivatives                                ... done   (      0.1 sec)

Total SCF Hessian time: 0 days 0 hours 0 min 6 sec 

Writing the Hessian file to the disk             ... done


Maximum memory used throughout the entire calculation: 121.9 MB

-----------------------
VIBRATIONAL FREQUENCIES
-----------------------

Scaling factor for frequencies =  1.000000000  (already applied!)

   0:         0.00 cm**-1
   1:         0.00 cm**-1
   2:         0.00 cm**-1
   3:         0.00 cm**-1
   4:         0.00 cm**-1
   5:         0.00 cm**-1
   6:       -79.79 cm**-1 ***imaginary mode***
   7:       214.16 cm**-1
   8:       223.92 cm**-1
   9:       696.84 cm**-1
  10:       952.67 cm**-1
  11:      1027.31 cm**-1
  12:      1329.94 cm**-1
  13:      1418.01 cm**-1
  14:      1448.35 cm**-1
  15:      2883.85 cm**-1
  16:      3130.88 cm**-1
  17:      3197.05 cm**-1


------------
NORMAL MODES
------------

These modes are the Cartesian displacements weighted by the diagonal matrix
M(i,i)=1/sqrt(m[i]) where m[i] is the mass of the displaced atom
Thus, these vectors are normalized but *not* orthogonal

                  0          1          2          3          4          5    
      0       0.000000   0.000000   0.000000   0.000000   0.000000   0.000000
      1       0.000000   0.000000   0.000000   0.000000   0.000000   0.000000
      2       0.000000   0.000000   0.000000   0.000000   0.000000   0.000000
      3       0.000000   0.000000   0.000000   0.000000   0.000000   0.000000
      4       0.000000   0.000000   0.000000   0.000000   0.000000   0.000000
      5       0.000000   0.000000   0.000000   0.000000   0.000000   0.000000
      6       0.000000   0.000000   0.000000   0.000000   0.000000   0.000000
      7       0.000000   0.000000   0.000000   0.000000   0.000000   0.000000
      8       0.000000   0.000000   0.000000   0.000000   0.000000   0.000000
      9       0.000000   0.000000   0.000000   0.000000   0.000000   0.000000
     10       0.000000   0.000000   0.000000   0.000000   0.000000   0.000000
     11       0.000000   0.000000   0.000000   0.000000   0.000000   0.000000
     12       0.000000   0.000000   0.000000   0.000000   0.000000   0.000000
     13       0.000000   0.000000   0.000000   0.000000   0.000000   0.000000
     14       0.000000   0.000000   0.000000   0.000000   0.000000   0.000000
     15       0.000000   0.000000   0.000000   0.000000   0.000000   0.000000
     16       0.000000   0.000000   0.000000   0.000000   0.000000   0.000000
     17       0.000000   0.000000   0.000000   0.000000   0.000000   0.000000
                  6          7          8          9         10         11    
      0       0.042433   0.160340   0.272939   0.013407  -0.000912  -0.000332
      1      -0.052345  -0.038765   0.063027   0.000201  -0.000495   0.001995
      2       0.148600  -0.010671   0.033913   0.002143   0.000817   0.000676
      3       0.168005  -0.077813  -0.105832  -0.501912  -0.038844  -0.003248
      4       0.135803   0.115046  -0.140054   0.066105  -0.032006   0.099592
      5      -0.322624   0.066232  -0.016470  -0.286172   0.104818   0.029858
      6      -0.100255  -0.052050  -0.100147   0.190980   0.002185   0.000611
      7      -0.031909  -0.025219   0.023501  -0.027472   0.006859  -0.019991
      8       0.062546  -0.022166  -0.012179   0.117238  -0.022835  -0.006037
      9       0.333791  -0.417098   0.176852  -0.208078   0.472284   0.545380
     10       0.138058  -0.285188   0.236510   0.029671   0.089495  -0.223912
     11      -0.315554   0.346176  -0.284091  -0.237561   0.043747   0.322129
     12       0.013074  -0.092182  -0.084200  -0.562544  -0.535875   0.025617
     13       0.209135   0.550330  -0.566082   0.053631   0.114271  -0.246924
     14      -0.512841   0.227842  -0.130709  -0.283673  -0.480936  -0.067348
     15       0.377630   0.245170  -0.453383  -0.218512   0.466777  -0.547536
     16       0.143451  -0.018403  -0.016038   0.091442  -0.054321  -0.050371
     17      -0.327863  -0.382492   0.400259  -0.232679  -0.024047  -0.410973
                 12         13         14         15         16         17    
      0      -0.000702   0.000002   0.000484  -0.001566   0.000214   0.000037
      1      -0.000513   0.000187  -0.004365   0.000159   0.000018  -0.000159
      2       0.001744  -0.001078  -0.001434  -0.001314   0.000181  -0.000028
      3       0.091658  -0.028714   0.004971   0.065529  -0.020281  -0.006908
      4      -0.008904  -0.019036  -0.061126   0.011285  -0.035950   0.087593
      5       0.049957   0.052389  -0.017791  -0.027921   0.068894   0.038051
      6       0.008322  -0.000591   0.000548  -0.001418   0.000361   0.000042
      7      -0.001436  -0.001136  -0.002693  -0.000164   0.000145  -0.000328
      8       0.006243   0.003307  -0.000849   0.000218  -0.000201  -0.000122
      9      -0.523327   0.079564   0.364330   0.021496   0.036427   0.058643
     10       0.152844   0.544028   0.127919  -0.121931  -0.365717  -0.476428
     11      -0.139334  -0.381077  -0.113069  -0.160967  -0.454157  -0.628012
     12      -0.361036   0.170345  -0.055603  -0.725032   0.202876   0.017615
     13       0.108802  -0.065133   0.773939  -0.218972   0.054202   0.021953
     14      -0.481973   0.276798   0.221716   0.576100  -0.145361  -0.007222
     15      -0.487260   0.112990  -0.396346   0.002102  -0.014357   0.003861
     16      -0.095390  -0.215626   0.003468   0.209204   0.734418  -0.574723
     17      -0.226405  -0.615954   0.160231  -0.065355  -0.217746   0.186664


-----------
IR SPECTRUM
-----------

 Mode    freq (cm**-1)   T**2         TX         TY         TZ
-------------------------------------------------------------------
   7:       214.16   30.930158  ( -5.549075   0.001125   0.371382)
   8:       223.92   65.798470  ( -8.046234  -1.006639  -0.208021)
   9:       696.84  140.325976  (-11.159877   0.472195  -3.944636)
  10:       952.67   50.279399  ( -7.018889  -0.550992  -0.843214)
  11:      1027.31    1.248762  (  0.112047  -1.051143  -0.362361)
  12:      1329.94   26.994688  ( -2.996939  -1.713058   3.883101)
  13:      1418.01   52.191135  (  6.255066   1.469326  -3.302479)
  14:      1448.35    6.881848  (  0.236091   2.436021   0.944411)
  15:      2883.85  338.389621  (-18.034490  -2.444248   2.678140)
  16:      3130.88   78.328850  (  8.141363  -1.149854   3.274889)
  17:      3197.05   18.650497  (  0.683062   3.933613   1.646395)

The first frequency considered to be a vibration is 7
The total number of vibrations considered is 11


--------------------------
THERMOCHEMISTRY AT 298.15K
--------------------------

Temperature         ... 298.15 K
Pressure            ... 1.00 atm
Total Mass          ... 69.49 AMU

Throughout the following assumptions are being made:
  (1) The electronic state is orbitally nondegenerate
  (2) There are no thermally accessible electronically excited states
  (3) Hindered rotations indicated by low frequency modes are not
      treated as such but are treated as vibrations and this may
      cause some error
  (4) All equations used are the standard statistical mechanics
      equations for an ideal gas
  (5) All vibrations are strictly harmonic

freq.     214.16  E(vib)   ...       0.34 
freq.     223.92  E(vib)   ...       0.33 
freq.     696.84  E(vib)   ...       0.07 
freq.     952.67  E(vib)   ...       0.03 
freq.    1027.31  E(vib)   ...       0.02 
freq.    1329.94  E(vib)   ...       0.01 
freq.    1418.01  E(vib)   ...       0.00 
freq.    1448.35  E(vib)   ...       0.00 
freq.    2883.85  E(vib)   ...       0.00 
freq.    3130.88  E(vib)   ...       0.00 
freq.    3197.05  E(vib)   ...       0.00 

------------
INNER ENERGY
------------

The inner energy is: U= E(el) + E(ZPE) + E(vib) + E(rot) + E(trans)
    E(el)   - is the total energy from the electronic structure calculation
              = E(kin-el) + E(nuc-el) + E(el-el) + E(nuc-nuc)
    E(ZPE)  - the the zero temperature vibrational energy from the frequency calculation
    E(vib)  - the the finite temperature correction to E(ZPE) due to population
              of excited vibrational states
    E(rot)  - is the rotational thermal energy
    E(trans)- is the translational thermal energy

Summary of contributions to the inner energy U:
Electronic energy                ...   -599.49182394 Eh
Zero point energy                ...      0.03764209 Eh      23.62 kcal/mol
Thermal vibrational correction   ...      0.00127732 Eh       0.80 kcal/mol
Thermal rotational correction    ...      0.00141627 Eh       0.89 kcal/mol
Thermal translational correction ...      0.00141627 Eh       0.89 kcal/mol
-----------------------------------------------------------------------
Total thermal energy                   -599.45007198 Eh


Summary of corrections to the electronic energy:
(perhaps to be used in another calculation)
Total thermal correction                  0.00410986 Eh       2.58 kcal/mol
Non-thermal (ZPE) correction              0.03764209 Eh      23.62 kcal/mol
-----------------------------------------------------------------------
Total correction                          0.04175195 Eh      26.20 kcal/mol


--------
ENTHALPY
--------

The enthalpy is H = U + kB*T
                kB is Boltzmann's constant
Total free energy                 ...   -599.45007198 Eh 
Thermal Enthalpy correction       ...      0.00094421 Eh       0.59 kcal/mol
-----------------------------------------------------------------------
Total Enthalpy                    ...   -599.44912777 Eh


Note: Rotational entropy computed according to Herzberg 
Infrared and Raman Spectra, Chapter V,1, Van Nostrand Reinhold, 1945 
Point Group:  C1, Symmetry Number:   1  
Rotational constants in cm-1:     1.744486     0.075849     0.073713 

Vibrational entropy computed according to the QRRHO of S. Grimme
Chem.Eur.J. 2012 18 9955


-------
ENTROPY
-------

The entropy contributions are T*S = T*(S(el)+S(vib)+S(rot)+S(trans))
     S(el)   - electronic entropy
     S(vib)  - vibrational entropy
     S(rot)  - rotational entropy
     S(trans)- translational entropy
The entropies will be listed as mutliplied by the temperature to get
units of energy

Electronic entropy                ...      0.00000000 Eh      0.00 kcal/mol
Vibrational entropy               ...      0.00214133 Eh      1.34 kcal/mol
Rotational entropy                ...      0.01169665 Eh      7.34 kcal/mol
Translational entropy             ...      0.01835566 Eh     11.52 kcal/mol
-----------------------------------------------------------------------
Final entropy term                ...      0.03219364 Eh     20.20 kcal/mol


-------------------
GIBBS FREE ENTHALPY
-------------------

The Gibbs free enthalpy is G = H - T*S

Total enthalpy                    ...   -599.44912777 Eh 
Total entropy correction          ...     -0.03219364 Eh    -20.20 kcal/mol
-----------------------------------------------------------------------
Final Gibbs free enthalpy         ...   -599.48132141 Eh

For completeness - the Gibbs free enthalpy minus the electronic energy
G-E(el)                           ...      0.01050253 Eh      6.59 kcal/mol


Timings for individual modules:

Sum of individual times         ...       52.112 sec (=   0.869 min)
GTO integral calculation        ...        5.120 sec (=   0.085 min)   9.8 %
SCF iterations                  ...       24.649 sec (=   0.411 min)  47.3 %
SCF Gradient evaluation         ...        6.594 sec (=   0.110 min)  12.7 %
Geometry relaxation             ...        0.274 sec (=   0.005 min)   0.5 %
Analytical frequency calculation...       15.474 sec (=   0.258 min)  29.7 %
                             ****ORCA TERMINATED NORMALLY****
TOTAL RUN TIME: 0 days 0 hours 0 minutes 54 seconds 321 msec
