
                                 *****************
                                 * O   R   C   A *
                                 *****************

           --- An Ab Initio, DFT and Semiempirical electronic structure package ---

                  #######################################################
                  #                        -***-                        #
                  #          Department of theory and spectroscopy      #
                  #               Directorship: Frank Neese             #
                  #        Max Planck Institute fuer Kohlenforschung    #
                  #                Kaiser Wilhelm Platz 1               #
                  #                 D-45470 Muelheim/Ruhr               #
                  #                      Germany                        #
                  #                                                     #
                  #                  All rights reserved                #
                  #                        -***-                        #
                  #######################################################


                         Program Version 4.1.1  - RELEASE  -


 With contributions from (in alphabetic order):
   Daniel Aravena         : Magnetic Properties
   Michael Atanasov       : Ab Initio Ligand Field Theory
   Alexander A. Auer      : GIAO ZORA
   Ute Becker             : Parallelization
   Giovanni Bistoni       : ED, Open-shell LED
   Martin Brehm           : Molecular dynamics
   Dmytro Bykov           : SCF Hessian
   Vijay G. Chilkuri      : MRCI spin determinant printing
   Dipayan Datta          : RHF DLPNO-CCSD density
   Achintya Kumar Dutta   : EOM-CC, STEOM-CC
   Dmitry Ganyushin       : Spin-Orbit,Spin-Spin,Magnetic field MRCI
   Miquel Garcia          : C-PCM Hessian
   Yang Guo               : DLPNO-NEVPT2, CIM, IAO-localization
   Andreas Hansen         : Spin unrestricted coupled pair/coupled cluster methods
   Benjamin Helmich-Paris : CASSCF linear response (MC-RPA)
   Lee Huntington         : MR-EOM, pCC
   Robert Izsak           : Overlap fitted RIJCOSX, COSX-SCS-MP3, EOM
   Christian Kollmar      : KDIIS, OOCD, Brueckner-CCSD(T), CCSD density
   Simone Kossmann        : Meta GGA functionals, TD-DFT gradient, OOMP2, MP2 Hessian
   Martin Krupicka        : AUTO-CI
   Lucas Lang             : DCDCAS
   Dagmar Lenk            : GEPOL surface, SMD
   Dimitrios Liakos       : Extrapolation schemes; parallel MDCI
   Dimitrios Manganas     : ROCIS; embedding schemes
   Dimitrios Pantazis     : SARC Basis sets
   Taras Petrenko         : DFT Hessian,TD-DFT gradient, ASA, ECA, R-Raman, ABS, FL, XAS/XES, NRVS
   Peter Pinski           : DLPNO-MP2, DLPNO-MP2 Gradient
   Christoph Reimann      : Effective Core Potentials
   Marius Retegan         : Local ZFS, SOC
   Christoph Riplinger    : Optimizer, TS searches, QM/MM, DLPNO-CCSD(T), (RO)-DLPNO pert. Triples
   Tobias Risthaus        : Range-separated hybrids, TD-DFT gradient, RPA, STAB
   Michael Roemelt        : Restricted open shell CIS
   Masaaki Saitow         : Open-shell DLPNO
   Barbara Sandhoefer     : DKH picture change effects
   Avijit Sen             : IP-ROCIS
   Kantharuban Sivalingam : CASSCF convergence, NEVPT2, FIC-MRCI
   Bernardo de Souza      : ESD, SOC TD-DFT
   Georgi Stoychev        : AutoAux, RI-MP2 NMR
   Willem Van den Heuvel  : Paramagnetic NMR
   Boris Wezisla          : Elementary symmetry handling
   Frank Wennmohs         : Technical directorship


 We gratefully acknowledge several colleagues who have allowed us to
 interface, adapt or use parts of their codes:
   Stefan Grimme, W. Hujo, H. Kruse,             : VdW corrections, initial TS optimization,
                  C. Bannwarth                     DFT functionals, gCP, sTDA/sTD-DF
   Ed Valeev                                     : LibInt (2-el integral package), F12 methods
   Garnet Chan, S. Sharma, J. Yang, R. Olivares  : DMRG
   Ulf Ekstrom                                   : XCFun DFT Library
   Mihaly Kallay                                 : mrcc  (arbitrary order and MRCC methods)
   Andreas Klamt, Michael Diedenhofen            : otool_cosmo (COSMO solvation model)
   Jiri Pittner, Ondrej Demel                    : Mk-CCSD
   Frank Weinhold                                : gennbo (NPA and NBO analysis)
   Christopher J. Cramer and Donald G. Truhlar   : smd solvation model
   Lars Goerigk                                  : TD-DFT with DH, B97 family of functionals
   V. Asgeirsson, H. Jonsson                     : NEB implementation
   FAccTs GmbH                                   : IRC, NEB, NEB-TS, Multilevel


 Your calculation uses the libint2 library for the computation of 2-el integrals
 For citations please refer to: http://libint.valeyev.net

 This ORCA versions uses:
   CBLAS   interface :  Fast vector & matrix operations
   LAPACKE interface :  Fast linear algebra routines
   SCALAPACK package :  Parallel linear algebra routines


Your calculation utilizes the atom-pairwise dispersion correction
with the Becke-Johnson damping scheme (D3BJ)
Cite in your paper:
S.Grimme, S.Ehrlich, L.Goerigk, J Comput Chem, (2011), 32, 1456–1465 
S.Grimme, J.Antony, S.Ehrlich and H.Krieg, J.Chem.Phys., 132, (2010), 154104 
   

----- Orbital basis set information -----
Your calculation utilizes the basis: def2-SVP
   F. Weigend and R. Ahlrichs, Phys. Chem. Chem. Phys. 7, 3297 (2005).

----- AuxJ basis set information -----
Your calculation utilizes the auxiliary basis: def2/J
   F. Weigend, Phys. Chem. Chem. Phys. 8, 1057 (2006).

================================================================================
                                        WARNINGS
                       Please study these warnings very carefully!
================================================================================


WARNING: Geometry Optimization
  ===> : Switching off AutoStart
         For restart on a previous wavefunction, please use MOREAD

INFO   : the flag for use of LIBINT has been found!

================================================================================
                                       INPUT FILE
================================================================================
NAME = get_orca_ts_guess_2dTS_orca_opt.inp
|  1> ! OptTS Freq PBE0 RIJCOSX D3BJ def2-SVP def2/J PAL8
|  2> %geom
|  3> Calc_Hess true
|  4> Recalc_Hess 40
|  5> Trust 0.2
|  6> MaxIter 100
|  7> end
|  8> %geom
|  9> modify_internal
| 10> { B 2 7 A } end
| 11> end
| 12> %geom
| 13> modify_internal
| 14> { B 3 4 A } end
| 15> end
| 16> %scf 
| 17> maxiter 250 
| 18> end
| 19> % maxcore 4000
| 20> *xyz 0 1
| 21> O	-2.416339	-1.943058	-0.342883
| 22> C	-1.864006	-0.865061	-0.109433
| 23> C	-0.911071	-0.677079	1.009358
| 24> C	-0.425163	0.57098	1.343133
| 25> C	1.818209	0.506282	0.273884
| 26> C	1.358738	0.543062	-1.032248
| 27> C	0.84974	-0.751112	-1.385196
| 28> C	0.988664	-1.60186	-0.300598
| 29> C	1.8753	-0.930723	0.712154
| 30> C	-2.139429	0.339203	-0.943478
| 31> C	-1.662316	1.565809	-0.614731
| 32> C	-0.831294	1.78802	0.602275
| 33> O	-0.520973	2.925073	0.965887
| 34> H	-0.790076	-1.548149	1.670758
| 35> H	0.110902	0.752649	2.286041
| 36> H	2.282609	1.342044	0.813242
| 37> H	1.313766	1.437632	-1.668015
| 38> H	0.354846	-1.000661	-2.333493
| 39> H	0.706257	-2.663261	-0.278606
| 40> H	2.916664	-1.293537	0.522409
| 41> H	1.665151	-1.135372	1.778261
| 42> H	-2.786653	0.171564	-1.819822
| 43> H	-1.893622	2.467555	-1.203999
| 44> *
| 45> 
| 46>                          ****END OF INPUT****
================================================================================

                       *****************************
                       * Geometry Optimization Run *
                       *****************************

Geometry optimization settings:
Update method            Update   .... Bofill
Choice of coordinates    CoordSys .... Z-matrix Internals
Initial Hessian          InHess   .... Almoef's Model

Convergence Tolerances:
Energy Change            TolE     ....  5.0000e-06 Eh
Max. Gradient            TolMAXG  ....  3.0000e-04 Eh/bohr
RMS Gradient             TolRMSG  ....  1.0000e-04 Eh/bohr
Max. Displacement        TolMAXD  ....  4.0000e-03 bohr
RMS Displacement         TolRMSD  ....  2.0000e-03 bohr

------------------------------------------------------------------------------
                        ORCA OPTIMIZATION COORDINATE SETUP
------------------------------------------------------------------------------

The optimization will be done in new redundant internal coordinates
Making redundant internal coordinates   ...  (new redundants) Bond   7,  2 is already included
Bond   4,  3 is already included
done
Following TS mode number                ...     0
Evaluating the initial hessian          ...  (Is done on the fly) done
Evaluating the coordinates              ...  done
Calculating the B-matrix                .... done
Calculating the G-matrix                .... done
Diagonalizing the G-matrix              .... done
The first mode is                       ....  684
The number of degrees of freedom        ....   63

    -----------------------------------------------------------------
                    Redundant Internal Coordinates


    -----------------------------------------------------------------
         Definition                    Initial Value    d2E/dq (diagonal element)
    -----------------------------------------------------------------
      1. B(C   1,O   0)                  1.2336         0.000000   
      2. B(C   2,C   1)                  1.4816         0.000000   
      3. B(C   3,C   2)                  1.3803         0.000000   
      4. B(C   4,C   3)                  2.4860         0.000000   
      5. B(C   4,C   2)                  3.0643         0.000000   
      6. B(C   5,C   3)                  2.9708         0.000000   
      7. B(C   5,C   4)                  1.3851         0.000000   
      8. B(C   6,C   5)                  1.4348         0.000000   
      9. B(C   6,C   2)                  2.9732         0.000000   
     10. B(C   6,C   1)                  3.0008         0.000000   
     11. B(C   7,C   1)                  2.9525         0.000000   
     12. B(C   7,C   6)                  1.3854         0.000000   
     13. B(C   7,C   3)                  3.0695         0.000000   
     14. B(C   7,C   2)                  2.4860         0.000000   
     15. B(C   8,C   4)                  1.5034         0.000000   
     16. B(C   8,C   3)                  2.8188         0.000000   
     17. B(C   8,C   7)                  1.5041         0.000000   
     18. B(C   8,C   2)                  2.8136         0.000000   
     19. B(C   9,C   1)                  1.4906         0.000000   
     20. B(C   9,C   6)                  3.2123         0.000000   
     21. B(C  10,C   5)                  3.2167         0.000000   
     22. B(C  10,C   9)                  1.3566         0.000000   
     23. B(C  11,C   3)                  1.4816         0.000000   
     24. B(C  11,C  10)                  1.4903         0.000000   
     25. B(C  11,C   5)                  3.0030         0.000000   
     26. B(C  11,C   4)                  2.9615         0.000000   
     27. B(O  12,C  11)                  1.2335         0.000000   
     28. B(H  13,C   7)                  2.6558         0.000000   
     29. B(H  13,C   8)                  2.8990         0.000000   
     30. B(H  13,C   2)                  1.1004         0.000000   
     31. B(H  14,C   3)                  1.0997         0.000000   
     32. B(H  14,C   8)                  2.9024         0.000000   
     33. B(H  14,C   4)                  2.6504         0.000000   
     34. B(H  15,H  14)                  2.6894         0.000000   
     35. B(H  15,O  12)                  3.2233         0.000000   
     36. B(H  15,C  11)                  3.1527         0.000000   
     37. B(H  15,C   3)                  2.8648         0.000000   
     38. B(H  15,C   4)                  1.0978         0.000000   
     39. B(H  16,C  11)                  3.1430         0.000000   
     40. B(H  16,C  10)                  3.1596         0.000000   
     41. B(H  16,C   5)                  1.0984         0.000000   
     42. B(H  17,C   1)                  3.1445         0.000000   
     43. B(H  17,C   9)                  3.1542         0.000000   
     44. B(H  17,C   6)                  1.0984         0.000000   
     45. B(H  18,C   1)                  3.1414         0.000000   
     46. B(H  18,H  13)                  2.6986         0.000000   
     47. B(H  18,O   0)                  3.2052         0.000000   
     48. B(H  18,C   7)                  1.0985         0.000000   
     49. B(H  18,C   2)                  2.8670         0.000000   
     50. B(H  19,C   8)                  1.1190         0.000000   
     51. B(H  20,H  14)                  2.4976         0.000000   
     52. B(H  20,H  13)                  2.4920         0.000000   
     53. B(H  20,C   8)                  1.1057         0.000000   
     54. B(H  20,C   3)                  2.7332         0.000000   
     55. B(H  20,C   2)                  2.7273         0.000000   
     56. B(H  21,C   9)                  1.1023         0.000000   
     57. B(H  22,C  10)                  1.1018         0.000000   
     58. A(C   6,C   1,C   7)           26.8983         0.000000   
     59. A(C   2,C   1,C   7)           57.2561         0.000000   
     60. A(O   0,C   1,C   6)          110.9559         0.000000   
     61. A(C   7,C   1,C   9)          110.1162         0.000000   
     62. A(C   6,C   1,C   9)           84.1765         0.000000   
     63. A(O   0,C   1,C   9)          121.1592         0.000000   
     64. A(O   0,C   1,C   2)          122.8047         0.000000   
     65. A(O   0,C   1,C   7)          101.6706         0.000000   
     66. A(C   2,C   1,C   6)           74.6071         0.000000   
     67. A(C   2,C   1,C   9)          116.0320         0.000000   
     68. A(C   3,C   2,H  13)          122.1217         0.000000   
     69. A(C   6,C   2,H  13)          113.5315         0.000000   
     70. A(C   6,C   2,C   7)           27.5988         0.000000   
     71. A(C   3,C   2,C   8)           76.0208         0.000000   
     72. A(C   1,C   2,C   4)          116.1430         0.000000   
     73. A(C   1,C   2,H  13)          115.0977         0.000000   
     74. A(C   4,C   2,C   8)           29.2418         0.000000   
     75. A(C   7,C   2,H  13)           86.4580         0.000000   
     76. A(C   4,C   2,C   7)           48.4379         0.000000   
     77. A(C   1,C   2,C   3)          121.5842         0.000000   
     78. A(C   6,C   2,C   8)           47.6382         0.000000   
     79. A(C   1,C   2,C   8)          123.0759         0.000000   
     80. A(C   3,C   2,C   7)          101.2311         0.000000   
     81. A(C   7,C   2,C   8)           32.2247         0.000000   
     82. A(C   8,C   2,H  13)           83.2947         0.000000   
     83. A(C   1,C   2,C   7)           92.6597         0.000000   
     84. A(C   3,C   2,C   4)           52.7939         0.000000   
     85. A(C   4,C   2,C   6)           44.6708         0.000000   
     86. A(C   3,C   2,C   6)           90.5033         0.000000   
     87. A(C   4,C   2,H  13)          110.6110         0.000000   
     88. A(C   1,C   2,C   6)           76.6786         0.000000   
     89. A(C   7,C   3,C   8)           29.2021         0.000000   
     90. A(C   5,C   3,C   8)           47.6185         0.000000   
     91. A(C   8,C   3,H  14)           83.2300         0.000000   
     92. A(C   2,C   3,C   5)           90.5467         0.000000   
     93. A(C   4,C   3,C   8)           32.1541         0.000000   
     94. A(C   5,C   3,H  14)          113.2286         0.000000   
     95. A(C   2,C   3,C   8)           75.6086         0.000000   
     96. A(C   7,C   3,H  14)          110.5820         0.000000   
     97. A(C   7,C   3,C  11)          116.1023         0.000000   
     98. A(C   4,C   3,C   7)           48.3643         0.000000   
     99. A(C   2,C   3,C   7)           52.5974         0.000000   
    100. A(C   4,C   3,C   5)           27.6216         0.000000   
    101. A(C   8,C   3,C  11)          123.3273         0.000000   
    102. A(C   4,C   3,C  11)           93.0767         0.000000   
    103. A(C   4,C   3,H  14)           86.1696         0.000000   
    104. A(C   2,C   3,C   4)          100.9609         0.000000   
    105. A(C   2,C   3,C  11)          121.6918         0.000000   
    106. A(C  11,C   3,H  14)          115.2559         0.000000   
    107. A(C   5,C   3,C   7)           44.6501         0.000000   
    108. A(C   2,C   3,H  14)          121.8904         0.000000   
    109. A(C   5,C   3,C  11)           76.8496         0.000000   
    110. A(C   3,C   4,C   8)           86.2020         0.000000   
    111. A(C   2,C   4,H  15)          123.5640         0.000000   
    112. A(C   2,C   4,C   8)           66.0931         0.000000   
    113. A(C   2,C   4,C   5)           86.6249         0.000000   
    114. A(C   2,C   4,C   3)           26.2452         0.000000   
    115. A(C   3,C   4,H  15)           98.6628         0.000000   
    116. A(C   3,C   4,C   5)           96.0588         0.000000   
    117. A(C   8,C   4,H  15)          124.6389         0.000000   
    118. A(C   5,C   4,H  15)          125.6929         0.000000   
    119. A(C   5,C   4,C   8)          108.2325         0.000000   
    120. A(C  11,C   4,H  15)           89.6842         0.000000   
    121. A(C   3,C   4,C  11)           29.9701         0.000000   
    122. A(C   8,C   4,C  11)          114.5396         0.000000   
    123. A(C   5,C   4,C  11)           78.2462         0.000000   
    124. A(C   2,C   4,C  11)           48.9817         0.000000   
    125. A(C   4,C   5,C  10)          101.3965         0.000000   
    126. A(C   4,C   5,C   6)          109.0085         0.000000   
    127. A(C   3,C   5,H  16)          115.5037         0.000000   
    128. A(C   3,C   5,C   6)           89.5499         0.000000   
    129. A(C   6,C   5,H  16)          125.2901         0.000000   
    130. A(C   3,C   5,C   4)           56.3196         0.000000   
    131. A(C   4,C   5,H  16)          125.5230         0.000000   
    132. A(C   6,C   5,C  10)           89.1715         0.000000   
    133. A(C  10,C   5,C  11)           27.4520         0.000000   
    134. A(C  11,C   5,H  16)           86.9932         0.000000   
    135. A(C   3,C   5,C  11)           28.7132         0.000000   
    136. A(C   6,C   5,C  11)          104.4258         0.000000   
    137. A(C   4,C   5,C  11)           74.9096         0.000000   
    138. A(C   3,C   5,C  10)           47.8763         0.000000   
    139. A(C  10,C   5,H  16)           77.1574         0.000000   
    140. A(C   1,C   6,C   2)           28.7143         0.000000   
    141. A(C   2,C   6,H  17)          115.7312         0.000000   
    142. A(C   9,C   6,H  17)           77.0893         0.000000   
    143. A(C   2,C   6,C   7)           56.2324         0.000000   
    144. A(C   2,C   6,C   5)           89.3994         0.000000   
    145. A(C   7,C   6,C   9)          101.1912         0.000000   
    146. A(C   5,C   6,C   9)           89.4346         0.000000   
    147. A(C   7,C   6,H  17)          125.5596         0.000000   
    148. A(C   5,C   6,H  17)          125.2509         0.000000   
    149. A(C   1,C   6,H  17)           87.1889         0.000000   
    150. A(C   1,C   6,C   7)           74.6058         0.000000   
    151. A(C   1,C   6,C   5)          104.5066         0.000000   
    152. A(C   1,C   6,C   9)           27.4914         0.000000   
    153. A(C   5,C   6,C   7)          109.0105         0.000000   
    154. A(C   2,C   6,C   9)           47.9108         0.000000   
    155. A(C   8,C   7,H  18)          124.6937         0.000000   
    156. A(C   6,C   7,C   8)          108.1941         0.000000   
    157. A(C   2,C   7,C   3)           26.1715         0.000000   
    158. A(C   6,C   7,H  18)          125.6756         0.000000   
    159. A(C   1,C   7,C   3)           48.9776         0.000000   
    160. A(C   3,C   7,H  18)          123.6976         0.000000   
    161. A(C   3,C   7,C   8)           66.1140         0.000000   
    162. A(C   3,C   7,C   6)           86.4656         0.000000   
    163. A(C   1,C   7,H  18)           89.5093         0.000000   
    164. A(C   1,C   7,C   8)          114.4950         0.000000   
    165. A(C   1,C   7,C   6)           78.4959         0.000000   
    166. A(C   1,C   7,C   2)           30.0842         0.000000   
    167. A(C   2,C   7,H  18)           98.7672         0.000000   
    168. A(C   2,C   7,C   8)           85.9675         0.000000   
    169. A(C   2,C   7,C   6)           96.1687         0.000000   
    170. A(C   7,C   8,H  20)          117.0389         0.000000   
    171. A(C   4,C   8,H  20)          116.7920         0.000000   
    172. A(C   7,C   8,H  19)          106.8430         0.000000   
    173. A(C   2,C   8,C   3)           28.3707         0.000000   
    174. A(C   3,C   8,H  20)           74.1967         0.000000   
    175. A(C   3,C   8,H  19)          165.9845         0.000000   
    176. A(C   4,C   8,H  19)          107.2068         0.000000   
    177. A(C   4,C   8,C   7)          101.9950         0.000000   
    178. A(C   3,C   8,C   7)           84.6839         0.000000   
    179. A(C   3,C   8,C   4)           61.6439         0.000000   
    180. A(C   2,C   8,H  20)           74.1348         0.000000   
    181. A(C   2,C   8,H  19)          165.6446         0.000000   
    182. A(C   2,C   8,C   7)           61.8078         0.000000   
    183. A(C   2,C   8,C   4)           84.6650         0.000000   
    184. A(H  19,C   8,H  20)          106.2817         0.000000   
    185. A(C   6,C   9,H  21)          112.6713         0.000000   
    186. A(C   6,C   9,C  10)           90.7420         0.000000   
    187. A(C   1,C   9,C   6)           68.3321         0.000000   
    188. A(C   1,C   9,C  10)          122.0015         0.000000   
    189. A(C  10,C   9,H  21)          122.4592         0.000000   
    190. A(C   1,C   9,H  21)          115.4988         0.000000   
    191. A(C   9,C  10,C  11)          121.9262         0.000000   
    192. A(C  11,C  10,H  22)          115.5808         0.000000   
    193. A(C   9,C  10,H  22)          122.4523         0.000000   
    194. A(C   5,C  10,H  22)          112.8289         0.000000   
    195. A(C   5,C  10,C  11)           68.2661         0.000000   
    196. A(C   5,C  10,C   9)           90.6515         0.000000   
    197. A(C  10,C  11,O  12)          121.2293         0.000000   
    198. A(C   3,C  11,O  12)          122.7438         0.000000   
    199. A(C   3,C  11,C  10)          116.0222         0.000000   
    200. A(C   4,C  11,C   5)           26.8442         0.000000   
    201. A(C   5,C  11,O  12)          111.0481         0.000000   
    202. A(C   5,C  11,C  10)           84.2819         0.000000   
    203. A(C   3,C  11,C   5)           74.4372         0.000000   
    204. A(C   4,C  11,O  12)          101.9220         0.000000   
    205. A(C   4,C  11,C  10)          110.1075         0.000000   
    206. A(C   3,C  11,C   4)           56.9533         0.000000   
    207. D(C   7,C   2,C   1,C   6)    -22.6760         0.000000   
    208. D(C   3,C   2,C   1,C   6)     82.2423         0.000000   
    209. D(C   7,C   2,C   1,C   9)    -98.1043         0.000000   
    210. D(C   6,C   2,C   1,C   7)     22.6760         0.000000   
    211. D(C   6,C   2,C   1,O   0)    105.3005         0.000000   
    212. D(C   8,C   2,C   1,C   7)     11.3628         0.000000   
    213. D(C   8,C   2,C   1,C   6)    -11.3132         0.000000   
    214. D(C   4,C   2,C   1,O   0)    126.8144         0.000000   
    215. D(C   3,C   2,C   1,O   0)   -172.4573         0.000000   
    216. D(C   8,C   2,C   1,O   0)     93.9873         0.000000   
    217. D(C   6,C   2,C   1,C   9)    -75.4283         0.000000   
    218. D(C   4,C   2,C   1,C   6)     21.5139         0.000000   
    219. D(C   4,C   2,C   1,C   7)     44.1900         0.000000   
    220. D(H  13,C   2,C   1,C   7)    -87.3327         0.000000   
    221. D(C   3,C   2,C   1,C   7)    104.9183         0.000000   
    222. D(H  13,C   2,C   1,O   0)     -4.7082         0.000000   
    223. D(C   3,C   2,C   1,C   9)      6.8139         0.000000   
    224. D(C   4,C   2,C   1,C   9)    -53.9144         0.000000   
    225. D(H  13,C   2,C   1,C   9)    174.5630         0.000000   
    226. D(C   7,C   2,C   1,O   0)     82.6245         0.000000   
    227. D(H  13,C   2,C   1,C   6)   -110.0087         0.000000   
    228. D(C   8,C   2,C   1,C   9)    -86.7415         0.000000   
    229. D(H  14,C   3,C   2,C   1)    167.1639         0.000000   
    230. D(C   5,C   3,C   2,C   4)     25.7517         0.000000   
    231. D(C   7,C   3,C   2,C   8)     20.2426         0.000000   
    232. D(H  14,C   3,C   2,C   4)    -92.3134         0.000000   
    233. D(C  11,C   3,C   2,C   8)    120.5437         0.000000   
    234. D(C   8,C   3,C   2,C   1)   -120.4738         0.000000   
    235. D(H  14,C   3,C   2,H  13)      0.2781         0.000000   
    236. D(C   4,C   3,C   2,C   8)     19.9511         0.000000   
    237. D(C  11,C   3,C   2,C   7)    100.3012         0.000000   
    238. D(C  11,C   3,C   2,C   1)      0.0699         0.000000   
    239. D(C   7,C   3,C   2,H  13)     92.8830         0.000000   
    240. D(C   8,C   3,C   2,C   7)    -20.2426         0.000000   
    241. D(H  14,C   3,C   2,C   8)    -72.3623         0.000000   
    242. D(C   4,C   3,C   2,C   7)     -0.2915         0.000000   
    243. D(C   5,C   3,C   2,C   1)    -74.7711         0.000000   
    244. D(C   7,C   3,C   2,C   1)   -100.2312         0.000000   
    245. D(C   8,C   3,C   2,C   4)    -19.9511         0.000000   
    246. D(C   4,C   3,C   2,C   6)    -25.8950         0.000000   
    247. D(C   5,C   3,C   2,C   8)     45.7027         0.000000   
    248. D(C   8,C   3,C   2,C   6)    -45.8461         0.000000   
    249. D(C   7,C   3,C   2,C   4)      0.2915         0.000000   
    250. D(H  14,C   3,C   2,C   7)    -92.6049         0.000000   
    251. D(C   7,C   3,C   2,C   6)    -25.6035         0.000000   
    252. D(C   5,C   3,C   2,H  13)    118.3431         0.000000   
    253. D(C   5,C   3,C   2,C   7)     25.4601         0.000000   
    254. D(C   4,C   3,C   2,H  13)     92.5915         0.000000   
    255. D(C  11,C   3,C   2,H  13)   -166.8159         0.000000   
    256. D(C   4,C   3,C   2,C   1)   -100.5228         0.000000   
    257. D(H  14,C   3,C   2,C   6)   -118.2084         0.000000   
    258. D(C   5,C   3,C   2,C   6)     -0.1434         0.000000   
    259. D(C  11,C   3,C   2,C   4)    100.5927         0.000000   
    260. D(C  11,C   3,C   2,C   6)     74.6977         0.000000   
    261. D(C   8,C   3,C   2,H  13)     72.6404         0.000000   
    262. D(C   5,C   4,C   2,C   3)   -111.0210         0.000000   
    263. D(C   5,C   4,C   2,C   8)    111.6523         0.000000   
    264. D(C   8,C   4,C   2,C   1)   -111.5795         0.000000   
    265. D(C  11,C   4,C   3,C   2)    123.1131         0.000000   
    266. D(C   8,C   4,C   2,C   3)    137.3267         0.000000   
    267. D(C   5,C   4,C   2,H  13)    133.6561         0.000000   
    268. D(C   5,C   4,C   3,C   2)     69.5642         0.000000   
    269. D(C   5,C   4,C   3,H  14)   -168.6765         0.000000   
    270. D(C   2,C   4,C   3,C   5)    -69.5642         0.000000   
    271. D(H  15,C   4,C   3,C   7)   -163.1807         0.000000   
    272. D(C   5,C   4,C   3,C   8)    107.9555         0.000000   
    273. D(H  15,C   4,C   3,H  14)    -41.1116         0.000000   
    274. D(C   5,C   4,C   3,C   7)     69.2544         0.000000   
    275. D(C   8,C   4,C   3,C   5)   -107.9555         0.000000   
    276. D(C   8,C   4,C   3,H  14)     83.3680         0.000000   
    277. D(H  15,C   4,C   3,C   2)   -162.8709         0.000000   
    278. D(C   8,C   4,C   3,C  11)   -161.5044         0.000000   
    279. D(C   5,C   4,C   3,C  11)    -53.5489         0.000000   
    280. D(H  15,C   4,C   3,C   8)   -124.4796         0.000000   
    281. D(C  11,C   4,C   2,C   8)   -171.0074         0.000000   
    282. D(C   2,C   4,C   3,C  11)   -123.1131         0.000000   
    283. D(C   2,C   4,C   3,C   8)     38.3913         0.000000   
    284. D(C   5,C   4,C   2,C   6)     30.5769         0.000000   
    285. D(C  11,C   4,C   3,C   5)     53.5489         0.000000   
    286. D(C  11,C   4,C   2,C   7)    145.9372         0.000000   
    287. D(C  11,C   4,C   2,C   6)    107.9173         0.000000   
    288. D(H  15,C   4,C   3,C   5)    127.5649         0.000000   
    289. D(C   5,C   4,C   2,C   1)      0.0728         0.000000   
    290. D(C  11,C   4,C   3,C   8)    161.5044         0.000000   
    291. D(H  15,C   4,C   2,C   1)    131.5461         0.000000   
    292. D(C  11,C   4,C   3,C   7)    122.8033         0.000000   
    293. D(C   3,C   4,C   2,C   7)    179.6178         0.000000   
    294. D(C   2,C   4,C   3,C   7)     -0.3099         0.000000   
    295. D(H  15,C   4,C   3,C  11)     74.0160         0.000000   
    296. D(C   2,C   4,C   3,H  14)    121.7593         0.000000   
    297. D(H  15,C   4,C   2,H  13)    -94.8706         0.000000   
    298. D(C   8,C   4,C   3,C   2)    -38.3913         0.000000   
    299. D(C   3,C   4,C   2,C   6)    141.5979         0.000000   
    300. D(C   3,C   4,C   2,H  13)   -115.3228         0.000000   
    301. D(H  15,C   4,C   2,C   8)   -116.8744         0.000000   
    302. D(C   8,C   4,C   2,C   7)    -43.0555         0.000000   
    303. D(C   3,C   4,C   2,C   1)    111.0938         0.000000   
    304. D(H  15,C   4,C   2,C   6)    162.0502         0.000000   
    305. D(C   3,C   4,C   2,C   8)   -137.3267         0.000000   
    306. D(H  15,C   4,C   2,C   3)     20.4523         0.000000   
    307. D(H  15,C   4,C   2,C   7)   -159.9299         0.000000   
    308. D(C   8,C   4,C   3,C   7)    -38.7011         0.000000   
    309. D(C   8,C   4,C   2,C   6)    -81.0754         0.000000   
    310. D(C  11,C   4,C   2,C   1)     77.4131         0.000000   
    311. D(C  11,C   4,C   2,H  13)   -149.0035         0.000000   
    312. D(C  11,C   4,C   3,H  14)   -115.1276         0.000000   
    313. D(C   8,C   4,C   2,H  13)     22.0038         0.000000   
    314. D(C  11,C   4,C   2,C   3)    -33.6807         0.000000   
    315. D(C   5,C   4,C   2,C   7)     68.5968         0.000000   
    316. D(H  16,C   5,C   3,C   8)   -160.3759         0.000000   
    317. D(H  16,C   5,C   3,C   2)    129.8180         0.000000   
    318. D(C   6,C   5,C   3,H  14)    125.6787         0.000000   
    319. D(C   6,C   5,C   3,C   8)     70.1032         0.000000   
    320. D(H  16,C   5,C   3,C   4)   -117.1097         0.000000   
    321. D(H  16,C   5,C   3,H  14)   -104.8003         0.000000   
    322. D(H  16,C   5,C   3,C   7)    158.8909         0.000000   
    323. D(C   6,C   5,C   3,C   7)     29.3699         0.000000   
    324. D(C   4,C   5,C   3,C   8)    -43.2662         0.000000   
    325. D(C   6,C   5,C   3,C   2)      0.2971         0.000000   
    326. D(C   6,C   5,C   3,C  11)   -122.2025         0.000000   
    327. D(C  10,C   5,C   3,C   2)     89.5870         0.000000   
    328. D(C   4,C   5,C   3,C   7)    -83.9994         0.000000   
    329. D(C   6,C   5,C   3,C   4)    113.3693         0.000000   
    330. D(C   4,C   5,C   3,C  11)    124.4282         0.000000   
    331. D(C   4,C   5,C   3,H  14)     12.3094         0.000000   
    332. D(C   4,C   5,C   3,C   2)   -113.0723         0.000000   
    333. D(H  16,C   5,C   3,C  11)      7.3185         0.000000   
    334. D(C  11,C   5,C   4,C   3)     24.2315         0.000000   
    335. D(C  10,C   5,C   4,C  11)     -7.2845         0.000000   
    336. D(C  10,C   5,C   3,C   7)    118.6599         0.000000   
    337. D(C   6,C   5,C   4,H  15)    178.6276         0.000000   
    338. D(C  10,C   5,C   4,C   8)    104.9316         0.000000   
    339. D(C   3,C   5,C   4,C  11)    -24.2315         0.000000   
    340. D(C   3,C   5,C   4,C   8)     87.9846         0.000000   
    341. D(C   6,C   5,C   4,C  11)   -100.3707         0.000000   
    342. D(H  16,C   5,C   4,C   2)    123.7319         0.000000   
    343. D(H  16,C   5,C   4,H  15)     -6.0271         0.000000   
    344. D(H  16,C   5,C   4,C   8)   -172.8093         0.000000   
    345. D(C   3,C   5,C   4,H  15)   -105.2331         0.000000   
    346. D(H  16,C   5,C   4,C  11)     74.9746         0.000000   
    347. D(C   6,C   5,C   4,C   3)    -76.1392         0.000000   
    348. D(C   6,C   5,C   4,C   2)    -51.6134         0.000000   
    349. D(C   3,C   5,C   4,C   2)     24.5258         0.000000   
    350. D(C  10,C   5,C   4,H  15)    -88.2861         0.000000   
    351. D(C   6,C   5,C   4,C   8)     11.8454         0.000000   
    352. D(C  10,C   5,C   4,C   2)     41.4728         0.000000   
    353. D(C  11,C   5,C   3,C   8)   -167.6944         0.000000   
    354. D(C  10,C   5,C   4,C   3)     16.9470         0.000000   
    355. D(C  11,C   5,C   3,C   7)    151.5724         0.000000   
    356. D(H  16,C   5,C   4,C   3)     99.2061         0.000000   
    357. D(C  11,C   5,C   4,H  15)    -81.0017         0.000000   
    358. D(C  11,C   5,C   3,H  14)   -112.1188         0.000000   
    359. D(C  11,C   5,C   4,C   8)    112.2161         0.000000   
    360. D(C  11,C   5,C   4,C   2)     48.7573         0.000000   
    361. D(C  11,C   5,C   3,C   2)    122.4995         0.000000   
    362. D(C  10,C   5,C   3,H  14)   -145.0313         0.000000   
    363. D(C  10,C   5,C   3,C   4)   -157.3407         0.000000   
    364. D(C  11,C   5,C   3,C   4)   -124.4282         0.000000   
    365. D(C  10,C   5,C   3,C   8)    159.3931         0.000000   
    366. D(C  10,C   5,C   3,C  11)    -32.9125         0.000000   
    367. D(C   9,C   6,C   5,C  11)     22.9563         0.000000   
    368. D(C   9,C   6,C   5,C  10)     -0.1026         0.000000   
    369. D(C   9,C   6,C   5,C   3)     47.7755         0.000000   
    370. D(C   9,C   6,C   5,H  16)    -73.6884         0.000000   
    371. D(C   9,C   6,C   5,C   4)    101.6704         0.000000   
    372. D(C   2,C   6,C   5,C  11)    -24.9571         0.000000   
    373. D(C   2,C   6,C   5,C  10)    -48.0160         0.000000   
    374. D(C   1,C   6,C   5,C  11)     -0.2792         0.000000   
    375. D(C   1,C   6,C   5,C  10)    -23.3381         0.000000   
    376. D(C   1,C   6,C   5,C   3)     24.5400         0.000000   
    377. D(C   1,C   6,C   5,H  16)    -96.9239         0.000000   
    378. D(C   1,C   6,C   5,C   4)     78.4348         0.000000   
    379. D(C   2,C   6,C   5,C   3)     -0.1379         0.000000   
    380. D(H  17,C   6,C   5,C  10)     73.6021         0.000000   
    381. D(H  17,C   6,C   5,C   3)    121.4801         0.000000   
    382. D(H  17,C   6,C   5,H  16)      0.0162         0.000000   
    383. D(C   7,C   6,C   1,C   9)    164.8407         0.000000   
    384. D(C   7,C   6,C   5,C  10)   -101.7501         0.000000   
    385. D(C   7,C   6,C   5,C   3)    -53.8720         0.000000   
    386. D(C   7,C   6,C   5,H  16)   -175.3359         0.000000   
    387. D(C   9,C   6,C   2,C   7)    156.7114         0.000000   
    388. D(C   9,C   6,C   2,H  13)    144.7983         0.000000   
    389. D(C   9,C   6,C   2,C   1)     32.9399         0.000000   
    390. D(C   1,C   6,C   2,H  13)    111.8585         0.000000   
    391. D(H  17,C   6,C   2,C   8)    160.3967         0.000000   
    392. D(H  17,C   6,C   2,C   7)    117.0222         0.000000   
    393. D(H  17,C   6,C   2,C   4)   -158.8272         0.000000   
    394. D(C   1,C   6,C   2,C   4)   -152.0778         0.000000   
    395. D(C   7,C   6,C   2,C   8)     43.3744         0.000000   
    396. D(C   7,C   6,C   2,C   4)     84.1506         0.000000   
    397. D(C   7,C   6,C   2,H  13)    -11.9131         0.000000   
    398. D(C   7,C   6,C   2,C   3)    113.8048         0.000000   
    399. D(H  17,C   6,C   2,C   1)     -6.7493         0.000000   
    400. D(C   7,C   6,C   2,C   1)   -123.7716         0.000000   
    401. D(C   5,C   6,C   2,C   8)    -70.1335         0.000000   
    402. D(C   5,C   6,C   2,C   7)   -113.5080         0.000000   
    403. D(H  17,C   6,C   2,H  13)    105.1092         0.000000   
    404. D(C   5,C   6,C   2,C   4)    -29.3574         0.000000   
    405. D(C   5,C   6,C   2,H  13)   -125.4211         0.000000   
    406. D(C   5,C   6,C   2,C   3)      0.2968         0.000000   
    407. D(C   5,C   6,C   2,C   1)    122.7204         0.000000   
    408. D(C   1,C   6,C   2,C   7)    123.7716         0.000000   
    409. D(C   9,C   6,C   1,C   7)   -164.8407         0.000000   
    410. D(C   9,C   6,C   1,C   2)   -119.0546         0.000000   
    411. D(C   1,C   6,C   2,C   3)   -122.4236         0.000000   
    412. D(H  17,C   6,C   2,C   3)   -129.1730         0.000000   
    413. D(C   9,C   6,C   1,O   0)    121.1901         0.000000   
    414. D(C   2,C   6,C   1,C   7)    -45.7861         0.000000   
    415. D(C   9,C   6,C   2,C   3)    -89.4838         0.000000   
    416. D(C   2,C   6,C   1,C   9)    119.0546         0.000000   
    417. D(C   2,C   6,C   1,O   0)   -119.7553         0.000000   
    418. D(C   9,C   6,C   2,C   4)   -119.1380         0.000000   
    419. D(H  17,C   6,C   1,C   7)    128.1292         0.000000   
    420. D(H  17,C   6,C   5,C  11)     96.6610         0.000000   
    421. D(H  17,C   6,C   1,C   9)    -67.0302         0.000000   
    422. D(C   7,C   6,C   5,C   4)      0.0229         0.000000   
    423. D(H  17,C   6,C   1,C   2)    173.9152         0.000000   
    424. D(C   2,C   6,C   5,C   4)     53.7570         0.000000   
    425. D(H  17,C   6,C   1,O   0)     54.1599         0.000000   
    426. D(C   2,C   6,C   5,H  16)   -121.6018         0.000000   
    427. D(C   9,C   6,C   2,C   8)   -159.9141         0.000000   
    428. D(H  17,C   6,C   5,C   4)    175.3750         0.000000   
    429. D(C   7,C   6,C   1,C   2)     45.7861         0.000000   
    430. D(C   7,C   6,C   1,O   0)    -73.9692         0.000000   
    431. D(C   5,C   6,C   1,C   7)   -106.1259         0.000000   
    432. D(C   7,C   6,C   5,C  11)    -78.6912         0.000000   
    433. D(C   5,C   6,C   1,C   9)     58.7148         0.000000   
    434. D(C   5,C   6,C   1,O   0)    179.9049         0.000000   
    435. D(C   1,C   6,C   2,C   8)    167.1460         0.000000   
    436. D(C   5,C   6,C   1,C   2)    -60.3398         0.000000   
    437. D(C   6,C   7,C   2,C   4)    -69.1784         0.000000   
    438. D(C   2,C   7,C   1,C   9)    108.6719         0.000000   
    439. D(C   3,C   7,C   1,C   6)     95.3751         0.000000   
    440. D(C   3,C   7,C   1,C   2)    -29.3814         0.000000   
    441. D(C   6,C   7,C   2,C   1)     54.0730         0.000000   
    442. D(C   2,C   7,C   1,C   6)    124.7565         0.000000   
    443. D(C   6,C   7,C   2,H  13)    169.0692         0.000000   
    444. D(C   2,C   7,C   1,O   0)   -121.6615         0.000000   
    445. D(H  18,C   7,C   1,C   6)   -126.6494         0.000000   
    446. D(H  18,C   7,C   1,C   9)   -142.7340         0.000000   
    447. D(C   6,C   7,C   2,C   8)   -107.8915         0.000000   
    448. D(C   6,C   7,C   2,C   3)    -68.8681         0.000000   
    449. D(H  18,C   7,C   1,C   2)    108.5941         0.000000   
    450. D(C   3,C   7,C   1,O   0)   -151.0429         0.000000   
    451. D(H  18,C   7,C   1,O   0)    -13.0674         0.000000   
    452. D(C   3,C   7,C   1,C   9)     79.2906         0.000000   
    453. D(C   8,C   7,C   1,C   6)    104.9172         0.000000   
    454. D(C   8,C   7,C   2,C   3)     39.0234         0.000000   
    455. D(C   8,C   7,C   1,O   0)   -141.5008         0.000000   
    456. D(C   6,C   7,C   1,C   2)   -124.7565         0.000000   
    457. D(C   6,C   7,C   1,O   0)    113.5820         0.000000   
    458. D(C   6,C   7,C   1,C   9)    -16.0846         0.000000   
    459. D(C   8,C   7,C   1,C   9)     88.8326         0.000000   
    460. D(C   8,C   7,C   1,C   2)    -19.8393         0.000000   
    461. D(C   8,C   7,C   2,C   1)    161.9646         0.000000   
    462. D(C   3,C   7,C   6,C   9)    -41.7448         0.000000   
    463. D(C   3,C   7,C   6,C   2)    -24.3421         0.000000   
    464. D(C   3,C   7,C   6,C   1)    -48.8132         0.000000   
    465. D(C   3,C   7,C   6,H  17)   -123.7813         0.000000   
    466. D(C   3,C   7,C   6,C   5)     51.5530         0.000000   
    467. D(C   2,C   7,C   6,C   9)    -17.4027         0.000000   
    468. D(C   2,C   7,C   6,H  17)    -99.4392         0.000000   
    469. D(C   2,C   7,C   6,C   5)     75.8950         0.000000   
    470. D(C   1,C   7,C   6,C   9)      7.0684         0.000000   
    471. D(C   1,C   7,C   6,H  17)    -74.9681         0.000000   
    472. D(C   1,C   7,C   6,C   5)    100.3662         0.000000   
    473. D(H  18,C   7,C   6,C   9)     88.0427         0.000000   
    474. D(H  18,C   7,C   6,C   1)     80.9743         0.000000   
    475. D(H  18,C   7,C   6,H  17)      6.0062         0.000000   
    476. D(H  18,C   7,C   6,C   5)   -178.6595         0.000000   
    477. D(C   8,C   7,C   6,C   9)   -105.1716         0.000000   
    478. D(C   8,C   7,C   6,C   2)    -87.7689         0.000000   
    479. D(C   8,C   7,C   6,C   1)   -112.2400         0.000000   
    480. D(C   8,C   7,C   6,H  17)    172.7919         0.000000   
    481. D(C   2,C   7,C   3,C   8)    136.6139         0.000000   
    482. D(C   2,C   7,C   3,C   5)   -142.2900         0.000000   
    483. D(C   2,C   7,C   3,C   4)    179.6171         0.000000   
    484. D(C   2,C   7,C   3,C  11)   -111.2114         0.000000   
    485. D(C   1,C   7,C   3,C   8)    170.5038         0.000000   
    486. D(C   1,C   7,C   3,C   5)   -108.4001         0.000000   
    487. D(C   1,C   7,C   3,H  14)    148.9298         0.000000   
    488. D(C   1,C   7,C   3,C  11)    -77.3215         0.000000   
    489. D(C   1,C   7,C   3,C   2)     33.8899         0.000000   
    490. D(H  18,C   7,C   3,C   8)    116.9304         0.000000   
    491. D(H  18,C   7,C   3,C   5)   -161.9735         0.000000   
    492. D(H  18,C   7,C   3,C   4)    159.9335         0.000000   
    493. D(H  18,C   7,C   3,H  14)     95.3564         0.000000   
    494. D(H  18,C   7,C   3,C  11)   -130.8949         0.000000   
    495. D(H  18,C   7,C   3,C   2)    -19.6835         0.000000   
    496. D(C   8,C   7,C   3,C   5)     81.0961         0.000000   
    497. D(C   8,C   7,C   3,C   4)     43.0031         0.000000   
    498. D(C   8,C   7,C   3,H  14)    -21.5740         0.000000   
    499. D(C   8,C   7,C   3,C  11)    112.1747         0.000000   
    500. D(C   1,C   7,C   3,C   4)   -146.4930         0.000000   
    501. D(C   8,C   7,C   3,C   2)   -136.6139         0.000000   
    502. D(C   6,C   7,C   3,C   8)   -111.6841         0.000000   
    503. D(C   6,C   7,C   3,C   5)    -30.5880         0.000000   
    504. D(C   2,C   7,C   3,H  14)    115.0399         0.000000   
    505. D(C   6,C   7,C   3,C   4)    -68.6809         0.000000   
    506. D(C   6,C   7,C   3,H  14)   -133.2581         0.000000   
    507. D(C   6,C   7,C   3,C  11)      0.4906         0.000000   
    508. D(C   8,C   7,C   6,C   5)    -11.8738         0.000000   
    509. D(C   6,C   7,C   3,C   2)    111.7020         0.000000   
    510. D(C   3,C   7,C   2,C   8)    -39.0234         0.000000   
    511. D(C   3,C   7,C   2,C   6)     68.8681         0.000000   
    512. D(C   3,C   7,C   2,C   4)     -0.3103         0.000000   
    513. D(C   3,C   7,C   2,H  13)   -122.0627         0.000000   
    514. D(C   1,C   7,C   2,C   6)    -54.0730         0.000000   
    515. D(H  18,C   7,C   2,C   6)   -127.6037         0.000000   
    516. D(H  18,C   7,C   6,C   2)    105.4454         0.000000   
    517. D(H  18,C   7,C   2,C   8)    124.5048         0.000000   
    518. D(C   1,C   7,C   2,C   8)   -161.9646         0.000000   
    519. D(C   1,C   7,C   2,H  13)    114.9961         0.000000   
    520. D(C   1,C   7,C   6,C   2)     24.4711         0.000000   
    521. D(H  18,C   7,C   2,C   4)    163.2179         0.000000   
    522. D(C   1,C   7,C   2,C   4)   -123.2515         0.000000   
    523. D(H  18,C   7,C   2,H  13)     41.4655         0.000000   
    524. D(C   2,C   7,C   6,C   1)    -24.4711         0.000000   
    525. D(H  18,C   7,C   2,C   3)    163.5282         0.000000   
    526. D(C   1,C   7,C   2,C   3)   -122.9412         0.000000   
    527. D(H  18,C   7,C   2,C   1)    -73.5306         0.000000   
    528. D(C   8,C   7,C   2,C   6)    107.8915         0.000000   
    529. D(C   8,C   7,C   2,C   4)     38.7131         0.000000   
    530. D(C   8,C   7,C   2,H  13)    -83.0393         0.000000   
    531. D(C   3,C   7,C   2,C   1)    122.9412         0.000000   
    532. D(C   3,C   8,C   7,C   2)    -17.6812         0.000000   
    533. D(C   3,C   8,C   7,C   1)     -7.8617         0.000000   
    534. D(C   3,C   8,C   7,C   6)     77.4952         0.000000   
    535. D(C   2,C   8,C   7,C   3)     17.6812         0.000000   
    536. D(C   2,C   8,C   7,C   1)      9.8196         0.000000   
    537. D(C   2,C   8,C   7,H  18)    -97.8764         0.000000   
    538. D(C   2,C   8,C   7,C   6)     95.1764         0.000000   
    539. D(H  20,C   8,C   7,C   3)     69.2330         0.000000   
    540. D(H  20,C   8,C   7,C   2)     51.5518         0.000000   
    541. D(H  20,C   8,C   7,H  18)    -46.3245         0.000000   
    542. D(H  20,C   8,C   7,C   6)    146.7282         0.000000   
    543. D(H  19,C   8,C   7,C   3)   -171.8603         0.000000   
    544. D(H  19,C   8,C   7,C   1)   -179.7220         0.000000   
    545. D(H  19,C   8,C   7,H  18)     72.5821         0.000000   
    546. D(H  19,C   8,C   7,C   6)    -94.3651         0.000000   
    547. D(C   4,C   8,C   7,C   2)    -77.1892         0.000000   
    548. D(C   4,C   8,C   7,C   1)    -67.3696         0.000000   
    549. D(C   4,C   8,C   7,H  18)   -175.0655         0.000000   
    550. D(C   4,C   8,C   7,C   6)     17.9872         0.000000   
    551. D(C   3,C   8,C   4,C  11)    -10.0326         0.000000   
    552. D(C   3,C   8,C   4,C   2)    -17.4816         0.000000   
    553. D(C   3,C   8,C   4,H  15)     97.9094         0.000000   
    554. D(C   2,C   8,C   4,C  11)      7.4490         0.000000   
    555. D(C   2,C   8,C   4,C   3)     17.4816         0.000000   
    556. D(C   2,C   8,C   4,H  15)    115.3910         0.000000   
    557. D(H  20,C   8,C   4,C  11)    -61.7736         0.000000   
    558. D(H  20,C   8,C   4,C   3)    -51.7410         0.000000   
    559. D(H  20,C   8,C   4,C   2)    -69.2226         0.000000   
    560. D(H  20,C   8,C   4,C   5)   -146.8761         0.000000   
    561. D(H  19,C   8,C   4,C  11)    179.2027         0.000000   
    562. D(H  19,C   8,C   4,C   3)   -170.7647         0.000000   
    563. D(H  19,C   8,C   4,C   2)    171.7537         0.000000   
    564. D(H  19,C   8,C   4,H  15)    -72.8553         0.000000   
    565. D(H  19,C   8,C   4,C   5)     94.1002         0.000000   
    566. D(C   7,C   8,C   4,C  11)     67.1232         0.000000   
    567. D(C   7,C   8,C   4,C   2)     59.6741         0.000000   
    568. D(C   7,C   8,C   4,H  15)    175.0652         0.000000   
    569. D(C   7,C   8,C   4,C   5)    -17.9793         0.000000   
    570. D(C   2,C   8,C   3,C   5)   -104.3290         0.000000   
    571. D(C   2,C   8,C   3,C   4)   -140.9904         0.000000   
    572. D(C   2,C   8,C   3,H  14)    125.4296         0.000000   
    573. D(H  20,C   8,C   3,C   7)   -120.0549         0.000000   
    574. D(H  20,C   8,C   3,C   5)    169.9040         0.000000   
    575. D(H  20,C   8,C   3,C   4)    133.2426         0.000000   
    576. D(H  20,C   8,C   3,H  14)     39.6626         0.000000   
    577. D(H  20,C   8,C   3,C  11)    155.5220         0.000000   
    578. D(H  20,C   8,C   3,C   2)    -85.7670         0.000000   
    579. D(H  19,C   8,C   3,C   7)    145.9755         0.000000   
    580. D(C   2,C   8,C   3,C  11)   -118.7110         0.000000   
    581. D(H  19,C   8,C   3,C   5)     75.9344         0.000000   
    582. D(H  19,C   8,C   3,C   4)     39.2730         0.000000   
    583. D(H  19,C   8,C   3,H  14)    -54.3070         0.000000   
    584. D(C   2,C   8,C   3,C   7)    -34.2879         0.000000   
    585. D(H  19,C   8,C   3,C  11)     61.5524         0.000000   
    586. D(H  19,C   8,C   3,C   2)   -179.7366         0.000000   
    587. D(C   7,C   8,C   3,C   5)    -70.0411         0.000000   
    588. D(C   7,C   8,C   4,C   3)     77.1557         0.000000   
    589. D(C   7,C   8,C   3,C   4)   -106.7025         0.000000   
    590. D(C   7,C   8,C   3,H  14)    159.7175         0.000000   
    591. D(C   7,C   8,C   3,C  11)    -84.4231         0.000000   
    592. D(C   7,C   8,C   3,C   2)     34.2879         0.000000   
    593. D(C   4,C   8,C   3,C   7)    106.7025         0.000000   
    594. D(C   4,C   8,C   3,C   5)     36.6614         0.000000   
    595. D(C   4,C   8,C   3,H  14)    -93.5800         0.000000   
    596. D(H  20,C   8,C   4,H  15)     46.1684         0.000000   
    597. D(C   4,C   8,C   3,C  11)     22.2794         0.000000   
    598. D(C   4,C   8,C   3,C   2)    140.9904         0.000000   
    599. D(C   3,C   8,C   2,C   7)    140.4740         0.000000   
    600. D(C   2,C   8,C   4,C   5)    -77.6535         0.000000   
    601. D(C   3,C   8,C   2,C   6)    103.8430         0.000000   
    602. D(C   3,C   8,C   2,C   4)     33.8027         0.000000   
    603. D(C   3,C   8,C   2,H  13)   -125.5201         0.000000   
    604. D(C   3,C   8,C   4,C   5)    -95.1351         0.000000   
    605. D(C   3,C   8,C   2,C   1)    118.8150         0.000000   
    606. D(H  20,C   8,C   2,C   7)   -133.5151         0.000000   
    607. D(H  20,C   8,C   2,C   6)   -170.1460         0.000000   
    608. D(H  20,C   8,C   2,C   4)    119.8137         0.000000   
    609. D(H  20,C   8,C   2,H  13)    -39.5091         0.000000   
    610. D(H  20,C   8,C   2,C   3)     86.0110         0.000000   
    611. D(H  20,C   8,C   2,C   1)   -155.1740         0.000000   
    612. D(C   4,C   8,C   7,C   3)    -59.5080         0.000000   
    613. D(H  19,C   8,C   2,C   7)    -39.7833         0.000000   
    614. D(H  19,C   8,C   2,C   6)    -76.4143         0.000000   
    615. D(H  19,C   8,C   2,C   4)   -146.4546         0.000000   
    616. D(H  19,C   8,C   7,C   2)    170.4585         0.000000   
    617. D(H  19,C   8,C   2,H  13)     54.2226         0.000000   
    618. D(H  19,C   8,C   2,C   3)    179.7427         0.000000   
    619. D(H  19,C   8,C   2,C   1)    -61.4423         0.000000   
    620. D(H  20,C   8,C   7,C   1)     61.3714         0.000000   
    621. D(C   7,C   8,C   2,C   6)    -36.6310         0.000000   
    622. D(C   7,C   8,C   2,C   4)   -106.6712         0.000000   
    623. D(C   7,C   8,C   2,H  13)     94.0059         0.000000   
    624. D(C   7,C   8,C   2,C   3)   -140.4740         0.000000   
    625. D(C   7,C   8,C   2,C   1)    -21.6590         0.000000   
    626. D(C   4,C   8,C   2,C   7)    106.6712         0.000000   
    627. D(C   4,C   8,C   2,C   6)     70.0403         0.000000   
    628. D(C   3,C   8,C   7,H  18)   -115.5576         0.000000   
    629. D(C   4,C   8,C   2,H  13)   -159.3228         0.000000   
    630. D(C   4,C   8,C   2,C   3)    -33.8027         0.000000   
    631. D(C   4,C   8,C   2,C   1)     85.0122         0.000000   
    632. D(H  21,C   9,C   6,C   2)   -144.1040         0.000000   
    633. D(H  21,C   9,C   6,C   1)   -109.6367         0.000000   
    634. D(H  21,C   9,C   6,H  17)     -0.2765         0.000000   
    635. D(H  21,C   9,C   6,C   5)    126.1946         0.000000   
    636. D(C  10,C   9,C   6,C   2)     89.9445         0.000000   
    637. D(C  10,C   9,C   6,C   1)    124.4119         0.000000   
    638. D(C  10,C   9,C   6,C   7)    109.5192         0.000000   
    639. D(C  10,C   9,C   6,C   5)      0.2432         0.000000   
    640. D(C   1,C   9,C   6,C   2)    -34.4673         0.000000   
    641. D(C   1,C   9,C   6,H  17)    109.3601         0.000000   
    642. D(C   1,C   9,C   6,C   7)    -14.8927         0.000000   
    643. D(C   1,C   9,C   6,C   5)   -124.1687         0.000000   
    644. D(C   6,C   9,C   1,C   7)      7.2381         0.000000   
    645. D(C   6,C   9,C   1,C   2)     69.7112         0.000000   
    646. D(C   6,C   9,C   1,O   0)   -111.0047         0.000000   
    647. D(H  21,C   9,C   1,C   7)    112.9033         0.000000   
    648. D(C  10,C   9,C   6,H  17)   -126.2280         0.000000   
    649. D(H  21,C   9,C   1,C   6)    105.6652         0.000000   
    650. D(H  21,C   9,C   1,C   2)    175.3764         0.000000   
    651. D(H  21,C   9,C   1,O   0)     -5.3394         0.000000   
    652. D(H  21,C   9,C   6,C   7)   -124.5293         0.000000   
    653. D(C  10,C   9,C   1,C   7)    -69.3563         0.000000   
    654. D(C  10,C   9,C   1,C   6)    -76.5943         0.000000   
    655. D(C  10,C   9,C   1,C   2)     -6.8832         0.000000   
    656. D(C  10,C   9,C   1,O   0)    172.4010         0.000000   
    657. D(C   5,C  10,C   9,C   6)     -0.1085         0.000000   
    658. D(C   5,C  10,C   9,H  21)   -117.8241         0.000000   
    659. D(H  22,C  10,C   9,C   6)    117.7340         0.000000   
    660. D(H  22,C  10,C   9,H  21)      0.0183         0.000000   
    661. D(H  22,C  10,C   9,C   1)   -177.5645         0.000000   
    662. D(C  11,C  10,C   9,C   6)    -64.6893         0.000000   
    663. D(C  11,C  10,C   9,H  21)    177.5951         0.000000   
    664. D(C  11,C  10,C   9,C   1)      0.0123         0.000000   
    665. D(H  22,C  10,C   5,C  11)    109.6653         0.000000   
    666. D(H  22,C  10,C   5,C   3)    144.1541         0.000000   
    667. D(H  22,C  10,C   5,H  16)      0.8732         0.000000   
    668. D(H  22,C  10,C   5,C   6)   -125.7035         0.000000   
    669. D(H  22,C  10,C   5,C   4)    125.0654         0.000000   
    670. D(C  11,C  10,C   5,C   3)     34.4888         0.000000   
    671. D(C  11,C  10,C   5,H  16)   -108.7921         0.000000   
    672. D(C  11,C  10,C   5,C   6)    124.6312         0.000000   
    673. D(C  11,C  10,C   5,C   4)     15.4001         0.000000   
    674. D(C   9,C  10,C   5,C  11)   -124.3883         0.000000   
    675. D(C   9,C  10,C   5,C   3)    -89.8995         0.000000   
    676. D(C   5,C  10,C   9,C   1)     64.5931         0.000000   
    677. D(C   9,C  10,C   5,H  16)    126.8196         0.000000   
    678. D(C   9,C  10,C   5,C   6)      0.2429         0.000000   
    679. D(C   9,C  10,C   5,C   4)   -108.9882         0.000000   
    680. D(C   5,C  11,C   4,C   8)   -104.8513         0.000000   
    681. D(O  12,C  11,C   4,C   3)    121.4759         0.000000   
    682. D(O  12,C  11,C   4,C   2)    150.8766         0.000000   
    683. D(O  12,C  11,C   4,C   8)    141.8388         0.000000   
    684. D(O  12,C  11,C   4,C   5)   -113.3099         0.000000   
    685. D(C  10,C  11,C   4,C   3)   -108.6141         0.000000   
    686. D(C  10,C  11,C   4,H  15)    143.2621         0.000000   
    687. D(C  10,C  11,C   4,C   8)    -88.2511         0.000000   
    688. D(C  10,C  11,C   4,C   5)     16.6001         0.000000   
    689. D(C   3,C  11,C   4,C   2)     29.4007         0.000000   
    690. D(C   3,C  11,C   4,H  15)   -108.1239         0.000000   
    691. D(C   3,C  11,C   4,C   8)     20.3629         0.000000   
    692. D(C   3,C  11,C   4,C   5)    125.2142         0.000000   
    693. D(C   5,C  11,C   3,C   7)    -21.8731         0.000000   
    694. D(C   5,C  11,C   3,C   4)     22.5178         0.000000   
    695. D(C   5,C  11,C   3,H  14)    109.7314         0.000000   
    696. D(C   5,C  11,C   3,C   2)    -82.3724         0.000000   
    697. D(C   4,C  11,C   3,C   8)    -11.6574         0.000000   
    698. D(C   4,C  11,C   3,C   7)    -44.3909         0.000000   
    699. D(C   4,C  11,C   3,C   5)    -22.5178         0.000000   
    700. D(C   5,C  11,C   3,C   8)     10.8604         0.000000   
    701. D(C   4,C  11,C   3,H  14)     87.2136         0.000000   
    702. D(C   4,C  11,C   3,C   2)   -104.8902         0.000000   
    703. D(O  12,C  11,C   3,C   8)    -94.4565         0.000000   
    704. D(O  12,C  11,C   3,C   7)   -127.1899         0.000000   
    705. D(O  12,C  11,C   3,C   5)   -105.3168         0.000000   
    706. D(O  12,C  11,C   3,C   4)    -82.7990         0.000000   
    707. D(O  12,C  11,C   3,H  14)      4.4146         0.000000   
    708. D(C  10,C  11,C   4,C   2)    -79.2133         0.000000   
    709. D(O  12,C  11,C   3,C   2)    172.3107         0.000000   
    710. D(C  10,C  11,C   3,C   8)     86.3200         0.000000   
    711. D(C  10,C  11,C   3,C   7)     53.5865         0.000000   
    712. D(O  12,C  11,C   4,H  15)     13.3520         0.000000   
    713. D(C  10,C  11,C   3,C   5)     75.4596         0.000000   
    714. D(C  10,C  11,C   3,C   4)     97.9774         0.000000   
    715. D(C  10,C  11,C   3,H  14)   -174.8090         0.000000   
    716. D(C   5,C  11,C   4,H  15)    126.6619         0.000000   
    717. D(C  10,C  11,C   3,C   2)     -6.9128         0.000000   
    718. D(C   5,C  11,C  10,H  22)   -105.7971         0.000000   
    719. D(C   5,C  11,C  10,C   9)     76.4698         0.000000   
    720. D(C   4,C  11,C  10,H  22)   -113.2467         0.000000   
    721. D(C   4,C  11,C  10,C   9)     69.0202         0.000000   
    722. D(O  12,C  11,C  10,C   5)    111.1862         0.000000   
    723. D(O  12,C  11,C  10,C   9)   -172.3440         0.000000   
    724. D(C   3,C  11,C  10,C   5)    -69.5775         0.000000   
    725. D(C   3,C  11,C  10,H  22)   -175.3747         0.000000   
    726. D(C   3,C  11,C  10,C   9)      6.8922         0.000000   
    727. D(C   4,C  11,C   5,C  10)    164.3584         0.000000   
    728. D(C   4,C  11,C   5,C   3)     45.3078         0.000000   
    729. D(C   4,C  11,C   5,H  16)   -128.0810         0.000000   
    730. D(C   4,C  11,C   5,C   6)    106.1983         0.000000   
    731. D(O  12,C  11,C   5,C  10)   -121.3172         0.000000   
    732. D(O  12,C  11,C   5,C   3)    119.6323         0.000000   
    733. D(O  12,C  11,C   5,H  16)    -53.7565         0.000000   
    734. D(O  12,C  11,C   5,C   6)   -179.4773         0.000000   
    735. D(O  12,C  11,C   5,C   4)     74.3245         0.000000   
    736. D(C  10,C  11,C   5,C   3)   -119.0505         0.000000   
    737. D(C  10,C  11,C   5,H  16)     67.5606         0.000000   
    738. D(C  10,C  11,C   5,C   6)    -58.1601         0.000000   
    739. D(C  10,C  11,C   5,C   4)   -164.3584         0.000000   
    740. D(O  12,C  11,C  10,H  22)      5.3890         0.000000   
    741. D(C   3,C  11,C   5,C  10)    119.0505         0.000000   
    742. D(C   3,C  11,C   5,H  16)   -173.3888         0.000000   
    743. D(C   3,C  11,C   5,C   6)     60.8904         0.000000   
    744. D(C   4,C  11,C  10,C   5)     -7.4496         0.000000   
    745. D(C   3,C  11,C   5,C   4)    -45.3078         0.000000   
    746. D(C   5,C  11,C   4,C   3)   -125.2142         0.000000   
    747. D(C   5,C  11,C   4,C   2)    -95.8134         0.000000   
    -----------------------------------------------------------------

Number of atoms                         .... 23
Number of degrees of freedom            .... 747

         *************************************************************
         *                GEOMETRY OPTIMIZATION CYCLE   1            *
         *************************************************************
---------------------------------
CARTESIAN COORDINATES (ANGSTROEM)
---------------------------------
  O     -2.416339   -1.943058   -0.342883
  C     -1.864006   -0.865061   -0.109433
  C     -0.911071   -0.677079    1.009358
  C     -0.425163    0.570980    1.343133
  C      1.818209    0.506282    0.273884
  C      1.358738    0.543062   -1.032248
  C      0.849740   -0.751112   -1.385196
  C      0.988664   -1.601860   -0.300598
  C      1.875300   -0.930723    0.712154
  C     -2.139429    0.339203   -0.943478
  C     -1.662316    1.565809   -0.614731
  C     -0.831294    1.788020    0.602275
  O     -0.520973    2.925073    0.965887
  H     -0.790076   -1.548149    1.670758
  H      0.110902    0.752649    2.286041
  H      2.282609    1.342044    0.813242
  H      1.313766    1.437632   -1.668015
  H      0.354846   -1.000661   -2.333493
  H      0.706257   -2.663261   -0.278606
  H      2.916664   -1.293537    0.522409
  H      1.665151   -1.135372    1.778261
  H     -2.786653    0.171564   -1.819822
  H     -1.893622    2.467555   -1.203999

----------------------------
CARTESIAN COORDINATES (A.U.)
----------------------------
  NO LB      ZA    FRAG     MASS         X           Y           Z
   0 O     8.0000    0    15.999   -4.566219   -3.671847   -0.647955
   1 C     6.0000    0    12.011   -3.522461   -1.634728   -0.206798
   2 C     6.0000    0    12.011   -1.721675   -1.279494    1.907410
   3 C     6.0000    0    12.011   -0.803442    1.078996    2.538154
   4 C     6.0000    0    12.011    3.435917    0.956734    0.517566
   5 C     6.0000    0    12.011    2.567643    1.026238   -1.950666
   6 C     6.0000    0    12.011    1.605776   -1.419396   -2.617641
   7 C     6.0000    0    12.011    1.868304   -3.027077   -0.568048
   8 C     6.0000    0    12.011    3.543803   -1.758812    1.345776
   9 C     6.0000    0    12.011   -4.042935    0.641001   -1.782915
  10 C     6.0000    0    12.011   -3.141322    2.958950   -1.161673
  11 C     6.0000    0    12.011   -1.570918    3.378868    1.138135
  12 O     8.0000    0    15.999   -0.984496    5.527587    1.825262
  13 H     1.0000    0     1.008   -1.493027   -2.925578    3.157275
  14 H     1.0000    0     1.008    0.209574    1.422300    4.319991
  15 H     1.0000    0     1.008    4.313506    2.536096    1.536805
  16 H     1.0000    0     1.008    2.482658    2.716731   -3.152092
  17 H     1.0000    0     1.008    0.670562   -1.890975   -4.409663
  18 H     1.0000    0     1.008    1.334632   -5.032834   -0.526489
  19 H     1.0000    0     1.008    5.511696   -2.444431    0.987210
  20 H     1.0000    0     1.008    3.146679   -2.145542    3.360426
  21 H     1.0000    0     1.008   -5.266011    0.324209   -3.438965
  22 H     1.0000    0     1.008   -3.578427    4.663003   -2.275228

--------------------------------
INTERNAL COORDINATES (ANGSTROEM)
--------------------------------
 O      0   0   0     0.000000000000     0.00000000     0.00000000
 C      1   0   0     1.233551043694     0.00000000     0.00000000
 C      2   1   0     1.481592267876   122.80472361     0.00000000
 C      3   2   1     1.380276639870   121.58424090   187.54273646
 C      4   3   2     2.486000238453   100.96089627   259.47724780
 C      5   4   3     1.385080203333    96.05877209    69.56421742
 C      6   5   4     1.434760466762   109.00850023   283.86079348
 C      7   6   5     1.385433094337   109.01049775     0.00000000
 C      5   4   3     1.503437177007    86.20199170   321.60873554
 C      2   1   3     1.490550459612   121.15917732   180.76525562
 C     10   2   1     1.356566874140   122.00154979   172.40098231
 C      4   3   2     1.481553011851   121.69179092     0.06992829
 O     12   4   3     1.233451391176   122.74379759   172.31074376
 H      3   2   1     1.100387520342   115.09767387   355.29175605
 H      4   3   2     1.099747610250   121.89043772   167.16385856
 H      5   4   3     1.097757957297    98.66276996   197.12914247
 H      6   5   4     1.098397762185   125.52302972    99.20609144
 H      7   6   5     1.098390629442   125.25091108   175.37499910
 H      8   7   6     1.098548790229   125.67563614   181.34046125
 H      9   5   4     1.118962083413   107.20684705   189.23531414
 H      9   5   4     1.105725079236   116.79201634   308.25900042
 H     10   2   1     1.102261560081   115.49882120   354.66056752
 H     11  10   2     1.101764534724   122.45231384   182.43548534

---------------------------
INTERNAL COORDINATES (A.U.)
---------------------------
 O      0   0   0     0.000000000000     0.00000000     0.00000000
 C      1   0   0     2.331073644794     0.00000000     0.00000000
 C      2   1   0     2.799803628421   122.80472361     0.00000000
 C      3   2   1     2.608344838403   121.58424090   187.54273646
 C      4   3   2     4.697859619539   100.96089627   259.47724780
 C      5   4   3     2.617422257815    96.05877209    69.56421742
 C      6   5   4     2.711304349958   109.00850023   283.86079348
 C      7   6   5     2.618089125168   109.01049775     0.00000000
 C      5   4   3     2.841084524098    86.20199170   321.60873554
 C      2   1   3     2.816732157457   121.15917732   180.76525562
 C     10   2   1     2.563539874474   122.00154979   172.40098231
 C      4   3   2     2.799729445285   121.69179092     0.06992829
 O     12   4   3     2.330885328827   122.74379759   172.31074376
 H      3   2   1     2.079431054632   115.09767387   355.29175605
 H      4   3   2     2.078221799806   121.89043772   167.16385856
 H      5   4   3     2.074461900623    98.66276996   197.12914247
 H      6   5   4     2.075670956642   125.52302972    99.20609144
 H      7   6   5     2.075657477711   125.25091108   175.37499910
 H      8   7   6     2.075956358284   125.67563614   181.34046125
 H      9   5   4     2.114531891893   107.20684705   189.23531414
 H      9   5   4     2.089517579164   116.79201634   308.25900042
 H     10   2   1     2.082972476503   115.49882120   354.66056752
 H     11  10   2     2.082033234696   122.45231384   182.43548534

---------------------
BASIS SET INFORMATION
---------------------
There are 3 groups of distinct atoms

 Group   1 Type O   : 7s4p1d contracted to 3s2p1d pattern {511/31/1}
 Group   2 Type C   : 7s4p1d contracted to 3s2p1d pattern {511/31/1}
 Group   3 Type H   : 4s1p contracted to 2s1p pattern {31/1}

Atom   0O    basis set group =>   1
Atom   1C    basis set group =>   2
Atom   2C    basis set group =>   2
Atom   3C    basis set group =>   2
Atom   4C    basis set group =>   2
Atom   5C    basis set group =>   2
Atom   6C    basis set group =>   2
Atom   7C    basis set group =>   2
Atom   8C    basis set group =>   2
Atom   9C    basis set group =>   2
Atom  10C    basis set group =>   2
Atom  11C    basis set group =>   2
Atom  12O    basis set group =>   1
Atom  13H    basis set group =>   3
Atom  14H    basis set group =>   3
Atom  15H    basis set group =>   3
Atom  16H    basis set group =>   3
Atom  17H    basis set group =>   3
Atom  18H    basis set group =>   3
Atom  19H    basis set group =>   3
Atom  20H    basis set group =>   3
Atom  21H    basis set group =>   3
Atom  22H    basis set group =>   3
-------------------------------
AUXILIARY BASIS SET INFORMATION
-------------------------------
There are 3 groups of distinct atoms

 Group   1 Type O   : 12s5p4d2f1g contracted to 6s4p3d1f1g pattern {711111/2111/211/2/1}
 Group   2 Type C   : 12s5p4d2f1g contracted to 6s4p3d1f1g pattern {711111/2111/211/2/1}
 Group   3 Type H   : 5s2p1d contracted to 3s1p1d pattern {311/2/1}

Atom   0O    basis set group =>   1
Atom   1C    basis set group =>   2
Atom   2C    basis set group =>   2
Atom   3C    basis set group =>   2
Atom   4C    basis set group =>   2
Atom   5C    basis set group =>   2
Atom   6C    basis set group =>   2
Atom   7C    basis set group =>   2
Atom   8C    basis set group =>   2
Atom   9C    basis set group =>   2
Atom  10C    basis set group =>   2
Atom  11C    basis set group =>   2
Atom  12O    basis set group =>   1
Atom  13H    basis set group =>   3
Atom  14H    basis set group =>   3
Atom  15H    basis set group =>   3
Atom  16H    basis set group =>   3
Atom  17H    basis set group =>   3
Atom  18H    basis set group =>   3
Atom  19H    basis set group =>   3
Atom  20H    basis set group =>   3
Atom  21H    basis set group =>   3
Atom  22H    basis set group =>   3


           ************************************************************
           *        Program running with 8 parallel MPI-processes     *
           *              working on a common directory               *
           ************************************************************
------------------------------------------------------------------------------
                           ORCA GTO INTEGRAL CALCULATION
                           -- RI-GTO INTEGRALS CHOSEN --
------------------------------------------------------------------------------

                         BASIS SET STATISTICS AND STARTUP INFO

Gaussian basis set:
 # of primitive gaussian shells          ...  206
 # of primitive gaussian functions       ...  382
 # of contracted shells                  ...  108
 # of contracted basis functions         ...  232
 Highest angular momentum                ...    2
 Maximum contraction depth               ...    5
Auxiliary gaussian basis set:
 # of primitive gaussian shells          ...  392
 # of primitive gaussian functions       ... 1070
 # of contracted shells                  ...  245
 # of contracted aux-basis functions     ...  747
 Highest angular momentum                ...    4
 Maximum contraction depth               ...    7
Ratio of auxiliary to basis functions    ...  3.22
Integral package used                  ... LIBINT
 One Electron integrals                  ... done
 Ordering auxiliary basis shells         ... done
 Integral threshhold             Thresh  ...  2.500e-11
 Primitive cut-off               TCut    ...  2.500e-12
 Pre-screening matrix                    ... done
 Shell pair data                         ... 
 Ordering of the shell pairs             ... done (   0.001 sec) 5488 of 5886 pairs
 Determination of significant pairs      ... done (   0.000 sec)
 Creation of shell pair data             ... done (   0.001 sec)
 Storage of shell pair data              ... done (   0.012 sec)
 Shell pair data done in (   0.014 sec)
 Computing two index integrals           ... done
 Cholesky decomposition of the V-matrix  ... done


Timings:
 Total evaluation time                   ...   0.216 sec (  0.004 min)
 One electron matrix time                ...   0.029 sec (  0.000 min) = 13.3%
 Schwartz matrix evaluation time         ...   0.128 sec (  0.002 min) = 59.3%
 Two index repulsion integral time       ...   0.010 sec (  0.000 min) =  4.5%
 Cholesky decomposition of V             ...   0.010 sec (  0.000 min) =  4.6%
 Three index repulsion integral time     ...   0.000 sec (  0.000 min) =  0.0%



           ************************************************************
           *        Program running with 8 parallel MPI-processes     *
           *              working on a common directory               *
           ************************************************************
-------------------------------------------------------------------------------
                                 ORCA SCF
-------------------------------------------------------------------------------

------------
SCF SETTINGS
------------
Hamiltonian:
 Density Functional     Method          .... DFT(GTOs)
 Exchange Functional    Exchange        .... PBE
   PBE kappa parameter   XKappa         ....  0.804000
   PBE mue parameter    XMuePBE         ....  0.219520
 Correlation Functional Correlation     .... PBE
   PBE beta parameter  CBetaPBE         ....  0.066725
 LDA part of GGA corr.  LDAOpt          .... PW91-LDA
 Gradients option       PostSCFGGA      .... off
 Hybrid DFT is turned on
   Fraction HF Exchange ScalHFX         ....  0.250000
   Scaling of DF-GGA-X  ScalDFX         ....  0.750000
   Scaling of DF-GGA-C  ScalDFC         ....  1.000000
   Scaling of DF-LDA-C  ScalLDAC        ....  1.000000
   Perturbative correction              ....  0.000000
   Density functional embedding theory  .... OFF
   NL short-range parameter             ....  6.900000
 RI-approximation to the Coulomb term is turned on
   Number of auxiliary basis functions  .... 747
   RIJ-COSX (HFX calculated with COS-X)).... on


General Settings:
 Integral files         IntName         .... get_orca_ts_guess_2dTS_orca_opt
 Hartree-Fock type      HFTyp           .... RHF
 Total Charge           Charge          ....    0
 Multiplicity           Mult            ....    1
 Number of Electrons    NEL             ....   92
 Basis Dimension        Dim             ....  232
 Nuclear Repulsion      ENuc            ....    770.0108185917 Eh

Convergence Acceleration:
 DIIS                   CNVDIIS         .... on
   Start iteration      DIISMaxIt       ....    12
   Startup error        DIISStart       ....  0.200000
   # of expansion vecs  DIISMaxEq       ....     5
   Bias factor          DIISBfac        ....   1.050
   Max. coefficient     DIISMaxC        ....  10.000
 Newton-Raphson         CNVNR           .... off
 SOSCF                  CNVSOSCF        .... on
   Start iteration      SOSCFMaxIt      ....   150
   Startup grad/error   SOSCFStart      ....  0.003300
 Level Shifting         CNVShift        .... on
   Level shift para.    LevelShift      ....    0.2500
   Turn off err/grad.   ShiftErr        ....    0.0010
 Zerner damping         CNVZerner       .... off
 Static damping         CNVDamp         .... on
   Fraction old density DampFac         ....    0.7000
   Max. Damping (<1)    DampMax         ....    0.9800
   Min. Damping (>=0)   DampMin         ....    0.0000
   Turn off err/grad.   DampErr         ....    0.1000
 Fernandez-Rico         CNVRico         .... off

SCF Procedure:
 Maximum # iterations   MaxIter         ....   250
 SCF integral mode      SCFMode         .... Direct
   Integral package                     .... LIBINT
 Reset frequency        DirectResetFreq ....    20
 Integral Threshold     Thresh          ....  2.500e-11 Eh
 Primitive CutOff       TCut            ....  2.500e-12 Eh

Convergence Tolerance:
 Convergence Check Mode ConvCheckMode   .... Total+1el-Energy
 Convergence forced     ConvForced      .... 0
 Energy Change          TolE            ....  1.000e-08 Eh
 1-El. energy change                    ....  1.000e-05 Eh
 Orbital Gradient       TolG            ....  1.000e-05
 Orbital Rotation angle TolX            ....  1.000e-05
 DIIS Error             TolErr          ....  5.000e-07


Diagonalization of the overlap matrix:
Smallest eigenvalue                        ... 2.621e-04
Time for diagonalization                   ...    0.007 sec
Threshold for overlap eigenvalues          ... 1.000e-08
Number of eigenvalues below threshold      ... 0
Time for construction of square roots      ...    0.006 sec
Total time needed                          ...    0.014 sec

-------------------
DFT GRID GENERATION
-------------------

General Integration Accuracy     IntAcc      ...  4.340
Radial Grid Type                 RadialGrid  ... Gauss-Chebyshev
Angular Grid (max. acc.)         AngularGrid ... Lebedev-110
Angular grid pruning method      GridPruning ... 3 (G Style)
Weight generation scheme         WeightScheme... Becke
Basis function cutoff            BFCut       ...    1.0000e-11
Integration weight cutoff        WCut        ...    1.0000e-14
Grids for H and He will be reduced by one unit

# of grid points (after initial pruning)     ...  29588 (   0.0 sec)
# of grid points (after weights+screening)   ...  26670 (   0.0 sec)
nearest neighbour list constructed           ...    0.0 sec
Grid point re-assignment to atoms done       ...    0.0 sec
Grid point division into batches done        ...    0.0 sec
Reduced shell lists constructed in    0.1 sec

Total number of grid points                  ...    26670
Total number of batches                      ...      429
Average number of points per batch           ...       62
Average number of grid points per atom       ...     1160
Average number of shells per batch           ...    73.09 (67.68%)
Average number of basis functions per batch  ...   153.60 (66.21%)
Average number of large shells per batch     ...    54.42 (74.45%)
Average number of large basis fcns per batch ...   111.65 (72.69%)
Maximum spatial batch extension              ...  14.81, 15.98, 17.60 au
Average spatial batch extension              ...   0.41,  0.39,  0.40 au

Time for grid setup =    0.095 sec

------------------------------
INITIAL GUESS: MODEL POTENTIAL
------------------------------
Loading Hartree-Fock densities                     ... done
Calculating cut-offs                               ... done
Setting up the integral package                    ... done
Initializing the effective Hamiltonian             ... done
Starting the Coulomb interaction                   ... done (   0.0 sec)
Reading the grid                                   ... done
Mapping shells                                     ... done
Starting the XC term evaluation                    ... done (   0.1 sec)
  promolecular density results
     # of electrons  =     91.989957756
     EX              =    -75.378949030
     EC              =     -3.060454223
     EX+EC           =    -78.439403253
Transforming the Hamiltonian                       ... done (   0.0 sec)
Diagonalizing the Hamiltonian                      ... done (   0.0 sec)
Back transforming the eigenvectors                 ... done (   0.0 sec)
Now organizing SCF variables                       ... done
                      ------------------
                      INITIAL GUESS DONE (   0.3 sec)
                      ------------------
--------------------
COSX GRID GENERATION
--------------------

General Integration Accuracy     IntAcc      ...  3.340
Radial Grid Type                 RadialGrid  ... Gauss-Chebyshev
Angular Grid (max. acc.)         AngularGrid ... Lebedev-50
Angular grid pruning method      GridPruning ... 3 (G Style)
Weight generation scheme         WeightScheme... Becke
Basis function cutoff            BFCut       ...    1.0000e-11
Integration weight cutoff        WCut        ...    1.0000e-14
Grids for H and He will be reduced by one unit

# of grid points (after initial pruning)     ...  10740 (   0.0 sec)
# of grid points (after weights+screening)   ...   9772 (   0.0 sec)
nearest neighbour list constructed           ...    0.0 sec
Grid point re-assignment to atoms done       ...    0.0 sec
Grid point division into batches done        ...    0.0 sec
Reduced shell lists constructed in    0.0 sec

Total number of grid points                  ...     9772
Total number of batches                      ...      165
Average number of points per batch           ...       59
Average number of grid points per atom       ...      425
Average number of shells per batch           ...    77.64 (71.89%)
Average number of basis functions per batch  ...   165.09 (71.16%)
Average number of large shells per batch     ...    59.09 (76.11%)
[...]
      5      -0.000167   0.000824  -0.000597   0.001397  -0.000594  -0.000071
      6       0.000251  -0.004608   0.000545  -0.001173  -0.000468  -0.000179
      7      -0.002194   0.053205  -0.008371   0.039701   0.005780   0.002781
      8       0.001664  -0.045890   0.006871  -0.029617  -0.004574  -0.002363
      9       0.001233   0.019956  -0.002376  -0.031406  -0.004045   0.000482
     10       0.000440   0.005058  -0.000700  -0.013755  -0.001462   0.000054
     11       0.002206   0.042302  -0.004984  -0.064151  -0.008030   0.000856
     12       0.002254  -0.000971   0.000237   0.001052   0.000078   0.009651
     13       0.000792  -0.001495   0.000274   0.002406   0.000245   0.017500
     14       0.002024  -0.000618   0.000088   0.002164   0.000227   0.010386
     15      -0.000009  -0.000097   0.000049  -0.000282  -0.000023   0.000343
     16      -0.000609   0.000320  -0.000218  -0.000989   0.000177  -0.025312
     17      -0.000077  -0.000421   0.000213  -0.000017  -0.000181   0.020132
     18       0.000410   0.000415  -0.000226   0.000425  -0.000085  -0.022677
     19       0.000448   0.000308  -0.000125   0.000848  -0.000005  -0.014409
     20       0.000202   0.000709  -0.000381   0.000398  -0.000206  -0.045627
     21       0.000747  -0.000957   0.000160  -0.001213  -0.000174   0.014377
     22      -0.003107  -0.003602   0.000793  -0.003148  -0.000441   0.051973
     23       0.001111   0.000056   0.000005   0.000801   0.000089  -0.000504
     24       0.026512   0.000288  -0.000057   0.000912   0.000046  -0.000898
     25       0.011070   0.000216  -0.000030   0.000391   0.000059  -0.001011
     26      -0.083942  -0.000632   0.000138  -0.002893  -0.000283  -0.002134
     27       0.000070   0.004966   0.038345  -0.004086   0.036369  -0.000250
     28       0.000066   0.000580   0.007525  -0.002009   0.014029  -0.000045
     29       0.000126   0.006591   0.050405  -0.005137   0.046148  -0.000294
     30      -0.000008  -0.002252  -0.014369  -0.001718   0.013162   0.000075
     31      -0.000141   0.006703   0.044133   0.008669  -0.059083  -0.000230
     32       0.000070  -0.004577  -0.029512  -0.004328   0.031241   0.000162
     33       0.000085  -0.000124   0.000694   0.000476  -0.001317  -0.000049
     34       0.000213   0.001120   0.000694  -0.002552  -0.001979  -0.000130
     35      -0.000055   0.000235   0.000915   0.000615  -0.002035   0.000043
     36      -0.000019  -0.000018  -0.000081   0.000057   0.000276   0.000029
     37      -0.000054  -0.000191  -0.000243   0.000602   0.000830   0.000043
     38       0.000008  -0.000120  -0.000109   0.000066   0.000432  -0.000002
     39      -0.002602   0.045462  -0.006659   0.029185   0.004752   0.001485
     40       0.022194  -0.618722   0.094003  -0.417865  -0.061729  -0.032152
     41      -0.017552   0.529237  -0.079985   0.353699   0.052536   0.027688
     42      -0.012304  -0.233630   0.027222   0.346567   0.043165  -0.004690
     43      -0.004096  -0.080564   0.009587   0.123861   0.014963  -0.001786
     44      -0.022429  -0.494831   0.057530   0.731612   0.090731  -0.010009
     45      -0.019392   0.008552  -0.001930  -0.014576  -0.001209  -0.118673
     46      -0.027574   0.015221  -0.003195  -0.026765  -0.002462  -0.204428
     47      -0.018526   0.009429  -0.001993  -0.016676  -0.001541  -0.124750
     48      -0.000463   0.000113  -0.000259   0.000049   0.000264  -0.000319
     49       0.001452  -0.005809   0.003288   0.007023  -0.002324   0.307183
     50      -0.000468   0.004333  -0.002299  -0.005187   0.001742  -0.231946
     51      -0.001349  -0.004936   0.002787  -0.003374   0.001226   0.264604
     52      -0.000515  -0.002892   0.001358  -0.002147   0.000440   0.157599
     53      -0.001207  -0.009843   0.004924  -0.006927   0.002100   0.537878
     54       0.007747   0.010513  -0.002293   0.009678   0.001368  -0.155978
     55       0.041117   0.038584  -0.008870   0.034492   0.004661  -0.601817
     56      -0.001761  -0.000996   0.000216  -0.001038  -0.000158   0.012258
     57      -0.188000  -0.001431   0.000322  -0.004356   0.000171   0.002097
     58       0.066800   0.000100  -0.000007   0.001240  -0.000084   0.000801
     59       0.035143   0.000434  -0.000098   0.002194   0.000049   0.000211
     60      -0.157862  -0.000800   0.000180  -0.004658  -0.000503  -0.001432
     61      -0.180913  -0.000770   0.000209  -0.007007  -0.000674  -0.001171
     62       0.942699   0.007877  -0.001679   0.033415   0.003297   0.017718
     63      -0.000628  -0.059194  -0.448224   0.043987  -0.392909   0.002991
     64      -0.000280  -0.012349  -0.097881   0.010460  -0.088987   0.000552
     65      -0.000650  -0.076888  -0.585209   0.057223  -0.510985   0.003907
     66      -0.000211   0.024751   0.158596   0.025675  -0.179913  -0.000849
     67       0.000891  -0.081788  -0.532129  -0.089109   0.611821   0.002850
     68      -0.000334   0.051440   0.334524   0.055041  -0.380113  -0.001906
                  66         67         68    
      0       0.000020   0.000025  -0.000034
      1       0.000086   0.000092  -0.000041
      2       0.000026   0.000054  -0.000046
      3      -0.000057  -0.000066   0.000104
      4      -0.000205  -0.000137   0.000054
      5      -0.000085  -0.000133   0.000166
      6      -0.000042   0.000108   0.000005
      7      -0.001823  -0.000962   0.000308
      8       0.001664   0.001101  -0.000569
      9       0.001115  -0.000452  -0.000200
     10       0.000538  -0.000074   0.000072
     11       0.002702  -0.001132  -0.000933
     12       0.025035  -0.021067  -0.018430
     13       0.044752  -0.035918  -0.030676
     14       0.026299  -0.024684  -0.023391
     15      -0.001003   0.001651  -0.000906
     16      -0.037495  -0.013751  -0.054128
     17       0.025445   0.016220   0.040626
     18       0.003420  -0.022573   0.019411
     19       0.004798  -0.011338   0.013990
     20       0.004021  -0.050101   0.039159
     21      -0.012315  -0.011779   0.005371
     22      -0.045925  -0.046325   0.021201
     23       0.001340   0.004855  -0.002815
     24       0.001018   0.001095  -0.001120
     25      -0.001870   0.002290   0.001860
     26       0.005158   0.000777  -0.003068
     27       0.000085  -0.000091   0.000135
     28       0.000025   0.000001   0.000043
     29       0.000045  -0.000077   0.000146
     30       0.000084  -0.000006   0.000073
     31      -0.000198   0.000082  -0.000202
     32       0.000087  -0.000043   0.000103
     33       0.000064  -0.000069  -0.000015
     34       0.000100  -0.000083  -0.000221
     35       0.000065  -0.000019   0.000120
     36      -0.000016   0.000032   0.000022
     37      -0.000040   0.000057   0.000101
     38      -0.000024   0.000012  -0.000012
     39      -0.000492   0.000175   0.000127
     40       0.022194   0.013416  -0.005441
     41      -0.019752  -0.012190   0.004773
     42      -0.013803   0.005289   0.004039
     43      -0.005531   0.002561   0.001888
     44      -0.031917   0.014487   0.010569
     45      -0.291495   0.240256   0.198065
     46      -0.499544   0.411075   0.338766
     47      -0.305616   0.254166   0.211821
     48       0.000238  -0.001580   0.000266
     49       0.421422   0.183788   0.574739
     50      -0.313178  -0.142531  -0.431176
     51      -0.032318   0.260668  -0.202917
     52      -0.021409   0.152672  -0.122241
     53      -0.061808   0.532846  -0.412621
     54       0.131725   0.130007  -0.055188
     55       0.510934   0.503452  -0.213202
     56      -0.011501  -0.014068   0.006906
     57      -0.006175  -0.001362   0.008221
     58       0.002661  -0.000615  -0.003182
     59       0.000775  -0.000050  -0.001336
     60       0.006690  -0.001168  -0.002647
     61       0.010590  -0.002508  -0.006155
     62      -0.049749  -0.001165   0.025246
     63      -0.000900   0.001071  -0.001641
     64      -0.000164   0.000187  -0.000272
     65      -0.000977   0.001270  -0.002027
     66      -0.000904   0.000226  -0.000880
     67       0.002590  -0.000761   0.002508
     68      -0.001592   0.000506  -0.001573


-----------
IR SPECTRUM
-----------

 Mode    freq (cm**-1)   T**2         TX         TY         TZ
-------------------------------------------------------------------
   7:        83.32    0.374765  (  0.023242   0.539586   0.288220)
   8:       104.26   11.194166  ( -2.633010   0.365995   2.031619)
   9:       133.03    0.106381  ( -0.249367  -0.210231   0.000545)
  10:       140.90    0.077865  (  0.184105   0.125481  -0.168003)
  11:       210.82    6.170092  (  0.710144   2.288556   0.654446)
  12:       271.86    0.473383  (  0.225651   0.568351   0.315345)
  13:       277.70    1.896591  ( -0.613913   0.654657  -1.044570)
  14:       411.95   16.077030  ( -2.790254   1.897666  -2.165727)
  15:       440.18    3.906853  (  0.903925   1.555210   0.819203)
  16:       456.96    1.568044  ( -0.900597   0.043719   0.868940)
  17:       473.06    6.226940  (  1.783070  -0.933121   1.475428)
  18:       474.55    1.020696  ( -0.036281  -1.008387   0.050357)
  19:       570.00    0.618175  ( -0.227837  -0.724779  -0.202387)
  20:       583.73    0.296873  ( -0.191169   0.094414  -0.501411)
  21:       632.86    0.498922  ( -0.213523  -0.645868  -0.190222)
  22:       760.42   24.553811  (  4.620338  -1.433176  -1.073452)
  23:       782.52   10.762110  ( -2.470789   0.033496   2.157820)
  24:       783.74    2.464079  ( -0.611100   1.079839   0.961552)
  25:       798.99    1.780418  ( -0.443700  -1.196723  -0.389104)
  26:       806.02    5.198425  ( -2.133549  -0.118305   0.795233)
  27:       808.30    7.470082  ( -1.998740   1.302535   1.333613)
  28:       838.79   17.374876  (  3.749197  -1.187779  -1.381151)
  29:       849.37    4.032326  (  0.113836  -1.873606  -0.713420)
  30:       885.33   41.692121  ( -5.899912   1.376738   2.233326)
  31:       912.07   13.363676  (  1.826204   0.119763  -3.164539)
  32:       931.27    4.469034  ( -0.574238  -1.924030  -0.661357)
  33:       979.28    5.143402  ( -0.684970  -1.803985  -1.191578)
  34:       980.27    1.775363  (  0.672464   1.120760  -0.258946)
  35:       984.08   12.107043  (  1.338231   1.768810   2.680950)
  36:       987.58   13.953740  ( -0.285736  -2.975123   2.240700)
  37:      1007.59    0.247317  ( -0.093516  -0.373523   0.314726)
  38:      1040.07    0.331806  ( -0.202243  -0.522681  -0.133072)
  39:      1069.85   23.865190  (  3.580026  -2.117393   2.562274)
  40:      1080.96    0.743176  ( -0.798336  -0.121094  -0.301948)
  41:      1086.43   12.483220  ( -3.205923   1.450655  -0.317615)
  42:      1115.33    1.677007  (  0.610813   1.107999   0.276140)
  43:      1134.30   10.102358  (  2.711446  -1.361607   0.946808)
  44:      1140.06    3.836235  ( -0.667206  -0.192991   1.831345)
  45:      1233.20    0.060539  ( -0.132023  -0.153426  -0.139892)
  46:      1277.71    1.023784  (  0.379982   0.906212   0.241201)
  47:      1326.05    5.973505  ( -1.145591  -2.055929  -0.659001)
  48:      1329.18  136.373951  (-10.113093   4.924256  -3.138631)
  49:      1364.29    4.276710  ( -0.759022  -1.847169  -0.537179)
  50:      1414.46    0.254076  ( -0.085753  -0.496533  -0.013293)
  51:      1422.37   40.557895  (  5.247815  -2.630365   2.469720)
  52:      1429.05   11.846156  ( -2.953306   0.641050   1.647178)
  53:      1477.06   15.111641  (  3.056233  -1.620787   1.773169)
  54:      1537.53   14.725533  (  1.202463   3.537125   0.876563)
  55:      1544.07    6.764781  (  2.356199  -1.007079   0.445983)
  56:      1699.81   22.757514  (  3.946219  -2.119462   1.640960)
  57:      1805.00  426.945721  ( -4.752092 -19.164266  -6.090505)
  58:      1808.71  103.441071  ( -9.635152  -2.647669   1.895986)
  59:      3032.57    4.297496  ( -1.936523   0.715841   0.186941)
  60:      3162.02    7.391149  ( -0.586080   0.923186  -2.489054)
  61:      3201.41    0.998326  (  0.266213   0.938077   0.217873)
  62:      3204.96    0.697490  (  0.374973   0.696090   0.268969)
  63:      3215.80    0.678635  ( -0.619754   0.205205  -0.502426)
  64:      3223.71    2.184953  (  1.131713  -0.706093   0.636876)
  65:      3230.31    0.022555  ( -0.100392  -0.056622  -0.096284)
  66:      3239.02    0.104632  (  0.015842  -0.112846   0.302733)
  67:      3247.04    0.050264  ( -0.091219  -0.147633  -0.141943)
  68:      3258.36    0.190475  ( -0.060793  -0.195308   0.385531)

The first frequency considered to be a vibration is 7
The total number of vibrations considered is 62


--------------------------
THERMOCHEMISTRY AT 298.15K
--------------------------

Temperature         ... 298.15 K
Pressure            ... 1.00 atm
Total Mass          ... 174.20 AMU

Throughout the following assumptions are being made:
  (1) The electronic state is orbitally nondegenerate
  (2) There are no thermally accessible electronically excited states
  (3) Hindered rotations indicated by low frequency modes are not
      treated as such but are treated as vibrations and this may
      cause some error
  (4) All equations used are the standard statistical mechanics
      equations for an ideal gas
  (5) All vibrations are strictly harmonic

freq.      83.32  E(vib)   ...       0.48 
freq.     104.26  E(vib)   ...       0.46 
freq.     133.03  E(vib)   ...       0.42 
freq.     140.90  E(vib)   ...       0.41 
freq.     210.82  E(vib)   ...       0.34 
freq.     271.86  E(vib)   ...       0.29 
freq.     277.70  E(vib)   ...       0.28 
freq.     411.95  E(vib)   ...       0.19 
freq.     440.18  E(vib)   ...       0.17 
freq.     456.96  E(vib)   ...       0.16 
freq.     473.06  E(vib)   ...       0.15 
freq.     474.55  E(vib)   ...       0.15 
freq.     570.00  E(vib)   ...       0.11 
freq.     583.73  E(vib)   ...       0.11 
freq.     632.86  E(vib)   ...       0.09 
freq.     760.42  E(vib)   ...       0.06 
freq.     782.52  E(vib)   ...       0.05 
freq.     783.74  E(vib)   ...       0.05 
freq.     798.99  E(vib)   ...       0.05 
freq.     806.02  E(vib)   ...       0.05 
freq.     808.30  E(vib)   ...       0.05 
freq.     838.79  E(vib)   ...       0.04 
freq.     849.37  E(vib)   ...       0.04 
freq.     885.33  E(vib)   ...       0.04 
freq.     912.07  E(vib)   ...       0.03 
freq.     931.27  E(vib)   ...       0.03 
freq.     979.28  E(vib)   ...       0.03 
freq.     980.27  E(vib)   ...       0.02 
freq.     984.08  E(vib)   ...       0.02 
freq.     987.58  E(vib)   ...       0.02 
freq.    1007.59  E(vib)   ...       0.02 
freq.    1040.07  E(vib)   ...       0.02 
freq.    1069.85  E(vib)   ...       0.02 
freq.    1080.96  E(vib)   ...       0.02 
freq.    1086.43  E(vib)   ...       0.02 
freq.    1115.33  E(vib)   ...       0.01 
freq.    1134.30  E(vib)   ...       0.01 
freq.    1140.06  E(vib)   ...       0.01 
freq.    1233.20  E(vib)   ...       0.01 
freq.    1277.71  E(vib)   ...       0.01 
freq.    1326.05  E(vib)   ...       0.01 
freq.    1329.18  E(vib)   ...       0.01 
freq.    1364.29  E(vib)   ...       0.01 
freq.    1414.46  E(vib)   ...       0.00 
freq.    1422.37  E(vib)   ...       0.00 
freq.    1429.05  E(vib)   ...       0.00 
freq.    1477.06  E(vib)   ...       0.00 
freq.    1537.53  E(vib)   ...       0.00 
freq.    1544.07  E(vib)   ...       0.00 
freq.    1699.81  E(vib)   ...       0.00 
freq.    1805.00  E(vib)   ...       0.00 
freq.    1808.71  E(vib)   ...       0.00 
freq.    3032.57  E(vib)   ...       0.00 
freq.    3162.02  E(vib)   ...       0.00 
freq.    3201.41  E(vib)   ...       0.00 
freq.    3204.96  E(vib)   ...       0.00 
freq.    3215.80  E(vib)   ...       0.00 
freq.    3223.71  E(vib)   ...       0.00 
freq.    3230.31  E(vib)   ...       0.00 
freq.    3239.02  E(vib)   ...       0.00 
freq.    3247.04  E(vib)   ...       0.00 
freq.    3258.36  E(vib)   ...       0.00 

------------
INNER ENERGY
------------

The inner energy is: U= E(el) + E(ZPE) + E(vib) + E(rot) + E(trans)
    E(el)   - is the total energy from the electronic structure calculation
              = E(kin-el) + E(nuc-el) + E(el-el) + E(nuc-nuc)
    E(ZPE)  - the the zero temperature vibrational energy from the frequency calculation
    E(vib)  - the the finite temperature correction to E(ZPE) due to population
              of excited vibrational states
    E(rot)  - is the rotational thermal energy
    E(trans)- is the translational thermal energy

Summary of contributions to the inner energy U:
Electronic energy                ...   -574.48620343 Eh
Zero point energy                ...      0.18159609 Eh     113.95 kcal/mol
Thermal vibrational correction   ...      0.00732729 Eh       4.60 kcal/mol
Thermal rotational correction    ...      0.00141627 Eh       0.89 kcal/mol
Thermal translational correction ...      0.00141627 Eh       0.89 kcal/mol
-----------------------------------------------------------------------
Total thermal energy                   -574.29444751 Eh


Summary of corrections to the electronic energy:
(perhaps to be used in another calculation)
Total thermal correction                  0.01015983 Eh       6.38 kcal/mol
Non-thermal (ZPE) correction              0.18159609 Eh     113.95 kcal/mol
-----------------------------------------------------------------------
Total correction                          0.19175592 Eh     120.33 kcal/mol


--------
ENTHALPY
--------

The enthalpy is H = U + kB*T
                kB is Boltzmann's constant
Total free energy                 ...   -574.29444751 Eh 
Thermal Enthalpy correction       ...      0.00094421 Eh       0.59 kcal/mol
-----------------------------------------------------------------------
Total Enthalpy                    ...   -574.29350330 Eh


Note: Rotational entropy computed according to Herzberg 
Infrared and Raman Spectra, Chapter V,1, Van Nostrand Reinhold, 1945 
Point Group:  C1, Symmetry Number:   1  
Rotational constants in cm-1:     0.034930     0.033917     0.022728 

Vibrational entropy computed according to the QRRHO of S. Grimme
Chem.Eur.J. 2012 18 9955


-------
ENTROPY
-------

The entropy contributions are T*S = T*(S(el)+S(vib)+S(rot)+S(trans))
     S(el)   - electronic entropy
     S(vib)  - vibrational entropy
     S(rot)  - rotational entropy
     S(trans)- translational entropy
The entropies will be listed as mutliplied by the temperature to get
units of energy

Electronic entropy                ...      0.00000000 Eh      0.00 kcal/mol
Vibrational entropy               ...      0.01222447 Eh      7.67 kcal/mol
Rotational entropy                ...      0.01447832 Eh      9.09 kcal/mol
Translational entropy             ...      0.01965731 Eh     12.34 kcal/mol
-----------------------------------------------------------------------
Final entropy term                ...      0.04636010 Eh     29.09 kcal/mol


-------------------
GIBBS FREE ENTHALPY
-------------------

The Gibbs free enthalpy is G = H - T*S

Total enthalpy                    ...   -574.29350330 Eh 
Total entropy correction          ...     -0.04636010 Eh    -29.09 kcal/mol
-----------------------------------------------------------------------
Final Gibbs free enthalpy         ...   -574.33986341 Eh

For completeness - the Gibbs free enthalpy minus the electronic energy
G-E(el)                           ...      0.14634003 Eh     91.83 kcal/mol


Timings for individual modules:

Sum of individual times         ...      538.818 sec (=   8.980 min)
GTO integral calculation        ...       12.084 sec (=   0.201 min)   2.2 %
SCF iterations                  ...      185.196 sec (=   3.087 min)  34.4 %
SCF Gradient evaluation         ...       48.909 sec (=   0.815 min)   9.1 %
Geometry relaxation             ...        6.074 sec (=   0.101 min)   1.1 %
Analytical frequency calculation...      286.556 sec (=   4.776 min)  53.2 %
                             ****ORCA TERMINATED NORMALLY****
TOTAL RUN TIME: 0 days 0 hours 9 minutes 4 seconds 424 msec
