      -----------------------------------------------------------      
     |                   =====================                   |     
     |                           x T B                           |     
     |                   =====================                   |     
     |                         S. Grimme                         |     
     |          Mulliken Center for Theoretical Chemistry        |     
     |                    University of Bonn                     |     
      -----------------------------------------------------------      

   * xtb version 6.2.3 (830e466) compiled by 'ehlert@majestix' on 2020-03-16

   xtb is free software: you can redistribute it and/or modify it under
   the terms of the GNU Lesser General Public License as published by
   the Free Software Foundation, either version 3 of the License, or
   (at your option) any later version.
   
   xtb is distributed in the hope that it will be useful,
   but WITHOUT ANY WARRANTY; without even the implied warranty of
   MERCHANTABILITY or FITNESS FOR A PARTICULAR PURPOSE.  See the
   GNU Lesser General Public License for more details.
   
   Cite this work as:
   * S. Grimme, C. Bannwarth, P. Shushkov, J. Chem. Theory Comput., 2017,
     13, 1989-2009. DOI: 10.1021/acs.jctc.7b00118
   * C. Bannwarth, S. Ehlert and S. Grimme., J. Chem. Theory Comput., 2019,
     15, 1652-1671. DOI: 10.1021/acs.jctc.8b01176
   * P. Pracht, E. Caldeweyher, S. Ehlert, S. Grimme, ChemRxiv, 2019, preprint.
     DOI: 10.26434/chemrxiv.8326202.v1
   
   for DFT-D4:
   * E. Caldeweyher, C. Bannwarth and S. Grimme, J. Chem. Phys., 2017,
     147, 034112. DOI: 10.1063/1.4993215
   * E. Caldeweyher, S. Ehlert, A. Hansen, H. Neugebauer, S. Spicher,
     C. Bannwarth and S. Grimme, J. Chem. Phys., 2019, 150, 154122.
     DOI: 10.1063/1.5090222
   
   for sTDA-xTB:
   * S. Grimme and C. Bannwarth, J. Chem. Phys., 2016, 145, 054103.
     DOI: 10.1063/1.4959605
   
   in the mass-spec context:
   * V. Asgeirsson, C. Bauer and S. Grimme, Chem. Sci., 2017, 8, 4879.
     DOI: 10.1039/c7sc00601b
   
   for metadynamics refer to:
   * S. Grimme, J. Chem. Theory Comput., 2019, 155, 2847-2862
     DOI: 10.1021/acs.jctc.9b00143
   
   with help from (in alphabetical order)
   C. Bannwarth, F. Bohle, G. Brandenburg, E. Caldeweyher, M. Checinski,
   S. Dohm, S. Ehlert, S. Ehrlich, F. März, H. Neugebauer, J. Pisarek,
   P. Pracht, P. Shushkov, and S. Spicher.
   
 * started run on 2020/06/13 at 00:44:57.250     

           -------------------------------------------------
          |                Calculation Setup                |
           -------------------------------------------------

          program call               : /home/tom/.local/bin/xtb propane_conf0_opt_xtb.xyz --chrg 0 --opt
          coordinate file            : propane_conf0_opt_xtb.xyz
          omp threads                :                     4
          number of atoms            :                    11
          number of electrons        :                    20
          charge                     :                     0
          spin                       :                   0.0
          first test random number   :      0.11950661901294

########################################################################
[WARNING] Please study the warnings concerning your input carefully
-2- prog_main: XTBPATH is not set, using XTBHOME instead
-1- prog_main: XTBHOME is not set, using HOME instead
########################################################################
           ------------------------------------------------- 
          |                 G F N 2 - x T B                 |
          | Geometry, Frequencies, Noncovalent interactions |
          |            JCTC 2019 parametrisation            |
           ------------------------------------------------- 
             k(s)              :                1.8500
             k(p)              :                2.2300
             k(d)              :                2.2300
             k(f)              :                2.0000
             kEN (H0ij)        :               -2.0000
             D4 a1             :                0.5200
             D4 a2             :                5.0000
             D4 s6             :                1.0000
             D4 s8             :                2.7000
             D4 s9             :                5.0000
             alphaj            :                2.0000

  Z AO/shell   Hii/eV     exponent
  1     Wed Apr 25 08:07:45 CEST 2018   EN: 2.200 GM2: 0.406  GM3: 0.0800  RAES: 1.40
     1s    -10.707211    1.230000
  6     Wed Apr 25 08:07:45 CEST 2018   EN: 2.550 GM2: 0.538  GM3: 0.1500  RAES: 3.00
     2s    -13.970922    2.096432
     2p    -10.063292    1.800000

           ------------------------------------------------- 
          |        Self-Consistent Charge Iterations        |
           ------------------------------------------------- 

          ...................................................
          :                      SETUP                      :
          :.................................................:
          :  # basis functions                  20          :
          :  # atomic orbitals                  20          :
          :  # shells                           14          :
          :  # electrons                        20          :
          :  max. iterations                   250          :
          :  Hamiltonian                  GFN2-xTB          :
          :  restarted?                      false          :
          :  GBSA solvation                  false          :
          :  PC potential                    false          :
          :  electronic temp.          300.0000000     K    :
          :  accuracy                    1.0000000          :
          :  -> integral cutoff          0.2500000E+02      :
          :  -> integral neglect         0.1000000E-07      :
          :  -> SCF convergence          0.1000000E-05 Eh   :
          :  -> wf. convergence          0.1000000E-03 e    :
          :  Broyden damping             0.4000000          :
          ...................................................

 iter      E             dE          RMSdq      gap      omega  full diag
   1    -10.5990672 -0.105991E+02  0.271E+00   13.79       0.0  T
   2    -10.6352715 -0.362043E-01  0.142E+00   13.61       1.0  T
   3    -10.6355737 -0.302192E-03  0.763E-01   13.54       1.0  T
   4    -10.6356781 -0.104441E-03  0.101E-01   13.47       1.0  T
   5    -10.6356858 -0.764974E-05  0.569E-02   13.47       1.0  T
   6    -10.6356862 -0.422971E-06  0.266E-03   13.47      11.3  T
   7    -10.6356862 -0.653301E-08  0.943E-04   13.47      32.0  T
   8    -10.6356862 -0.598714E-09  0.201E-04   13.47     149.7  T

   *** convergence criteria satisfied after 8 iterations ***

         #    Occupation            Energy/Eh            Energy/eV
      -------------------------------------------------------------
         1        2.0000           -0.6144765             -16.7208
       ...           ...                  ...                  ...
         4        2.0000           -0.5077169             -13.8157
         5        2.0000           -0.4972423             -13.5307
         6        2.0000           -0.4731060             -12.8739
         7        2.0000           -0.4631982             -12.6043
         8        2.0000           -0.4368733             -11.8879
         9        2.0000           -0.4325276             -11.7697
        10        2.0000           -0.4164327             -11.3317 (HOMO)
        11                          0.0785951               2.1387 (LUMO)
        12                          0.1111411               3.0243
        13                          0.1278180               3.4781
        14                          0.1300967               3.5401
        15                          0.1426805               3.8825
       ...                                ...                  ...
        20                          0.3115323               8.4772
      -------------------------------------------------------------
                  HL-Gap            0.4950277 Eh           13.4704 eV
             Fermi-level           -0.1689188 Eh           -4.5965 eV

 SCC (total)                   0 d,  0 h,  0 min,  0.002 sec
 SCC setup                      ...        0 min,  0.000 sec (  3.832%)
 Dispersion                     ...        0 min,  0.000 sec (  1.648%)
 integral evaluation            ...        0 min,  0.000 sec ( 10.749%)
 zeroth order Hamiltonian       ...        0 min,  0.000 sec (  1.046%)
 iterations                     ...        0 min,  0.001 sec ( 56.597%)
 molecular gradient             ...        0 min,  0.000 sec ( 21.394%)
 printout                       ...        0 min,  0.000 sec (  3.400%)

         :::::::::::::::::::::::::::::::::::::::::::::::::::::
         ::                     SUMMARY                     ::
         :::::::::::::::::::::::::::::::::::::::::::::::::::::
         :: total energy             -10.490042526456 Eh    ::
         :: gradient norm              0.058842638751 Eh/a0 ::
         :: HOMO-LUMO gap             13.470390377408 eV    ::
         ::.................................................::
         :: SCC energy               -10.635686181067 Eh    ::
         :: -> isotropic ES            0.002263864792 Eh    ::
         :: -> anisotropic ES          0.004579020426 Eh    ::
         :: -> anisotropic XC          0.008241925094 Eh    ::
         :: -> dispersion             -0.003965727136 Eh    ::
         :: repulsion energy           0.145642158444 Eh    ::
         :: add. restraining           0.000000000000 Eh    ::
         :::::::::::::::::::::::::::::::::::::::::::::::::::::

      ----------------------------------------------------------- 
     |                   =====================                   |
     |                        A N C O P T                        |
     |                   =====================                   |
     |               Approximate Normal Coordinate               |
     |                Rational Function Optimizer                |
      ----------------------------------------------------------- 

          ...................................................
          :                      SETUP                      :
          :.................................................:
          :   optimization level            normal          :
          :   max. optcycles                   200          :
          :   ANC micro-cycles                  20          :
          :   degrees of freedom                27          :
          :.................................................:
          :   RF solver                   davidson          :
          :   write xtbopt.log                true          :
          :   linear?                        false          :
          :   energy convergence         0.5000000E-05 Eh   :
          :   grad. convergence          0.1000000E-02 Eh/α :
          :   maximium RF displ.         1.0000000          :
          :   Hlow (freq-cutoff)         0.1000000E-01      :
          :   Hmax (freq-cutoff)         5.0000000          :
          :   S6 in model hess.         20.0000000          :
          ...................................................

generating ANC from model Hessian ...
Using Lindh-Hessian (1995)
 Shifting diagonal of input Hessian by   1.871609896829329E-003
 Lowest  eigenvalues of input Hessian
   -0.000000   -0.000000    0.000000    0.000000    0.000000    0.000000
    0.010000    0.012151    0.014535    0.037477    0.048753    0.051422
    0.054125    0.055997    0.065565    0.072112    0.092919    0.107532
 Highest eigenvalues
    1.005484    1.047849    1.050627    1.114961    1.205871    1.272759
 

........................................................................
.............................. CYCLE    1 ..............................
........................................................................
   1    -10.6356862 -0.106357E+02  0.824E-05   13.47       0.0  T
   2    -10.6356862 -0.202149E-11  0.482E-05   13.47     625.0  T
   3    -10.6356862 -0.325073E-12  0.712E-06   13.47    4232.2  T
     SCC iter.                  ...        0 min,  0.000 sec
     gradient                   ...        0 min,  0.000 sec
 * total energy  :   -10.4900425 Eh     change        0.1002713E-08 Eh
   gradient norm :     0.0588422 Eh/α   predicted     0.0000000E+00 (-100.00%)
   displ. norm   :     0.3340817 α      lambda       -0.9630728E-02
   maximum displ.:     0.1520676 α      in ANC's #7, #1, #4, ...

........................................................................
.............................. CYCLE    2 ..............................
........................................................................
   1    -10.6540759 -0.106541E+02  0.322E-01   14.03       0.0  T
   2    -10.6541004 -0.244952E-04  0.192E-01   14.04       1.0  T
   3    -10.6541016 -0.115267E-05  0.214E-02   14.03       1.4  T
   4    -10.6541018 -0.220270E-06  0.555E-03   14.03       5.4  T
   5    -10.6541018 -0.331397E-07  0.190E-03   14.03      15.8  T
     SCC iter.                  ...        0 min,  0.000 sec
     gradient                   ...        0 min,  0.000 sec
 * total energy  :   -10.4956736 Eh     change       -0.5631036E-02 Eh
   gradient norm :     0.0189724 Eh/α   predicted    -0.5352812E-02 (  -4.94%)
   displ. norm   :     0.2635526 α      lambda       -0.1505353E-02
   maximum displ.:     0.2351577 α      in ANC's #1, #2, #4, ...

........................................................................
.............................. CYCLE    3 ..............................
........................................................................
   1    -10.6590113 -0.106590E+02  0.198E-01   14.16       0.0  T
   2    -10.6590188 -0.754346E-05  0.117E-01   14.17       1.0  T
   3    -10.6590190 -0.152310E-06  0.114E-02   14.17       2.7  T
   4    -10.6590192 -0.242908E-06  0.276E-03   14.17      10.9  T
   5    -10.6590192 -0.163283E-07  0.103E-03   14.17      29.1  T
     SCC iter.                  ...        0 min,  0.000 sec
     gradient                   ...        0 min,  0.000 sec
 * total energy  :   -10.4967829 Eh     change       -0.1109360E-02 Eh
   gradient norm :     0.0061761 Eh/α   predicted    -0.8049600E-03 ( -27.44%)
   displ. norm   :     0.3344300 α      lambda       -0.9763119E-03
   maximum displ.:     0.3263283 α      in ANC's #1, #5, #6, ...

........................................................................
.............................. CYCLE    4 ..............................
........................................................................
   1    -10.6592002 -0.106592E+02  0.236E-01   14.21       0.0  T
   2    -10.6592022 -0.197780E-05  0.140E-01   14.21       1.0  T
   3    -10.6592022 -0.384182E-07  0.665E-03   14.21       4.5  T
   4    -10.6592025 -0.279290E-06  0.156E-03   14.21      19.3  T
   5    -10.6592025 -0.182972E-08  0.500E-04   14.21      60.3  T
     SCC iter.                  ...        0 min,  0.000 sec
     gradient                   ...        0 min,  0.000 sec
 * total energy  :   -10.4976078 Eh     change       -0.8248475E-03 Eh
   gradient norm :     0.0090538 Eh/α   predicted    -0.5427568E-03 ( -34.20%)
   displ. norm   :     0.3253099 α      lambda       -0.8484008E-03
   maximum displ.:     0.3136986 α      in ANC's #1, #2, #18, ...

........................................................................
.............................. CYCLE    5 ..............................
........................................................................
   1    -10.6592858 -0.106593E+02  0.226E-01   14.28       0.0  T
   2    -10.6592872 -0.137945E-05  0.134E-01   14.28       1.0  T
   3    -10.6592873 -0.159082E-06  0.374E-03   14.28       8.1  T
   4    -10.6592874 -0.645795E-07  0.106E-03   14.28      28.5  T
   5    -10.6592874 -0.477506E-09  0.391E-04   14.28      77.1  T
     SCC iter.                  ...        0 min,  0.000 sec
     gradient                   ...        0 min,  0.000 sec
 * total energy  :   -10.4983232 Eh     change       -0.7154782E-03 Eh
   gradient norm :     0.0116009 Eh/α   predicted    -0.4690932E-03 ( -34.44%)
   displ. norm   :     0.4861702 α      lambda       -0.1164157E-02
   maximum displ.:     0.4708279 α      in ANC's #1, #18, #2, ...

........................................................................
.............................. CYCLE    6 ..............................
........................................................................
   1    -10.6567201 -0.106567E+02  0.334E-01   14.36       0.0  T
   2    -10.6567236 -0.345172E-05  0.197E-01   14.36       1.0  T
   3    -10.6567240 -0.403773E-06  0.497E-03   14.36       6.1  T
   4    -10.6567241 -0.694199E-07  0.166E-03   14.36      18.2  T
   5    -10.6567241 -0.276888E-08  0.726E-04   14.36      41.5  T
     SCC iter.                  ...        0 min,  0.000 sec
     gradient                   ...        0 min,  0.000 sec
 * total energy  :   -10.4990764 Eh     change       -0.7531087E-03 Eh
   gradient norm :     0.0177010 Eh/α   predicted    -0.7196606E-03 (  -4.44%)
   displ. norm   :     0.2299368 α      lambda       -0.9748266E-03
   maximum displ.:     0.2019569 α      in ANC's #1, #18, #20, ...

........................................................................
.............................. CYCLE    7 ..............................
........................................................................
   1    -10.6621700 -0.106622E+02  0.161E-01   14.47       0.0  T
   2    -10.6621721 -0.210250E-05  0.948E-02   14.47       1.0  T
   3    -10.6621721  0.197454E-08  0.738E-03   14.47       4.1  T
   4    -10.6621724 -0.222731E-06  0.172E-03   14.47      17.5  T
   5    -10.6621724 -0.212363E-08  0.746E-04   14.47      40.4  T
     SCC iter.                  ...        0 min,  0.000 sec
     gradient                   ...        0 min,  0.001 sec
 * total energy  :   -10.4997711 Eh     change       -0.6947327E-03 Eh
   gradient norm :     0.0113383 Eh/α   predicted    -0.5131828E-03 ( -26.13%)
   displ. norm   :     0.3922419 α      lambda       -0.7733968E-03
   maximum displ.:     0.3674663 α      in ANC's #1, #18, #20, ...

........................................................................
.............................. CYCLE    8 ..............................
........................................................................
   1    -10.6599433 -0.106599E+02  0.273E-01   14.55       0.0  T
   2    -10.6599464 -0.315158E-05  0.161E-01   14.55       1.0  T
   3    -10.6599467 -0.329317E-06  0.451E-03   14.55       6.7  T
   4    -10.6599468 -0.247378E-07  0.172E-03   14.55      17.5  T
   5    -10.6599468 -0.183634E-08  0.548E-04   14.55      55.0  T
     SCC iter.                  ...        0 min,  0.000 sec
     gradient                   ...        0 min,  0.000 sec
 * total energy  :   -10.5002163 Eh     change       -0.4452274E-03 Eh
   gradient norm :     0.0123448 Eh/α   predicted    -0.4461895E-03 (   0.22%)
   displ. norm   :     0.1668086 α      lambda       -0.6020766E-03
   maximum displ.:     0.1184743 α      in ANC's #1, #18, #2, ...

........................................................................
.............................. CYCLE    9 ..............................
........................................................................
   1    -10.6650553 -0.106651E+02  0.124E-01   14.59       0.0  T
   2    -10.6650582 -0.287071E-05  0.721E-02   14.59       1.0  T
   3    -10.6650583 -0.796043E-07  0.965E-03   14.59       3.1  T
   4    -10.6650584 -0.174889E-06  0.233E-03   14.59      12.9  T
   5    -10.6650584 -0.384058E-08  0.101E-03   14.59      30.0  T
     SCC iter.                  ...        0 min,  0.000 sec
     gradient                   ...        0 min,  0.000 sec
 * total energy  :   -10.5005249 Eh     change       -0.3085512E-03 Eh
   gradient norm :     0.0061263 Eh/α   predicted    -0.3094142E-03 (   0.28%)
   displ. norm   :     0.3055189 α      lambda       -0.3035897E-03
   maximum displ.:     0.2731970 α      in ANC's #1, #18, #2, ...

........................................................................
.............................. CYCLE   10 ..............................
........................................................................
   1    -10.6610682 -0.106611E+02  0.211E-01   14.54       0.0  T
   2    -10.6610708 -0.259493E-05  0.125E-01   14.54       1.0  T
   3    -10.6610710 -0.187965E-06  0.574E-03   14.54       5.3  T
   4    -10.6610711 -0.728818E-07  0.181E-03   14.54      16.6  T
   5    -10.6610711 -0.294602E-08  0.772E-04   14.54      39.1  T
     SCC iter.                  ...        0 min,  0.000 sec
     gradient                   ...        0 min,  0.000 sec
 * total energy  :   -10.5005663 Eh     change       -0.4143366E-04 Eh
   gradient norm :     0.0123106 Eh/α   predicted    -0.1659635E-03 ( 300.55%)
   displ. norm   :     0.0749025 α      lambda       -0.3861228E-03
   maximum displ.:     0.0646993 α      in ANC's #2, #18, #17, ...

........................................................................
.............................. CYCLE   11 ..............................
........................................................................
   1    -10.6641836 -0.106642E+02  0.716E-02   14.56       0.0  T
   2    -10.6641898 -0.625909E-05  0.381E-02   14.56       1.0  T
   3    -10.6641900 -0.171160E-06  0.148E-02   14.56       2.0  T
   4    -10.6641901 -0.521332E-07  0.212E-03   14.56      14.2  T
   5    -10.6641901 -0.121268E-08  0.801E-04   14.56      37.6  T
     SCC iter.                  ...        0 min,  0.000 sec
     gradient                   ...        0 min,  0.000 sec
 * total energy  :   -10.5006106 Eh     change       -0.4430471E-04 Eh
   gradient norm :     0.0097005 Eh/α   predicted    -0.1941458E-03 ( 338.21%)
   displ. norm   :     0.0779920 α      lambda       -0.3364394E-03
   maximum displ.:     0.0615839 α      in ANC's #2, #1, #3, ...

........................................................................
.............................. CYCLE   12 ..............................
........................................................................
   1    -10.6657045 -0.106657E+02  0.669E-02   14.58       0.0  T
   2    -10.6657072 -0.267162E-05  0.382E-02   14.58       1.0  T
   3    -10.6657074 -0.217274E-06  0.962E-03   14.58       3.1  T
   4    -10.6657075 -0.282793E-07  0.249E-03   14.58      12.1  T
   5    -10.6657075 -0.467542E-08  0.349E-04   14.58      86.4  T
     SCC iter.                  ...        0 min,  0.000 sec
     gradient                   ...        0 min,  0.000 sec
 * total energy  :   -10.5007045 Eh     change       -0.9386173E-04 Eh
   gradient norm :     0.0067256 Eh/α   predicted    -0.1692427E-03 (  80.31%)
   displ. norm   :     0.0898722 α      lambda       -0.1210402E-03
   maximum displ.:     0.0748675 α      in ANC's #1, #18, #3, ...

........................................................................
.............................. CYCLE   13 ..............................
........................................................................
   1    -10.6645002 -0.106645E+02  0.657E-02   14.58       0.0  T
   2    -10.6645006 -0.363278E-06  0.389E-02   14.58       1.0  T
   3    -10.6645006 -0.608596E-07  0.273E-03   14.58      11.0  T
   4    -10.6645006 -0.646565E-08  0.113E-03   14.58      26.8  T
     SCC iter.                  ...        0 min,  0.000 sec
     gradient                   ...        0 min,  0.000 sec
 * total energy  :   -10.5007631 Eh     change       -0.5858763E-04 Eh
   gradient norm :     0.0030715 Eh/α   predicted    -0.6100897E-04 (   4.13%)
   displ. norm   :     0.0425699 α      lambda       -0.2212607E-04
   maximum displ.:     0.0346246 α      in ANC's #1, #18, #17, ...

........................................................................
.............................. CYCLE   14 ..............................
........................................................................
   1    -10.6646137 -0.106646E+02  0.294E-02   14.57       0.0  T
   2    -10.6646138 -0.857022E-07  0.173E-02   14.57       1.7  T
   3    -10.6646138 -0.431402E-08  0.122E-03   14.57      24.6  T
   4    -10.6646138 -0.303901E-08  0.343E-04   14.57      87.8  T
   5    -10.6646138 -0.707843E-10  0.903E-05   14.57     333.9  T
     SCC iter.                  ...        0 min,  0.000 sec
     gradient                   ...        0 min,  0.000 sec
 * total energy  :   -10.5007780 Eh     change       -0.1494327E-04 Eh
   gradient norm :     0.0016061 Eh/α   predicted    -0.1108416E-04 ( -25.83%)
   displ. norm   :     0.0856271 α      lambda       -0.2510710E-04
   maximum displ.:     0.0568516 α      in ANC's #1, #2, #18, ...

........................................................................
.............................. CYCLE   15 ..............................
........................................................................
   1    -10.6657348 -0.106657E+02  0.584E-02   14.59       0.0  T
   2    -10.6657350 -0.228421E-06  0.345E-02   14.59       1.0  T
   3    -10.6657350 -0.192324E-07  0.140E-03   14.59      21.5  T
   4    -10.6657350 -0.131075E-08  0.486E-04   14.59      62.1  T
   5    -10.6657350 -0.156000E-09  0.141E-04   14.59     214.0  T
     SCC iter.                  ...        0 min,  0.000 sec
     gradient                   ...        0 min,  0.000 sec
 * total energy  :   -10.5007910 Eh     change       -0.1295325E-04 Eh
   gradient norm :     0.0025549 Eh/α   predicted    -0.1259343E-04 (  -2.78%)
   displ. norm   :     0.0423612 α      lambda       -0.1626037E-04
   maximum displ.:     0.0282683 α      in ANC's #1, #2, #18, ...

........................................................................
.............................. CYCLE   16 ..............................
........................................................................
   1    -10.6654530 -0.106655E+02  0.286E-02   14.57       0.0  T
   2    -10.6654531 -0.610801E-07  0.169E-02   14.57       1.8  T
   3    -10.6654531 -0.100495E-07  0.112E-03   14.57      26.9  T
   4    -10.6654531 -0.154597E-08  0.481E-04   14.57      62.6  T
   5    -10.6654531 -0.194083E-09  0.852E-05   14.57     353.9  T
     SCC iter.                  ...        0 min,  0.000 sec
     gradient                   ...        0 min,  0.001 sec
 * total energy  :   -10.5007993 Eh     change       -0.8382115E-05 Eh
   gradient norm :     0.0017170 Eh/α   predicted    -0.8143665E-05 (  -2.84%)
   displ. norm   :     0.0290041 α      lambda       -0.5874615E-05
   maximum displ.:     0.0236167 α      in ANC's #1, #18, #2, ...

........................................................................
.............................. CYCLE   17 ..............................
........................................................................
   1    -10.6654257 -0.106654E+02  0.200E-02   14.58       0.0  T
   2    -10.6654258 -0.163796E-07  0.118E-02   14.58       2.5  T
   3    -10.6654258 -0.100221E-08  0.467E-04   14.58      64.5  T
   4    -10.6654258 -0.112993E-08  0.145E-04   14.58     207.3  T
     SCC iter.                  ...        0 min,  0.000 sec
     gradient                   ...        0 min,  0.000 sec
 * total energy  :   -10.5008066 Eh     change       -0.7273204E-05 Eh
   gradient norm :     0.0014432 Eh/α   predicted    -0.2937438E-05 ( -59.61%)
   displ. norm   :     0.0833641 α      lambda       -0.2062343E-04
   maximum displ.:     0.0505765 α      in ANC's #2, #1, #18, ...

........................................................................
.............................. CYCLE   18 ..............................
........................................................................
   1    -10.6642049 -0.106642E+02  0.565E-02   14.59       0.0  T
   2    -10.6642053 -0.334782E-06  0.334E-02   14.59       1.0  T
   3    -10.6642053 -0.167613E-07  0.170E-03   14.59      17.8  T
   4    -10.6642053 -0.159359E-08  0.467E-04   14.59      64.6  T
   5    -10.6642053 -0.185326E-09  0.140E-04   14.59     214.8  T
     SCC iter.                  ...        0 min,  0.000 sec
     gradient                   ...        0 min,  0.000 sec
 * total energy  :   -10.5008161 Eh     change       -0.9531919E-05 Eh
   gradient norm :     0.0030079 Eh/α   predicted    -0.1034491E-04 (   8.53%)
   displ. norm   :     0.0365572 α      lambda       -0.1424435E-04
   maximum displ.:     0.0285547 α      in ANC's #1, #2, #18, ...

........................................................................
.............................. CYCLE   19 ..............................
........................................................................
   1    -10.6648757 -0.106649E+02  0.254E-02   14.59       0.0  T
   2    -10.6648758 -0.894741E-07  0.149E-02   14.59       2.0  T
   3    -10.6648758 -0.575138E-08  0.107E-03   14.59      28.2  T
   4    -10.6648758 -0.430735E-09  0.310E-04   14.59      97.3  T
   5    -10.6648758 -0.857057E-10  0.564E-05   14.59     534.7  T
     SCC iter.                  ...        0 min,  0.000 sec
     gradient                   ...        0 min,  0.000 sec
 * total energy  :   -10.5008245 Eh     change       -0.8352794E-05 Eh
   gradient norm :     0.0016393 Eh/α   predicted    -0.7133787E-05 ( -14.59%)
   displ. norm   :     0.0257727 α      lambda       -0.4824114E-05
   maximum displ.:     0.0152774 α      in ANC's #2, #1, #18, ...

........................................................................
.............................. CYCLE   20 ..............................
........................................................................
   1    -10.6652452 -0.106652E+02  0.189E-02   14.58       0.0  T
   2    -10.6652453 -0.699603E-07  0.112E-02   14.58       2.7  T
   3    -10.6652453 -0.393177E-08  0.111E-03   14.58      27.3  T
   4    -10.6652453 -0.156283E-08  0.354E-04   14.58      85.1  T
   5    -10.6652453 -0.133118E-09  0.120E-04   14.58     252.3  T
     SCC iter.                  ...        0 min,  0.000 sec
     gradient                   ...        0 min,  0.000 sec
 * total energy  :   -10.5008263 Eh     change       -0.1783182E-05 Eh
   gradient norm :     0.0011869 Eh/α   predicted    -0.2413962E-05 (  35.37%)
   displ. norm   :     0.0086977 α      lambda       -0.2748977E-05
   maximum displ.:     0.0049369 α      in ANC's #1, #2, #3, ...
 * RMSD in coord.:     0.8190338 α      energy gain  -0.1078375E-01 Eh

generating ANC from model Hessian ...
Using Lindh-Hessian (1995)
 Shifting diagonal of input Hessian by   8.660783727464875E-004
 Lowest  eigenvalues of input Hessian
   -0.000000   -0.000000   -0.000000   -0.000000   -0.000000    0.000000
    0.010000    0.012419    0.013395    0.039957    0.051015    0.052859
    0.056951    0.060332    0.070758    0.079543    0.106168    0.130393
 Highest eigenvalues
    1.104572    1.116722    1.120965    1.188487    1.220222    1.263583
 

........................................................................
.............................. CYCLE   21 ..............................
........................................................................
   1    -10.6652830 -0.106653E+02  0.741E-03   14.58       0.0  T
   2    -10.6652830 -0.134922E-07  0.444E-03   14.58       6.8  T
   3    -10.6652830 -0.261339E-08  0.620E-04   14.58      48.6  T
   4    -10.6652830 -0.210765E-09  0.231E-04   14.58     130.5  T
     SCC iter.                  ...        0 min,  0.000 sec
     gradient                   ...        0 min,  0.000 sec
 * total energy  :   -10.5008276 Eh     change       -0.1366836E-05 Eh
   gradient norm :     0.0007033 Eh/α   predicted     0.0000000E+00 (-100.00%)
   displ. norm   :     0.0031120 α      lambda       -0.8365530E-06
   maximum displ.:     0.0012427 α      in ANC's #18, #13, #7, ...

   *** GEOMETRY OPTIMIZATION CONVERGED AFTER 21 ITERATIONS ***

------------------------------------------------------------------------
 total energy gain   :        -0.0107851 Eh       -6.7678 kcal/mol
 total RMSD          :         0.8190338 a0        0.4334 Å
 total power (kW/mol):        -1.3483960 (step) -913.0533 (real)
------------------------------------------------------------------------

 ANCopt (total)                0 d,  0 h,  0 min,  0.031 sec
 optimizer setup                ...        0 min,  0.000 sec (  0.171%)
 model hessian                  ...        0 min,  0.002 sec (  7.454%)
 ANC generation                 ...        0 min,  0.005 sec ( 15.016%)
 coordinate transformation      ...        0 min,  0.000 sec (  0.336%)
 single point calculation       ...        0 min,  0.022 sec ( 69.936%)
 optimization log               ...        0 min,  0.001 sec (  2.260%)
 hessian update                 ...        0 min,  0.000 sec (  0.277%)
 rational function              ...        0 min,  0.001 sec (  2.510%)

================
 final structure:
================
11
 xtb: 6.2.3 (830e466)
C         1.24986630772094   -0.02249941481057   -0.28429928021260
C         0.01288596879555   -0.21698313838807    0.58410922786601
C        -1.25944389873627    0.18444291932768   -0.15220246489677
H         1.34727667641315    1.02024697888554   -0.57921100076365
H         2.14854589105985   -0.31256920787516    0.25488588168159
H         1.18047354310825   -0.62652309578675   -1.18595847101969
H        -0.05759570145367   -1.26469806717179    0.88457877595192
H         0.11036948663852    0.38220125178315    1.49214617732460
H        -2.13237386616375    0.04004358801073    0.48046058747185
H        -1.38414499440560   -0.41503234918809   -1.05107881660706
H        -1.21575941297700    1.23137053521334   -0.44353061679623
 
 Bond Distances (Angstroems)
 ---------------------------
C1-C2=1.5238         C1-H4=1.0880         C1-H5=1.0874         C1-H6=1.0875         C2-C1=1.5238         C2-C3=1.5239         
C2-H7=1.0922         C2-H8=1.0923         C3-C2=1.5239         C3-H9=1.0877         C3-H10=1.0876        C3-H11=1.0876        
H4-C1=1.0880         H5-C1=1.0874         H6-C1=1.0875         H7-C2=1.0922         H8-C2=1.0923         H9-C3=1.0877         
H10-C3=1.0876        H11-C3=1.0876        
 C  H  Rav=1.0888 sigma=0.0020  Rmin=1.0874  Rmax=1.0923     8
 C  C  Rav=1.5238 sigma=0.0000  Rmin=1.5238  Rmax=1.5239     2
 
 selected bond angles (degree)
 --------------------
H4-C1-C2=110.45                H5-C1-C2=110.75                H5-C1-H4=108.42                H6-C1-C2=110.48                
H6-C1-H4=108.26                H6-C1-H5=108.40                C3-C2-C1=111.64                H7-C2-C1=109.36                
H7-C2-C3=109.37                H8-C2-C1=109.35                H8-C2-C3=109.37                H8-C2-H7=107.65                
H9-C3-C2=110.74                H10-C3-C2=110.48               H10-C3-H9=108.39               H11-C3-C2=110.46               
H11-C3-H9=108.41               H11-C3-H10=108.29              
 
 selected dihedral angles (degree)
 ---------------------------------
C3-C2-C1-H4= 59.84            C3-C2-C1-H5=179.97            C3-C2-C1-H6=300.09            H7-C2-C1-H4=181.02            
H7-C2-C1-H5=301.15            H7-C2-C1-H6= 61.27            H8-C2-C1-H4=298.67            H8-C2-C1-H5= 58.81            
H8-C2-C1-H6=178.92            H9-C3-C2-C1=180.01            H9-C3-C2-H7= 58.83            H9-C3-C2-H8=301.16            
H10-C3-C2-C1= 59.91           H10-C3-C2-H7=298.73           H10-C3-C2-H8=181.06           H11-C3-C2-C1=300.12           
H11-C3-C2-H7=178.94           H11-C3-C2-H8= 61.27           
           -------------------------------------------------
          |                Final Singlepoint                |
           -------------------------------------------------

          ...................................................
          :                      SETUP                      :
          :.................................................:
          :  # basis functions                  20          :
          :  # atomic orbitals                  20          :
          :  # shells                           14          :
          :  # electrons                        20          :
          :  max. iterations                   250          :
          :  Hamiltonian                  GFN2-xTB          :
          :  restarted?                      false          :
          :  GBSA solvation                  false          :
          :  PC potential                    false          :
          :  electronic temp.          300.0000000     K    :
          :  accuracy                    1.0000000          :
          :  -> integral cutoff          0.2500000E+02      :
          :  -> integral neglect         0.1000000E-07      :
          :  -> SCF convergence          0.1000000E-05 Eh   :
          :  -> wf. convergence          0.1000000E-03 e    :
          :  Broyden damping             0.4000000          :
          ...................................................

 iter      E             dE          RMSdq      gap      omega  full diag
   1    -10.6652830 -0.106653E+02  0.385E-05   14.58       0.0  T
   2    -10.6652830 -0.264677E-12  0.235E-05   14.58    1283.9  T
   3    -10.6652830 -0.675016E-13  0.259E-06   14.58   11636.3  T

   *** convergence criteria satisfied after 3 iterations ***

         #    Occupation            Energy/Eh            Energy/eV
      -------------------------------------------------------------
         1        2.0000           -0.6139790             -16.7072
       ...           ...                  ...                  ...
         4        2.0000           -0.5076451             -13.8137
         5        2.0000           -0.4966344             -13.5141
         6        2.0000           -0.4755123             -12.9393
         7        2.0000           -0.4592387             -12.4965
         8        2.0000           -0.4372453             -11.8981
         9        2.0000           -0.4351375             -11.8407
        10        2.0000           -0.4239387             -11.5360 (HOMO)
        11                          0.1119382               3.0460 (LUMO)
        12                          0.1368311               3.7234
        13                          0.1424647               3.8767
        14                          0.1616089               4.3976
        15                          0.1728311               4.7030
       ...                                ...                  ...
        20                          0.3024005               8.2287
      -------------------------------------------------------------
                  HL-Gap            0.5358769 Eh           14.5820 eV
             Fermi-level           -0.1560003 Eh           -4.2450 eV

 SCC (total)                   0 d,  0 h,  0 min,  0.001 sec
 SCC setup                      ...        0 min,  0.000 sec (  6.054%)
 Dispersion                     ...        0 min,  0.000 sec (  1.769%)
 integral evaluation            ...        0 min,  0.000 sec ( 18.186%)
 zeroth order Hamiltonian       ...        0 min,  0.000 sec (  1.570%)
 iterations                     ...        0 min,  0.000 sec ( 27.678%)
 molecular gradient             ...        0 min,  0.000 sec ( 37.095%)
 printout                       ...        0 min,  0.000 sec (  5.132%)

         :::::::::::::::::::::::::::::::::::::::::::::::::::::
         ::                     SUMMARY                     ::
         :::::::::::::::::::::::::::::::::::::::::::::::::::::
         :: total energy             -10.500827641939 Eh    ::
         :: gradient norm              0.000702284352 Eh/a0 ::
         :: HOMO-LUMO gap             14.581953008072 eV    ::
         ::.................................................::
         :: SCC energy               -10.665283026896 Eh    ::
         :: -> isotropic ES            0.002532031230 Eh    ::
         :: -> anisotropic ES          0.003976328329 Eh    ::
         :: -> anisotropic XC          0.007211970346 Eh    ::
         :: -> dispersion             -0.003957692979 Eh    ::
         :: repulsion energy           0.164454009653 Eh    ::
         :: add. restraining           0.000000000000 Eh    ::
         :::::::::::::::::::::::::::::::::::::::::::::::::::::

           -------------------------------------------------
          |                Property Printout                |
           -------------------------------------------------

    * Orbital Energies and Occupations

         #    Occupation            Energy/Eh            Energy/eV
      -------------------------------------------------------------
         1        2.0000           -0.6139790             -16.7072
         2        2.0000           -0.5841430             -15.8953
         3        2.0000           -0.5539510             -15.0738
         4        2.0000           -0.5076451             -13.8137
         5        2.0000           -0.4966344             -13.5141
         6        2.0000           -0.4755123             -12.9393
         7        2.0000           -0.4592387             -12.4965
         8        2.0000           -0.4372453             -11.8981
         9        2.0000           -0.4351375             -11.8407
        10        2.0000           -0.4239387             -11.5360 (HOMO)
        11                          0.1119382               3.0460 (LUMO)
        12                          0.1368311               3.7234
        13                          0.1424647               3.8767
        14                          0.1616089               4.3976
        15                          0.1728311               4.7030
        16                          0.2037309               5.5438
        17                          0.2321115               6.3161
        18                          0.2601706               7.0796
        19                          0.2691412               7.3237
        20                          0.3024005               8.2287
      -------------------------------------------------------------
                  HL-Gap            0.5358769 Eh           14.5820 eV
             Fermi-level           -0.1560003 Eh           -4.2450 eV

     #   Z        covCN         q      C6AA      α(0)
     1   6 C      3.752    -0.102    22.512     6.766
     2   6 C      3.799    -0.047    21.425     6.591
     3   6 C      3.752    -0.102    22.511     6.766
     4   1 H      0.925     0.034     2.536     2.490
     5   1 H      0.925     0.031     2.575     2.509
     6   1 H      0.925     0.034     2.535     2.490
     7   1 H      0.924     0.028     2.618     2.530
     8   1 H      0.924     0.028     2.618     2.530
     9   1 H      0.925     0.031     2.576     2.510
    10   1 H      0.925     0.034     2.535     2.490
    11   1 H      0.925     0.034     2.535     2.490

 Mol. C6AA /au·bohr⁶  :        723.081298
 Mol. C8AA /au·bohr⁸  :      14472.585502
 Mol. α(0) /au        :         40.161954


Wiberg/Mayer (AO) data.
largest (>0.10) Wiberg bond orders for each atom
          total WBO             WBO to atom ...
     1  C   3.997        C    2 1.020    H    6 0.988    H    4 0.988    H    5 0.988
     2  C   3.998        C    3 1.020    C    1 1.020    H    8 0.980    H    7 0.980
     3  C   3.997        C    2 1.020    H   11 0.988    H   10 0.988    H    9 0.988
     4  H   0.999        C    1 0.988
     5  H   0.999        C    1 0.988
     6  H   0.999        C    1 0.988
     7  H   0.999        C    2 0.980
     8  H   0.999        C    2 0.980
     9  H   0.999        C    3 0.988
    10  H   0.999        C    3 0.988
    11  H   0.999        C    3 0.988

molecular dipole:
                 x           y           z       tot (Debye)
 q only:       -0.000       0.003      -0.008
   full:       -0.000       0.003      -0.008       0.022
molecular quadrupole (traceless):
                xx          xy          yy          xz          yz          zz
 q only:        0.084      -0.017      -0.089      -0.007      -0.040       0.005
  q+dip:       -0.661       0.112       0.565       0.058       0.198       0.096
   full:       -0.295       0.050       0.253       0.026       0.089       0.042

           -------------------------------------------------
          |                Geometry Summary                 |
           -------------------------------------------------

      molecular mass/u    :       44.0957337
   center of mass at/Å    :        0.0008278      -0.0137335       0.0368288
  moments of inertia/u·Å² :        0.1719799E+02   0.5888846E+02   0.6668685E+02
rotational constants/cm⁻¹ :        0.9802094E+00   0.2862637E+00   0.2527880E+00

 * 10 selected distances

     #   Z        #   Z                                     value/Å
     1   6 C      2   6 C                                 1.5238365
     2   6 C      3   6 C                                 1.5238507 (max)
     1   6 C      4   1 H                                 1.0880173
     1   6 C      5   1 H                                 1.0874218 (min)
     1   6 C      6   1 H                                 1.0874968
     2   6 C      7   1 H                                 1.0922253
     2   6 C      8   1 H                                 1.0922711
     3   6 C      9   1 H                                 1.0877134
     3   6 C     10   1 H                                 1.0876119
     3   6 C     11   1 H                                 1.0875835

 * 2 distinct bonds (by element types)

   Z      Z             #   av. dist./Å        max./Å        min./Å
   1 H    6 C           8     1.0887926     1.0922711     1.0874218
   6 C    6 C           2     1.5238436     1.5238507     1.5238365


optimized geometry written to: xtbopt.xyz


           -------------------------------------------------
          | TOTAL ENERGY              -10.500827641939 Eh   |
          | GRADIENT NORM               0.000702284352 Eh/α |
          | HOMO-LUMO GAP              14.581953008072 eV   |
           -------------------------------------------------

------------------------------------------------------------------------
 * finished run on 2020/06/13 at 00:44:57.310     
------------------------------------------------------------------------
 total:
 * wall-time:     0 d,  0 h,  0 min,  0.060 sec
 *  cpu-time:     0 d,  0 h,  0 min,  0.215 sec
 * ratio c/w:     3.553 speedup
 SCF:
 * wall-time:     0 d,  0 h,  0 min,  0.002 sec
 *  cpu-time:     0 d,  0 h,  0 min,  0.008 sec
 * ratio c/w:     3.993 speedup
 ANC optimizer:
 * wall-time:     0 d,  0 h,  0 min,  0.032 sec
 *  cpu-time:     0 d,  0 h,  0 min,  0.124 sec
 * ratio c/w:     3.828 speedup

