      -----------------------------------------------------------      
     |                   =====================                   |     
     |                           x T B                           |     
     |                   =====================                   |     
     |                         S. Grimme                         |     
     |          Mulliken Center for Theoretical Chemistry        |     
     |                    University of Bonn                     |     
      -----------------------------------------------------------      

   * xtb version 6.2.3 (830e466) compiled by 'ehlert@majestix' on 2020-03-16

   xtb is free software: you can redistribute it and/or modify it under
   the terms of the GNU Lesser General Public License as published by
   the Free Software Foundation, either version 3 of the License, or
   (at your option) any later version.
   
   xtb is distributed in the hope that it will be useful,
   but WITHOUT ANY WARRANTY; without even the implied warranty of
   MERCHANTABILITY or FITNESS FOR A PARTICULAR PURPOSE.  See the
   GNU Lesser General Public License for more details.
   
   Cite this work as:
   * S. Grimme, C. Bannwarth, P. Shushkov, J. Chem. Theory Comput., 2017,
     13, 1989-2009. DOI: 10.1021/acs.jctc.7b00118
   * C. Bannwarth, S. Ehlert and S. Grimme., J. Chem. Theory Comput., 2019,
     15, 1652-1671. DOI: 10.1021/acs.jctc.8b01176
   * P. Pracht, E. Caldeweyher, S. Ehlert, S. Grimme, ChemRxiv, 2019, preprint.
     DOI: 10.26434/chemrxiv.8326202.v1
   
   for DFT-D4:
   * E. Caldeweyher, C. Bannwarth and S. Grimme, J. Chem. Phys., 2017,
     147, 034112. DOI: 10.1063/1.4993215
   * E. Caldeweyher, S. Ehlert, A. Hansen, H. Neugebauer, S. Spicher,
     C. Bannwarth and S. Grimme, J. Chem. Phys., 2019, 150, 154122.
     DOI: 10.1063/1.5090222
   
   for sTDA-xTB:
   * S. Grimme and C. Bannwarth, J. Chem. Phys., 2016, 145, 054103.
     DOI: 10.1063/1.4959605
   
   in the mass-spec context:
   * V. Asgeirsson, C. Bauer and S. Grimme, Chem. Sci., 2017, 8, 4879.
     DOI: 10.1039/c7sc00601b
   
   for metadynamics refer to:
   * S. Grimme, J. Chem. Theory Comput., 2019, 155, 2847-2862
     DOI: 10.1021/acs.jctc.9b00143
   
   with help from (in alphabetical order)
   C. Bannwarth, F. Bohle, G. Brandenburg, E. Caldeweyher, M. Checinski,
   S. Dohm, S. Ehlert, S. Ehrlich, F. März, H. Neugebauer, J. Pisarek,
   P. Pracht, P. Shushkov, and S. Spicher.
   
 * started run on 2020/04/08 at 23:04:51.042     

           -------------------------------------------------
          |                Calculation Setup                |
           -------------------------------------------------

          program call               : /home/tom/.local/bin/xtb SN2_PES_scan_8-0_xtb.xyz --chrg -1 --opt --input xcontrol_SN2_PES_scan_8-0
          coordinate file            : SN2_PES_scan_8-0_xtb.xyz
          omp threads                :                     1
          number of atoms            :                     6
          number of electrons        :                    22
          charge                     :                    -1
          spin                       :                   0.0
          first test random number   :      0.70012124977554

constraining bond 1 3 to    1.6050000 Å, actual value:    1.9058846 Å
constraining bond 2 3 to    1.7830000 Å, actual value:    1.7845422 Å

molecular fragmentation (1/2 indicates fragments):
122222
# atoms in fragment 1/2:     1     5
 fragment masses (1/2) :       19.00       50.49
CMA distance (Bohr)    :   5.947
constraining FC (au)   : 10.0000
########################################################################
[WARNING] Please study the warnings concerning your input carefully
-2- prog_main: XTBPATH is not set, using XTBHOME instead
-1- prog_main: XTBHOME is not set, using HOME instead
########################################################################
           ------------------------------------------------- 
          |                 G F N 2 - x T B                 |
          | Geometry, Frequencies, Noncovalent interactions |
          |            JCTC 2019 parametrisation            |
           ------------------------------------------------- 
             k(s)              :                1.8500
             k(p)              :                2.2300
             k(d)              :                2.2300
             k(f)              :                2.0000
             kEN (H0ij)        :               -2.0000
             D4 a1             :                0.5200
             D4 a2             :                5.0000
             D4 s6             :                1.0000
             D4 s8             :                2.7000
             D4 s9             :                5.0000
             alphaj            :                2.0000

  Z AO/shell   Hii/eV     exponent
  1     Wed Apr 25 08:07:45 CEST 2018   EN: 2.200 GM2: 0.406  GM3: 0.0800  RAES: 1.40
     1s    -10.707211    1.230000
  6     Wed Apr 25 08:07:45 CEST 2018   EN: 2.550 GM2: 0.538  GM3: 0.1500  RAES: 3.00
     2s    -13.970922    2.096432
     2p    -10.063292    1.800000
  9     Mon Apr 23 13:58:50 CEST 2018   EN: 3.980 GM2: 0.532  GM3: 0.1426  RAES: 2.40
     2s    -23.458179    2.416361
     2p    -15.746583    2.308399
 17     Mon Apr 23 14:09:22 CEST 2018   EN: 3.160 GM2: 0.249  GM3: 0.1495  RAES: 2.50
     3s    -29.278781    2.485265
     3p    -12.673758    2.199650
     3d     -0.240338    2.476089

           ------------------------------------------------- 
          |        Self-Consistent Charge Iterations        |
           ------------------------------------------------- 

          ...................................................
          :                      SETUP                      :
          :.................................................:
          :  # basis functions                  21          :
          :  # atomic orbitals                  20          :
          :  # shells                           10          :
          :  # electrons                        22          :
          :  max. iterations                   250          :
          :  Hamiltonian                  GFN2-xTB          :
          :  restarted?                      false          :
          :  GBSA solvation                  false          :
          :  PC potential                    false          :
          :  electronic temp.          300.0000000     K    :
          :  accuracy                    1.0000000          :
          :  -> integral cutoff          0.2500000E+02      :
          :  -> integral neglect         0.1000000E-07      :
          :  -> SCF convergence          0.1000000E-05 Eh   :
          :  -> wf. convergence          0.1000000E-03 e    :
          :  Broyden damping             0.4000000          :
          ...................................................

 iter      E             dE          RMSdq      gap      omega  full diag
   1    -13.1145683 -0.131146E+02  0.672E+00    7.09       0.0  T
   2    -13.1887458 -0.741776E-01  0.343E+00    5.24       1.0  T
   3    -13.1909664 -0.222058E-02  0.176E+00    5.08       1.0  T
   4    -13.1923058 -0.133939E-02  0.660E-01    4.88       1.0  T
   5    -13.1931482 -0.842444E-03  0.333E-01    5.09       1.0  T
   6    -13.1934012 -0.252996E-03  0.247E-01    4.83       1.0  T
   7    -13.1936098 -0.208526E-03  0.603E-02    4.89       1.0  T
   8    -13.1936119 -0.212490E-05  0.175E-02    4.86       2.3  T
   9    -13.1936131 -0.125394E-05  0.586E-03    4.87       7.0  T
  10    -13.1936133 -0.121427E-06  0.620E-04    4.87      65.8  T
  11    -13.1936133 -0.113522E-08  0.202E-04    4.87     202.5  T

   *** convergence criteria satisfied after 11 iterations ***

         #    Occupation            Energy/Eh            Energy/eV
      -------------------------------------------------------------
         1        2.0000           -0.8853236             -24.0909
       ...           ...                  ...                  ...
         5        2.0000           -0.3284420              -8.9374
         6        2.0000           -0.2991436              -8.1401
         7        2.0000           -0.2433520              -6.6219
         8        2.0000           -0.2433461              -6.6218
         9        2.0000           -0.1398240              -3.8048
        10        2.0000           -0.1398191              -3.8047
        11        2.0000           -0.1373911              -3.7386 (HOMO)
        12                          0.0417297               1.1355 (LUMO)
        13                          0.2089837               5.6867
        14                          0.2089855               5.6868
        15                          0.2140922               5.8257
        16                          0.2141025               5.8260
       ...                                ...                  ...
        20                          0.4322143              11.7611
      -------------------------------------------------------------
                  HL-Gap            0.1791208 Eh            4.8741 eV
             Fermi-level           -0.0478307 Eh           -1.3015 eV

 SCC (total)                   0 d,  0 h,  0 min,  0.003 sec
 SCC setup                      ...        0 min,  0.000 sec (  2.377%)
 Dispersion                     ...        0 min,  0.000 sec (  0.501%)
 integral evaluation            ...        0 min,  0.001 sec ( 25.002%)
 zeroth order Hamiltonian       ...        0 min,  0.000 sec (  0.622%)
 iterations                     ...        0 min,  0.001 sec ( 40.962%)
 molecular gradient             ...        0 min,  0.001 sec ( 27.407%)
 printout                       ...        0 min,  0.000 sec (  2.330%)

         :::::::::::::::::::::::::::::::::::::::::::::::::::::
         ::                     SUMMARY                     ::
         :::::::::::::::::::::::::::::::::::::::::::::::::::::
         :: total energy              -9.901191254547 Eh    ::
         :: gradient norm             16.034976995915 Eh/a0 ::
         :: HOMO-LUMO gap              4.874125390429 eV    ::
         ::.................................................::
         :: SCC energy               -13.193613266182 Eh    ::
         :: -> isotropic ES            0.209635240565 Eh    ::
         :: -> anisotropic ES         -0.009364241418 Eh    ::
         :: -> anisotropic XC         -0.013783652150 Eh    ::
         :: -> dispersion             -0.002239126334 Eh    ::
         :: repulsion energy           0.059398528966 Eh    ::
         :: add. restraining           3.233023481217 Eh    ::
         :::::::::::::::::::::::::::::::::::::::::::::::::::::

      ----------------------------------------------------------- 
     |                   =====================                   |
     |                        A N C O P T                        |
     |                   =====================                   |
     |               Approximate Normal Coordinate               |
     |                Rational Function Optimizer                |
      ----------------------------------------------------------- 

          ...................................................
          :                      SETUP                      :
          :.................................................:
          :   optimization level            normal          :
          :   max. optcycles                   200          :
          :   ANC micro-cycles                  20          :
          :   degrees of freedom                12          :
          :.................................................:
          :   RF solver                   davidson          :
          :   write xtbopt.log                true          :
          :   linear?                        false          :
          :   energy convergence         0.5000000E-05 Eh   :
          :   grad. convergence          0.1000000E-02 Eh/α :
          :   maximium RF displ.         1.0000000          :
          :   Hlow (freq-cutoff)         0.1000000E-01      :
          :   Hmax (freq-cutoff)         5.0000000          :
          :   S6 in model hess.         20.0000000          :
          ...................................................

generating ANC from model Hessian ...
Using Lindh-Hessian (1995)
 Shifting diagonal of input Hessian by   0.000000000000000E+000
 Lowest  eigenvalues of input Hessian
   -0.000000   -0.000000    0.000000    0.000000    0.000000    0.000000
    0.088148    0.089315    0.132577    0.132589    0.132888    0.450001
    0.641847    0.641966    5.596442    5.613263   20.275883   60.951125
 Highest eigenvalues
    0.641847    0.641966    5.596442    5.613263   20.275883   60.951125
 

........................................................................
.............................. CYCLE    1 ..............................
........................................................................
   1    -13.1936133 -0.131936E+02  0.123E-05    4.87       0.0  T
   2    -13.1936133 -0.426326E-12  0.611E-06    4.87    6677.9  T
   3    -13.1936133 -0.532907E-13  0.481E-06    4.87    8487.2  T
     SCC iter.                  ...        0 min,  0.000 sec
     gradient                   ...        0 min,  0.001 sec
 * total energy  :    -9.9011913 Eh     change       -0.1313134E-07 Eh
   gradient norm :    16.0349837 Eh/α   predicted     0.0000000E+00 (-100.00%)
   displ. norm   :     0.8561732 α      lambda       -0.1372871E+02
   maximum displ.:     0.7385863 α      in ANC's #9, #12, #6, ...

........................................................................
.............................. CYCLE    2 ..............................
........................................................................
   1    -13.1485960 -0.131486E+02  0.396E+00    8.42       0.0  T
   2    -13.1758370 -0.272410E-01  0.184E+00   10.53       1.0  T
   3    -13.1828837 -0.704679E-02  0.854E-01   10.08       1.0  T
   4    -13.1834953 -0.611600E-03  0.399E-01    9.98       1.0  T
   5    -13.1836881 -0.192773E-03  0.247E-01   10.00       1.0  T
   6    -13.1838217 -0.133590E-03  0.542E-02   10.09       1.0  T
   7    -13.1838247 -0.295293E-05  0.109E-02   10.10       3.7  T
   8    -13.1838248 -0.139797E-06  0.149E-03   10.10      27.4  T
   9    -13.1838248 -0.560265E-09  0.443E-04   10.10      92.1  T
     SCC iter.                  ...        0 min,  0.001 sec
     gradient                   ...        0 min,  0.001 sec
 * total energy  :    -5.2772892 Eh     change        0.4623902E+01 Eh
   gradient norm :    30.7022228 Eh/α   predicted    -0.1189616E+02 (-357.28%)
   displ. norm   :     0.4889606 α      lambda       -0.1406934E+02
   maximum displ.:     0.4630245 α      in ANC's #9, #12, #5, ...

........................................................................
.............................. CYCLE    3 ..............................
........................................................................
   1    -13.1187169 -0.131187E+02  0.286E+00    9.16       0.0  T
   2    -13.1336491 -0.149322E-01  0.143E+00    8.45       1.0  T
   3    -13.1379268 -0.427776E-02  0.831E-01    7.90       1.0  T
   4    -13.1387739 -0.847086E-03  0.423E-01    7.92       1.0  T
   5    -13.1391582 -0.384252E-03  0.276E-01    7.82       1.0  T
   6    -13.1393160 -0.157850E-03  0.130E-01    7.87       1.0  T
   7    -13.1393525 -0.364761E-04  0.199E-02    7.82       2.0  T
   8    -13.1393534 -0.875151E-06  0.141E-03    7.83      29.0  T
   9    -13.1393534 -0.292077E-08  0.514E-04    7.83      79.5  T
     SCC iter.                  ...        0 min,  0.001 sec
     gradient                   ...        0 min,  0.001 sec
 * total energy  :   -12.6592915 Eh     change       -0.7382002E+01 Eh
   gradient norm :     4.8445804 Eh/α   predicted    -0.8716538E+01 (  18.08%)
   displ. norm   :     0.5427309 α      lambda       -0.2343757E+01
   maximum displ.:     0.5353964 α      in ANC's #12, #9, #6, ...

........................................................................
.............................. CYCLE    4 ..............................
........................................................................
   1    -13.1888301 -0.131888E+02  0.186E+00    5.94       0.0  T
   2    -13.1949067 -0.607654E-02  0.106E+00    5.96       1.0  T
   3    -13.1956324 -0.725767E-03  0.674E-01    5.78       1.0  T
   4    -13.1961083 -0.475868E-03  0.367E-01    5.79       1.0  T
   5    -13.1963214 -0.213104E-03  0.273E-01    5.82       1.0  T
   6    -13.1965282 -0.206823E-03  0.436E-02    5.87       1.0  T
   7    -13.1965320 -0.378611E-05  0.167E-02    5.87       2.4  T
   8    -13.1965326 -0.566128E-06  0.418E-03    5.87       9.8  T
   9    -13.1965326 -0.141234E-07  0.163E-03    5.87      25.0  T
     SCC iter.                  ...        0 min,  0.001 sec
     gradient                   ...        0 min,  0.001 sec
 * total energy  :   -11.8530731 Eh     change        0.8062184E+00 Eh
   gradient norm :     7.4008286 Eh/α   predicted    -0.1517064E+01 (-288.17%)
   displ. norm   :     0.3115951 α      lambda       -0.2248477E+01
   maximum displ.:     0.3089360 α      in ANC's #12, #9, #5, ...

........................................................................
.............................. CYCLE    5 ..............................
........................................................................
   1    -13.1678911 -0.131679E+02  0.960E-01    7.11       0.0  T
   2    -13.1689196 -0.102852E-02  0.600E-01    7.13       1.0  T
   3    -13.1691288 -0.209259E-03  0.349E-01    7.20       1.0  T
   4    -13.1692805 -0.151622E-03  0.203E-01    7.20       1.0  T
   5    -13.1693668 -0.863744E-04  0.127E-01    7.17       1.0  T
   6    -13.1694069 -0.400431E-04  0.118E-02    7.16       3.5  T
   7    -13.1694069 -0.607671E-07  0.578E-03    7.16       7.1  T
   8    -13.1694070 -0.180193E-07  0.759E-04    7.16      53.8  T
     SCC iter.                  ...        0 min,  0.001 sec
     gradient                   ...        0 min,  0.001 sec
 * total energy  :   -13.0892325 Eh     change       -0.1236159E+01 Eh
   gradient norm :     0.7137693 Eh/α   predicted    -0.1233393E+01 (  -0.22%)
   displ. norm   :     0.1209803 α      lambda       -0.2718801E-01
   maximum displ.:     0.1119480 α      in ANC's #5, #12, #6, ...

........................................................................
.............................. CYCLE    6 ..............................
........................................................................
   1    -13.1589282 -0.131589E+02  0.310E-01    7.30       0.0  T
   2    -13.1590130 -0.847578E-04  0.168E-01    7.32       1.0  T
   3    -13.1590272 -0.142009E-04  0.737E-02    7.35       1.0  T
   4    -13.1590326 -0.546283E-05  0.467E-02    7.34       1.0  T
   5    -13.1590370 -0.431626E-05  0.301E-02    7.34       1.4  T
   6    -13.1590393 -0.233945E-05  0.454E-03    7.33       9.0  T
   7    -13.1590393 -0.144562E-07  0.728E-04    7.33      56.1  T
     SCC iter.                  ...        0 min,  0.000 sec
     gradient                   ...        0 min,  0.001 sec
 * total energy  :   -13.1025578 Eh     change       -0.1332529E-01 Eh
   gradient norm :     0.0068507 Eh/α   predicted    -0.1379298E-01 (   3.51%)
   displ. norm   :     0.0386454 α      lambda       -0.2188071E-03
   maximum displ.:     0.0383130 α      in ANC's #5, #6, #4, ...

........................................................................
.............................. CYCLE    7 ..............................
........................................................................
   1    -13.1596556 -0.131597E+02  0.786E-02    7.31       0.0  T
   2    -13.1596598 -0.424413E-05  0.391E-02    7.30       1.0  T
   3    -13.1596604 -0.569587E-06  0.862E-03    7.29       4.7  T
   4    -13.1596604 -0.676672E-07  0.440E-03    7.29       9.3  T
   5    -13.1596605 -0.258300E-07  0.326E-03    7.29      12.5  T
   6    -13.1596605 -0.310631E-07  0.445E-04    7.29      91.7  T
   7    -13.1596605 -0.148182E-09  0.123E-04    7.29     331.1  T
     SCC iter.                  ...        0 min,  0.000 sec
     gradient                   ...        0 min,  0.001 sec
 * total energy  :   -13.1026221 Eh     change       -0.6431941E-04 Eh
   gradient norm :     0.0085063 Eh/α   predicted    -0.1095696E-03 (  70.35%)
   displ. norm   :     0.0114438 α      lambda       -0.3340094E-04
   maximum displ.:     0.0112285 α      in ANC's #5, #6, #4, ...

........................................................................
.............................. CYCLE    8 ..............................
........................................................................
   1    -13.1591461 -0.131591E+02  0.227E-02    7.30       0.0  T
   2    -13.1591465 -0.334932E-06  0.113E-02    7.30       3.6  T
   3    -13.1591465 -0.442463E-07  0.259E-03    7.30      15.8  T
   4    -13.1591465 -0.537102E-08  0.143E-03    7.30      28.6  T
     SCC iter.                  ...        0 min,  0.000 sec
     gradient                   ...        0 min,  0.001 sec
 * total energy  :   -13.1026396 Eh     change       -0.1748920E-04 Eh
   gradient norm :     0.0004933 Eh/α   predicted    -0.1670287E-04 (  -4.50%)
   displ. norm   :     0.0015964 α      lambda       -0.4574030E-06
   maximum displ.:     0.0015532 α      in ANC's #6, #5, #4, ...

........................................................................
.............................. CYCLE    9 ..............................
........................................................................
   1    -13.1589542 -0.131590E+02  0.238E-03    7.30       0.0  T
   2    -13.1589542 -0.366522E-08  0.142E-03    7.30      28.7  T
   3    -13.1589542 -0.144515E-08  0.840E-04    7.30      48.6  T
   4    -13.1589542 -0.916668E-09  0.593E-04    7.30      68.8  T
     SCC iter.                  ...        0 min,  0.000 sec
     gradient                   ...        0 min,  0.001 sec
 * total energy  :   -13.1026399 Eh     change       -0.2870270E-06 Eh
   gradient norm :     0.0002397 Eh/α   predicted    -0.2297745E-06 ( -19.95%)
   displ. norm   :     0.0003082 α      lambda       -0.2098985E-07
   maximum displ.:     0.0002361 α      in ANC's #5, #6, #8, ...

   *** GEOMETRY OPTIMIZATION CONVERGED AFTER 9 ITERATIONS ***

------------------------------------------------------------------------
 total energy gain   :        -3.2014486 Eh    -2008.9394 kcal/mol
 total RMSD          :         0.1942897 a0        0.1028 Å
 total power (kW/mol):      -933.9335830 (step)********** (real)
------------------------------------------------------------------------

 ANCopt (total)                0 d,  0 h,  0 min,  0.018 sec
 optimizer setup                ...        0 min,  0.000 sec (  0.317%)
 model hessian                  ...        0 min,  0.000 sec (  0.617%)
 ANC generation                 ...        0 min,  0.000 sec (  0.351%)
 coordinate transformation      ...        0 min,  0.000 sec (  0.213%)
 single point calculation       ...        0 min,  0.017 sec ( 94.432%)
 optimization log               ...        0 min,  0.000 sec (  1.167%)
 hessian update                 ...        0 min,  0.000 sec (  0.143%)
 rational function              ...        0 min,  0.000 sec (  1.291%)

================
 final structure:
================
6
 xtb: 6.2.3 (830e466)
F        -2.29115125115868   -0.13450204364664    0.04120047228305
Cl        1.09569109277975    0.06517370301270   -0.01700763426136
C        -0.68699128865433   -0.03975543588212    0.01282565850258
H        -0.73412502868364   -0.63573166460316   -0.89633222448564
H        -0.70808870674568   -0.53417689245246    0.98192751617619
H        -0.81827481753743    1.03892233357168   -0.04389378821482
 
 Bond Distances (Angstroems)
 ---------------------------
F1-C3=1.6072         Cl2-C3=1.7860        C3-F1=1.6072         C3-Cl2=1.7860        C3-H4=1.0881         C3-H5=1.0881         
C3-H6=1.0881         H4-C3=1.0881         H5-C3=1.0881         H6-C3=1.0881         
 C  H  Rav=1.0881 sigma=0.0000  Rmin=1.0881  Rmax=1.0881     3
 F  C  Rav=1.6072 sigma=0.0000  Rmin=1.6072  Rmax=1.6072     1
 Cl C  Rav=1.7860 sigma=0.0000  Rmin=1.7860  Rmax=1.7860     1
 
 selected bond angles (degree)
 --------------------
Cl2-C3-F1=179.94               H4-C3-F1= 86.52                H4-C3-Cl2= 93.52               H5-C3-F1= 86.45                
H5-C3-Cl2= 93.49               H5-C3-H4=119.63                H6-C3-F1= 86.50                H6-C3-Cl2= 93.52               
H6-C3-H4=119.62                H6-C3-H5=119.64                
 
 selected dihedral angles (degree)
 ---------------------------------

 
 CMA Distance (Angstroems)
 ---------------------------
R(CMA):  2.8574
           -------------------------------------------------
          |                Final Singlepoint                |
           -------------------------------------------------

          ...................................................
          :                      SETUP                      :
          :.................................................:
          :  # basis functions                  21          :
          :  # atomic orbitals                  20          :
          :  # shells                           10          :
          :  # electrons                        22          :
          :  max. iterations                   250          :
          :  Hamiltonian                  GFN2-xTB          :
          :  restarted?                      false          :
          :  GBSA solvation                  false          :
          :  PC potential                    false          :
          :  electronic temp.          300.0000000     K    :
          :  accuracy                    1.0000000          :
          :  -> integral cutoff          0.2500000E+02      :
          :  -> integral neglect         0.1000000E-07      :
          :  -> SCF convergence          0.1000000E-05 Eh   :
          :  -> wf. convergence          0.1000000E-03 e    :
          :  Broyden damping             0.4000000          :
          ...................................................

 iter      E             dE          RMSdq      gap      omega  full diag
   1    -13.1589542 -0.131590E+02  0.398E-04    7.30       0.0  T
   2    -13.1589542 -0.120520E-09  0.317E-04    7.30     128.7  T
   3    -13.1589542 -0.163967E-09  0.193E-04    7.30     211.3  T

   *** convergence criteria satisfied after 3 iterations ***

         #    Occupation            Energy/Eh            Energy/eV
      -------------------------------------------------------------
         1        2.0000           -0.8655108             -23.5517
       ...           ...                  ...                  ...
         5        2.0000           -0.3332607              -9.0685
         6        2.0000           -0.2985861              -8.1249
         7        2.0000           -0.2275564              -6.1921
         8        2.0000           -0.2275557              -6.1921
         9        2.0000           -0.2021192              -5.4999
        10        2.0000           -0.2021030              -5.4995
        11        2.0000           -0.1714811              -4.6662 (HOMO)
        12                          0.0967638               2.6331 (LUMO)
        13                          0.2380555               6.4778
        14                          0.2380563               6.4778
        15                          0.2481019               6.7512
        16                          0.2481121               6.7515
       ...                                ...                  ...
        20                          0.4199164              11.4265
      -------------------------------------------------------------
                  HL-Gap            0.2682449 Eh            7.2993 eV
             Fermi-level           -0.0373587 Eh           -1.0166 eV

 SCC (total)                   0 d,  0 h,  0 min,  0.002 sec
 SCC setup                      ...        0 min,  0.000 sec (  2.718%)
 Dispersion                     ...        0 min,  0.000 sec (  0.408%)
 integral evaluation            ...        0 min,  0.001 sec ( 37.797%)
 zeroth order Hamiltonian       ...        0 min,  0.000 sec (  1.718%)
 iterations                     ...        0 min,  0.000 sec ( 13.773%)
 molecular gradient             ...        0 min,  0.001 sec ( 39.938%)
 printout                       ...        0 min,  0.000 sec (  2.605%)

         :::::::::::::::::::::::::::::::::::::::::::::::::::::
         ::                     SUMMARY                     ::
         :::::::::::::::::::::::::::::::::::::::::::::::::::::
         :: total energy             -13.102639883809 Eh    ::
         :: gradient norm              0.000239882991 Eh/a0 ::
         :: HOMO-LUMO gap              7.299316153698 eV    ::
         ::.................................................::
         :: SCC energy               -13.158954205780 Eh    ::
         :: -> isotropic ES            0.174729631049 Eh    ::
         :: -> anisotropic ES         -0.016295756173 Eh    ::
         :: -> anisotropic XC         -0.029867736379 Eh    ::
         :: -> dispersion             -0.002403132418 Eh    ::
         :: repulsion energy           0.055815472824 Eh    ::
         :: add. restraining           0.000498831323 Eh    ::
         :::::::::::::::::::::::::::::::::::::::::::::::::::::

           -------------------------------------------------
          |                Property Printout                |
           -------------------------------------------------

    * Orbital Energies and Occupations

         #    Occupation            Energy/Eh            Energy/eV
      -------------------------------------------------------------
         1        2.0000           -0.8655108             -23.5517
         2        2.0000           -0.5137021             -13.9785
         3        2.0000           -0.4084524             -11.1146
         4        2.0000           -0.3332662              -9.0686
         5        2.0000           -0.3332607              -9.0685
         6        2.0000           -0.2985861              -8.1249
         7        2.0000           -0.2275564              -6.1921
         8        2.0000           -0.2275557              -6.1921
         9        2.0000           -0.2021192              -5.4999
        10        2.0000           -0.2021030              -5.4995
        11        2.0000           -0.1714811              -4.6662 (HOMO)
        12                          0.0967638               2.6331 (LUMO)
        13                          0.2380555               6.4778
        14                          0.2380563               6.4778
        15                          0.2481019               6.7512
        16                          0.2481121               6.7515
        17                          0.2670564               7.2670
        18                          0.4147812              11.2868
        19                          0.4198361              11.4243
        20                          0.4199164              11.4265
      -------------------------------------------------------------
                  HL-Gap            0.2682449 Eh            7.2993 eV
             Fermi-level           -0.0373587 Eh           -1.0166 eV

     #   Z        covCN         q      C6AA      α(0)
     1   9 F      0.723    -0.627    16.753     4.834
     2  17 Cl     0.906    -0.572   118.374    16.645
     3   6 C      4.384     0.193    17.473     5.936
     4   1 H      0.931     0.002     3.024     2.719
     5   1 H      0.931     0.002     3.023     2.719
     6   1 H      0.931     0.002     3.024     2.719

 Mol. C6AA /au·bohr⁶  :        587.840371
 Mol. C8AA /au·bohr⁸  :      16204.023493
 Mol. α(0) /au        :         35.572111


Wiberg/Mayer (AO) data.
largest (>0.10) Wiberg bond orders for each atom
          total WBO             WBO to atom ...
     1  F   0.609        C    3 0.455    Cl   2 0.122
     2  Cl  0.684        C    3 0.537    F    1 0.122
     3  C   3.932        H    4 0.980    H    6 0.980    H    5 0.980    Cl   2 0.537    F    1 0.455
     4  H   1.000        C    3 0.980
     5  H   1.000        C    3 0.980
     6  H   1.000        C    3 0.980

molecular dipole:
                 x           y           z       tot (Debye)
 q only:        1.273       0.074      -0.026
   full:        0.416       0.024      -0.011       1.060
molecular quadrupole (traceless):
                xx          xy          yy          xz          yz          zz
 q only:      -13.854      -1.226       6.894       0.365       0.021       6.960
  q+dip:      -21.042      -1.864      10.471       0.546       0.032      10.571
   full:      -19.136      -1.695       9.522       0.497       0.029       9.614

           -------------------------------------------------
          |                Geometry Summary                 |
           -------------------------------------------------

      molecular mass/u    :       69.4858989
   center of mass at/Å    :       -0.2189287      -0.0122938       0.0054090
  moments of inertia/u·Å² :        0.3566822E+01   0.1486820E+03   0.1486825E+03
rotational constants/cm⁻¹ :        0.4726234E+01   0.1133805E+00   0.1133801E+00

 * 4 selected distances

     #   Z        #   Z                                     value/Å
     2  17 Cl     3   6 C                                 1.7860170 (max)
     3   6 C      4   1 H                                 1.0881072 (min)
     3   6 C      5   1 H                                 1.0881434
     3   6 C      6   1 H                                 1.0881168

 * 2 distinct bonds (by element types)

   Z      Z             #   av. dist./Å        max./Å        min./Å
   1 H    6 C           3     1.0881225     1.0881434     1.0881072
   6 C   17 Cl          1     1.7860170     1.7860170     1.7860170


optimized geometry written to: xtbopt.xyz


           -------------------------------------------------
          | TOTAL ENERGY              -13.102639883809 Eh   |
          | GRADIENT NORM               0.000239882991 Eh/α |
          | HOMO-LUMO GAP               7.299316153698 eV   |
           -------------------------------------------------

------------------------------------------------------------------------
 * finished run on 2020/04/08 at 23:04:51.071     
------------------------------------------------------------------------
 total:
 * wall-time:     0 d,  0 h,  0 min,  0.029 sec
 *  cpu-time:     0 d,  0 h,  0 min,  0.029 sec
 * ratio c/w:     0.999 speedup
 SCF:
 * wall-time:     0 d,  0 h,  0 min,  0.003 sec
 *  cpu-time:     0 d,  0 h,  0 min,  0.003 sec
 * ratio c/w:     1.000 speedup
 ANC optimizer:
 * wall-time:     0 d,  0 h,  0 min,  0.020 sec
 *  cpu-time:     0 d,  0 h,  0 min,  0.020 sec
 * ratio c/w:     1.000 speedup

