      -----------------------------------------------------------      
     |                   =====================                   |     
     |                           x T B                           |     
     |                   =====================                   |     
     |                         S. Grimme                         |     
     |          Mulliken Center for Theoretical Chemistry        |     
     |                    University of Bonn                     |     
      -----------------------------------------------------------      

   * xtb version 6.2.3 (830e466) compiled by 'ehlert@majestix' on 2020-03-16

   xtb is free software: you can redistribute it and/or modify it under
   the terms of the GNU Lesser General Public License as published by
   the Free Software Foundation, either version 3 of the License, or
   (at your option) any later version.
   
   xtb is distributed in the hope that it will be useful,
   but WITHOUT ANY WARRANTY; without even the implied warranty of
   MERCHANTABILITY or FITNESS FOR A PARTICULAR PURPOSE.  See the
   GNU Lesser General Public License for more details.
   
   Cite this work as:
   * S. Grimme, C. Bannwarth, P. Shushkov, J. Chem. Theory Comput., 2017,
     13, 1989-2009. DOI: 10.1021/acs.jctc.7b00118
   * C. Bannwarth, S. Ehlert and S. Grimme., J. Chem. Theory Comput., 2019,
     15, 1652-1671. DOI: 10.1021/acs.jctc.8b01176
   * P. Pracht, E. Caldeweyher, S. Ehlert, S. Grimme, ChemRxiv, 2019, preprint.
     DOI: 10.26434/chemrxiv.8326202.v1
   
   for DFT-D4:
   * E. Caldeweyher, C. Bannwarth and S. Grimme, J. Chem. Phys., 2017,
     147, 034112. DOI: 10.1063/1.4993215
   * E. Caldeweyher, S. Ehlert, A. Hansen, H. Neugebauer, S. Spicher,
     C. Bannwarth and S. Grimme, J. Chem. Phys., 2019, 150, 154122.
     DOI: 10.1063/1.5090222
   
   for sTDA-xTB:
   * S. Grimme and C. Bannwarth, J. Chem. Phys., 2016, 145, 054103.
     DOI: 10.1063/1.4959605
   
   in the mass-spec context:
   * V. Asgeirsson, C. Bauer and S. Grimme, Chem. Sci., 2017, 8, 4879.
     DOI: 10.1039/c7sc00601b
   
   for metadynamics refer to:
   * S. Grimme, J. Chem. Theory Comput., 2019, 155, 2847-2862
     DOI: 10.1021/acs.jctc.9b00143
   
   with help from (in alphabetical order)
   C. Bannwarth, F. Bohle, G. Brandenburg, E. Caldeweyher, M. Checinski,
   S. Dohm, S. Ehlert, S. Ehrlich, F. März, H. Neugebauer, J. Pisarek,
   P. Pracht, P. Shushkov, and S. Spicher.
   
 * started run on 2020/04/08 at 13:05:40.777     

           -------------------------------------------------
          |                Calculation Setup                |
           -------------------------------------------------

          program call               : /home/tom/.local/bin/xtb SN2_PES_scan_3-5_xtb.xyz --chrg -1 --opt --input xcontrol_SN2_PES_scan_3-5
          coordinate file            : SN2_PES_scan_3-5_xtb.xyz
          omp threads                :                     2
          number of atoms            :                     6
          number of electrons        :                    22
          charge                     :                    -1
          spin                       :                   0.0
          first test random number   :      0.45713829475304

constraining bond 1 3 to    2.5000000 Å, actual value:    2.9997452 Å
constraining bond 2 3 to    4.0000000 Å, actual value:    3.5558629 Å

molecular fragmentation (1/2 indicates fragments):
122222
# atoms in fragment 1/2:     1     5
 fragment masses (1/2) :       19.00       50.49
CMA distance (Bohr)    :  10.387
constraining FC (au)   : 10.0000
########################################################################
[WARNING] Please study the warnings concerning your input carefully
-2- prog_main: XTBPATH is not set, using XTBHOME instead
-1- prog_main: XTBHOME is not set, using HOME instead
########################################################################
           ------------------------------------------------- 
          |                 G F N 2 - x T B                 |
          | Geometry, Frequencies, Noncovalent interactions |
          |            JCTC 2019 parametrisation            |
           ------------------------------------------------- 
             k(s)              :                1.8500
             k(p)              :                2.2300
             k(d)              :                2.2300
             k(f)              :                2.0000
             kEN (H0ij)        :               -2.0000
             D4 a1             :                0.5200
             D4 a2             :                5.0000
             D4 s6             :                1.0000
             D4 s8             :                2.7000
             D4 s9             :                5.0000
             alphaj            :                2.0000

  Z AO/shell   Hii/eV     exponent
  1     Wed Apr 25 08:07:45 CEST 2018   EN: 2.200 GM2: 0.406  GM3: 0.0800  RAES: 1.40
     1s    -10.707211    1.230000
  6     Wed Apr 25 08:07:45 CEST 2018   EN: 2.550 GM2: 0.538  GM3: 0.1500  RAES: 3.00
     2s    -13.970922    2.096432
     2p    -10.063292    1.800000
  9     Mon Apr 23 13:58:50 CEST 2018   EN: 3.980 GM2: 0.532  GM3: 0.1426  RAES: 2.40
     2s    -23.458179    2.416361
     2p    -15.746583    2.308399
 17     Mon Apr 23 14:09:22 CEST 2018   EN: 3.160 GM2: 0.249  GM3: 0.1495  RAES: 2.50
     3s    -29.278781    2.485265
     3p    -12.673758    2.199650
     3d     -0.240338    2.476089

           ------------------------------------------------- 
          |        Self-Consistent Charge Iterations        |
           ------------------------------------------------- 

          ...................................................
          :                      SETUP                      :
          :.................................................:
          :  # basis functions                  21          :
          :  # atomic orbitals                  20          :
          :  # shells                           10          :
          :  # electrons                        22          :
          :  max. iterations                   250          :
          :  Hamiltonian                  GFN2-xTB          :
          :  restarted?                      false          :
          :  GBSA solvation                  false          :
          :  PC potential                    false          :
          :  electronic temp.          300.0000000     K    :
          :  accuracy                    1.0000000          :
          :  -> integral cutoff          0.2500000E+02      :
          :  -> integral neglect         0.1000000E-07      :
          :  -> SCF convergence          0.1000000E-05 Eh   :
          :  -> wf. convergence          0.1000000E-03 e    :
          :  Broyden damping             0.4000000          :
          ...................................................

 iter      E             dE          RMSdq      gap      omega  full diag
   1    -12.8486894 -0.128487E+02  0.102E+01    1.30       0.0  T
   2    -12.1586324  0.690057E+00  0.105E+01    0.00       1.0  T
   3    -13.0492866 -0.890654E+00  0.477E+00    0.13       1.0  T
   4    -12.9082123  0.141074E+00  0.731E+00    1.02       1.0  T
   5    -12.4111445  0.497068E+00  0.113E+01    0.00       1.0  T
   6    -12.4128631 -0.171861E-02  0.112E+01    0.00       1.0  T
   7    -12.4516358 -0.387727E-01  0.911E+00    0.05       1.0  T
   8    -12.7744134 -0.322778E+00  0.694E+00    0.09       1.0  T
   9    -12.9373787 -0.162965E+00  0.572E+00    0.73       1.0  T
  10    -12.9438452 -0.646655E-02  0.556E+00    0.72       1.0  T
  11    -12.9687268 -0.248816E-01  0.501E+00    0.72       1.0  T
  12    -12.9772263 -0.849949E-02  0.487E+00    0.70       1.0  T
  13    -12.9709686  0.625770E-02  0.497E+00    0.73       1.0  T
  14    -13.0155626 -0.445940E-01  0.422E+00    0.47       1.0  T
  15    -13.0091786  0.638404E-02  0.427E+00    0.53       1.0  T
  16    -13.0693168 -0.601382E-01  0.310E+00    0.33       1.0  T
  17    -13.0035314  0.657855E-01  0.426E+00    0.41       1.0  T
  18    -13.0112182 -0.768679E-02  0.411E+00    0.39       1.0  T
  19    -12.9909305  0.202876E-01  0.455E+00    0.52       1.0  T
  20    -12.9932127 -0.228211E-02  0.456E+00    0.61       1.0  T
  21    -12.9928166  0.396029E-03  0.459E+00    0.61       1.0  T
  22    -12.9924097  0.406898E-03  0.460E+00    0.61       1.0  T
  23    -13.0219465 -0.295368E-01  0.410E+00    0.47       1.0  T
  24    -13.1204508 -0.985043E-01  0.106E+00    0.23       1.0  T
  25    -13.0532496  0.672012E-01  0.363E+00    0.36       1.0  T
  26    -12.5768606  0.476389E+00  0.906E+00    0.01       1.0  T
  27    -12.2865074  0.290353E+00  0.101E+01    0.04       1.0  T
  28    -12.9665926 -0.680085E+00  0.493E+00    0.66       1.0  T
  29    -12.9877667 -0.211741E-01  0.468E+00    0.45       1.0  T
  30    -13.1186514 -0.130885E+00  0.139E+00    0.16       1.0  T
  31    -13.0946949  0.239564E-01  0.240E+00    0.32       1.0  T
  32    -13.0925429  0.215202E-02  0.234E+00    0.12       1.0  T
  33    -12.8803779  0.212165E+00  0.541E+00    0.14       1.0  T
  34    -12.9505537 -0.701758E-01  0.564E+00    0.79       1.0  T
  35    -12.8477304  0.102823E+00  0.631E+00    0.05       1.0  T
  36    -13.0546113 -0.206881E+00  0.310E+00    0.18       1.0  T
  37    -12.9848147  0.697966E-01  0.508E+00    0.57       1.0  T
  38    -13.0910773 -0.106263E+00  0.236E+00    0.17       1.0  T
  39    -13.0546127  0.364646E-01  0.356E+00    0.36       1.0  T
  40    -12.8639540  0.190659E+00  0.641E+00    0.04       1.0  T
  41    -12.8777379 -0.137839E-01  0.557E+00    0.14       1.0  T
  42    -12.9510177 -0.732798E-01  0.564E+00    0.85       1.0  T
  43    -13.0887672 -0.137750E+00  0.235E+00    0.23       1.0  T
  44    -12.9550558  0.133711E+00  0.517E+00    0.06       1.0  T
  45    -13.0752737 -0.120218E+00  0.257E+00    0.20       1.0  T
  46    -13.0242659  0.510078E-01  0.429E+00    0.51       1.0  T
  47    -12.9803296  0.439363E-01  0.426E+00    0.15       1.0  T
  48    -13.0091725 -0.288429E-01  0.449E+00    0.46       1.0  T
  49    -13.0949795 -0.858070E-01  0.247E+00    0.12       1.0  T
  50    -13.1066535 -0.116740E-01  0.180E+00    0.31       1.0  T
  51    -12.9785597  0.128094E+00  0.470E+00    0.07       1.0  T
  52    -13.1053169 -0.126757E+00  0.183E+00    0.25       1.0  T
  53    -13.1119469 -0.662994E-02  0.151E+00    0.27       1.0  T
  54    -13.1145240 -0.257716E-02  0.140E+00    0.14       1.0  T
  55    -13.1189863 -0.446233E-02  0.987E-01    0.25       1.0  T
  56    -13.1113775  0.760889E-02  0.150E+00    0.13       1.0  T
  57    -13.1228105 -0.114331E-01  0.541E-01    0.21       1.0  T
  58    -13.1164139  0.639670E-02  0.117E+00    0.14       1.0  T
  59    -13.1236573 -0.724347E-02  0.378E-01    0.20       1.0  T
  60    -13.1217558  0.190155E-02  0.689E-01    0.15       1.0  T
  61    -13.1243354 -0.257965E-02  0.159E-01    0.19       1.0  T
  62    -13.1235861  0.749328E-03  0.395E-01    0.16       1.0  T
  63    -13.1244615 -0.875363E-03  0.524E-02    0.18       1.0  T
  64    -13.1242770  0.184434E-03  0.188E-01    0.17       1.0  T
  65    -13.1244748 -0.197778E-03  0.182E-02    0.18       2.2  T
  66    -13.1244378  0.370453E-04  0.834E-02    0.18       1.0  T
  67    -13.1244753 -0.375870E-04  0.151E-02    0.18       2.7  T
  68    -13.1244713  0.408335E-05  0.311E-02    0.18       1.3  T
  69    -13.1244761 -0.488315E-05  0.919E-03    0.18       4.4  T
  70    -13.1244761  0.368572E-07  0.952E-03    0.18       4.3  T
  71    -13.1244764 -0.338362E-06  0.526E-03    0.18       7.8  T
  72    -13.1244766 -0.152303E-06  0.721E-04    0.18      56.6  T
  73    -13.1244766  0.542499E-11  0.755E-04    0.18      54.1  T

   *** convergence criteria satisfied after 73 iterations ***

         #    Occupation            Energy/Eh            Energy/eV
      -------------------------------------------------------------
         1        2.0000           -0.8552393             -23.2722
       ...           ...                  ...                  ...
         5        2.0000           -0.3733694             -10.1599
         6        2.0000           -0.2432409              -6.6189
         7        1.9986           -0.2394949              -6.5170
         8        1.9986           -0.2394946              -6.5170
         9        1.9939           -0.2381161              -6.4795
        10        1.9604           -0.2363282              -6.4308
        11        1.9604           -0.2363275              -6.4308 (HOMO)
        12        0.0883           -0.2296992              -6.2504 (LUMO)
        13                          0.2324681               6.3258
        14                          0.2514559               6.8425
        15                          0.2516374               6.8474
        16                          0.2516381               6.8474
       ...                                ...                  ...
        20                          0.4005469              10.8994
      -------------------------------------------------------------
                  HL-Gap            0.0066283 Eh            0.1804 eV
             Fermi-level           -0.2326210 Eh           -6.3299 eV

 SCC (total)                   0 d,  0 h,  0 min,  0.027 sec
 SCC setup                      ...        0 min,  0.000 sec (  0.265%)
 Dispersion                     ...        0 min,  0.000 sec (  0.085%)
 integral evaluation            ...        0 min,  0.001 sec (  2.322%)
 zeroth order Hamiltonian       ...        0 min,  0.000 sec (  0.070%)
 iterations                     ...        0 min,  0.026 sec ( 94.646%)
 molecular gradient             ...        0 min,  0.001 sec (  2.257%)
 printout                       ...        0 min,  0.000 sec (  0.254%)

         :::::::::::::::::::::::::::::::::::::::::::::::::::::
         ::                     SUMMARY                     ::
         :::::::::::::::::::::::::::::::::::::::::::::::::::::
         :: total energy               2.897973881467 Eh    ::
         :: gradient norm             43.721984102621 Eh/a0 ::
         :: HOMO-LUMO gap              0.180364310054 eV    ::
         ::.................................................::
         :: SCC energy               -13.124476600844 Eh    ::
         :: -> isotropic ES            0.161002424655 Eh    ::
         :: -> anisotropic ES         -0.000878688707 Eh    ::
         :: -> anisotropic XC          0.006285189339 Eh    ::
         :: -> dispersion             -0.001546953969 Eh    ::
         :: repulsion energy           0.059690574030 Eh    ::
         :: add. restraining          15.962764340926 Eh    ::
         :::::::::::::::::::::::::::::::::::::::::::::::::::::

      ----------------------------------------------------------- 
     |                   =====================                   |
     |                        A N C O P T                        |
     |                   =====================                   |
     |               Approximate Normal Coordinate               |
     |                Rational Function Optimizer                |
      ----------------------------------------------------------- 

          ...................................................
          :                      SETUP                      :
          :.................................................:
          :   optimization level            normal          :
          :   max. optcycles                   200          :
          :   ANC micro-cycles                  20          :
          :   degrees of freedom                12          :
          :.................................................:
          :   RF solver                   davidson          :
          :   write xtbopt.log                true          :
          :   linear?                        false          :
          :   energy convergence         0.5000000E-05 Eh   :
          :   grad. convergence          0.1000000E-02 Eh/α :
          :   maximium RF displ.         1.0000000          :
          :   Hlow (freq-cutoff)         0.1000000E-01      :
          :   Hmax (freq-cutoff)         5.0000000          :
          :   S6 in model hess.         20.0000000          :
          ...................................................

generating ANC from model Hessian ...
Using Lindh-Hessian (1995)
 Shifting diagonal of input Hessian by   0.655369690364361     
 Lowest  eigenvalues of input Hessian
    0.010000    0.010137   -0.000000   -0.000000   -0.000000    0.000000
    0.000000    0.000000    0.655975    0.808229    0.808235    1.092929
    1.327830    1.327889    3.656968    3.657121   20.658394   60.656510
 Highest eigenvalues
    1.327830    1.327889    3.656968    3.657121   20.658394   60.656510
 

........................................................................
.............................. CYCLE    1 ..............................
........................................................................
   1    -13.1244766 -0.131245E+02  0.125E-04    0.18       0.0  T
   2    -13.1244766  0.169444E-07  0.174E-03    0.18      23.5  T
   3    -13.1244766 -0.167541E-07  0.204E-04    0.18     200.5  T
   4    -13.1244766 -0.276236E-09  0.213E-05    0.18    1916.4  T
     SCC iter.                  ...        0 min,  0.006 sec
     gradient                   ...        0 min,  0.000 sec
 * total energy  :     2.8979739 Eh     change        0.2216509E-07 Eh
   gradient norm :    43.7219825 Eh/α   predicted     0.0000000E+00 (-100.00%)
   displ. norm   :     0.9444539 α      lambda       -0.4129340E+02
   maximum displ.:     0.9438996 α      in ANC's #11, #12, #10, ...

........................................................................
.............................. CYCLE    2 ..............................
........................................................................
   1    -13.0352396 -0.130352E+02  0.348E+00    0.76       0.0  T
   2    -12.3419665  0.693273E+00  0.978E+00    0.00       1.0  T
   3    -12.9092988 -0.567332E+00  0.619E+00    1.02       1.0  T
   4    -13.0451053 -0.135806E+00  0.322E+00    0.29       1.0  T
   5    -12.3109411  0.734164E+00  0.925E+00    0.00       1.0  T
   6    -13.0291117 -0.718171E+00  0.322E+00    0.44       1.0  T
   7    -13.0690120 -0.399003E-01  0.222E+00    0.21       1.0  T
   8    -13.0948096 -0.257976E-01  0.842E-01    0.16       1.0  T
   9    -13.0977290 -0.291936E-02  0.610E-01    0.12       1.0  T
  10    -13.0979138 -0.184882E-03  0.591E-01    0.12       1.0  T
  11    -13.0978815  0.323820E-04  0.591E-01    0.12       1.0  T
  12    -13.0953912  0.249022E-02  0.745E-01    0.16       1.0  T
  13    -13.0951704  0.220820E-03  0.751E-01    0.16       1.0  T
  14    -13.0990408 -0.387033E-02  0.319E-01    0.14       1.0  T
  15    -13.0995338 -0.493072E-03  0.196E-01    0.13       1.0  T
  16    -13.0998081 -0.274315E-03  0.788E-02    0.13       1.0  T
  17    -13.0998469 -0.387686E-04  0.408E-02    0.12       1.0  T
  18    -13.0998563 -0.939204E-05  0.249E-02    0.12       1.6  T
  19    -13.0998603 -0.395609E-05  0.131E-02    0.12       3.1  T
  20    -13.0998580  0.228068E-05  0.202E-02    0.12       2.0  T
  21    -13.0998616 -0.357241E-05  0.294E-04    0.12     138.9  T
  22    -13.0998615  0.174357E-07  0.144E-03    0.12      28.4  T
     SCC iter.                  ...        0 min,  0.002 sec
     gradient                   ...        0 min,  0.000 sec
 * total energy  :   -11.6526111 Eh     change       -0.1455058E+02 Eh
   gradient norm :    12.9902479 Eh/α   predicted    -0.3906341E+02 ( 168.47%)
   displ. norm   :     0.2423363 α      lambda       -0.2796242E+01
   maximum displ.:     0.2073344 α      in ANC's #11, #12, #3, ...

........................................................................
.............................. CYCLE    3 ..............................
........................................................................
   1    -12.9473764 -0.129474E+02  0.452E+00    0.05       0.0  T
   2    -12.9468542  0.522263E-03  0.553E+00    1.55       1.0  T
   3    -12.8442263  0.102628E+00  0.670E+00    0.40       1.0  T
   4    -13.0860671 -0.241841E+00  0.251E+00    0.90       1.0  T
   5    -13.0918105 -0.574334E-02  0.204E+00    0.88       1.0  T
   6    -13.0952430 -0.343253E-02  0.170E+00    0.30       1.0  T
   7    -13.1141198 -0.188768E-01  0.473E-01    0.15       1.0  T
   8    -13.1108098  0.331003E-02  0.854E-01    0.17       1.0  T
   9    -13.0932108  0.175990E-01  0.185E+00    0.46       1.0  T
  10    -13.0944585 -0.124767E-02  0.176E+00    0.37       1.0  T
  11    -13.0944360  0.224107E-04  0.176E+00    0.37       1.0  T
  12    -13.1037616 -0.932556E-02  0.129E+00    0.21       1.0  T
  13    -12.5666854  0.537076E+00  0.804E+00    0.00       1.0  T
  14    -12.3702081  0.196477E+00  0.934E+00    0.00       1.0  T
  15    -13.0952031 -0.724995E+00  0.176E+00    0.31       1.0  T
  16    -12.3562658  0.738937E+00  0.961E+00    0.00       1.0  T
  17    -12.3565191 -0.253277E-03  0.975E+00    0.00       1.0  T
  18    -13.0915650 -0.735046E+00  0.197E+00    0.73       1.0  T
  19    -13.0907063  0.858711E-03  0.208E+00    0.87       1.0  T
  20    -13.0902090  0.497262E-03  0.214E+00    0.92       1.0  T
  21    -13.0893241  0.884839E-03  0.224E+00    0.93       1.0  T
  22    -13.0906505 -0.132631E-02  0.208E+00    0.80       1.0  T
  23    -13.0932042 -0.255378E-02  0.183E+00    0.45       1.0  T
  24    -13.1146695 -0.214653E-01  0.415E-01    0.15       1.0  T
  25    -12.9313101  0.183359E+00  0.473E+00    0.04       1.0  T
  26    -13.0903611 -0.159051E+00  0.209E+00    0.81       1.0  T
  27    -13.0944103 -0.404920E-02  0.175E+00    0.37       1.0  T
  28    -13.1131010 -0.186907E-01  0.603E-01    0.16       1.0  T
  29    -13.0127611  0.100340E+00  0.356E+00    0.06       1.0  T
  30    -13.0914188 -0.786578E-01  0.198E+00    0.66       1.0  T
  31    -13.0982808 -0.686201E-02  0.155E+00    0.27       1.0  T
  32    -13.0326906  0.655903E-01  0.321E+00    0.06       1.0  T
  33    -13.0918512 -0.591606E-01  0.194E+00    0.59       1.0  T
  34    -13.1015459 -0.969473E-02  0.139E+00    0.23       1.0  T
  35    -12.9265879  0.174958E+00  0.479E+00    0.04       1.0  T
  36    -13.0901943 -0.163606E+00  0.211E+00    0.87       1.0  T
  37    -13.0938216 -0.362733E-02  0.179E+00    0.40       1.0  T
  38    -13.1116551 -0.178335E-01  0.745E-01    0.17       1.0  T
  39    -12.9452646  0.166390E+00  0.455E+00    0.04       1.0  T
  40    -13.0901530 -0.144888E+00  0.211E+00    0.88       1.0  T
  41    -13.0941344 -0.398140E-02  0.177E+00    0.38       1.0  T
  42    -13.1142106 -0.200762E-01  0.465E-01    0.15       1.0  T
  43    -13.0329140  0.812965E-01  0.320E+00    0.06       1.0  T
  44    -13.0915345 -0.586205E-01  0.197E+00    0.65       1.0  T
  45    -13.0995025 -0.796802E-02  0.149E+00    0.25       1.0  T
  46    -12.9394632  0.160039E+00  0.463E+00    0.04       1.0  T
  47    -13.0900634 -0.150600E+00  0.212E+00    0.90       1.0  T
  48    -13.0941280 -0.406465E-02  0.177E+00    0.38       1.0  T
  49    -13.1143007 -0.201727E-01  0.452E-01    0.15       1.0  T
  50    -13.0166707  0.976300E-01  0.350E+00    0.06       1.0  T
  51    -13.0911044 -0.744338E-01  0.202E+00    0.72       1.0  T
  52    -13.0973741 -0.626968E-02  0.160E+00    0.28       1.0  T
  53    -13.0323350  0.650391E-01  0.322E+00    0.06       1.0  T
  54    -13.0915199 -0.591849E-01  0.197E+00    0.65       1.0  T
  55    -13.1001499 -0.863000E-02  0.146E+00    0.24       1.0  T
  56    -12.8765104  0.223639E+00  0.536E+00    0.03       1.0  T
  57    -13.0891416 -0.212631E+00  0.222E+00    0.93       1.0  T
  58    -13.0931829 -0.404132E-02  0.183E+00    0.45       1.0  T
  59    -13.1048502 -0.116673E-01  0.121E+00    0.21       1.0  T
  60    -12.7566208  0.348229E+00  0.653E+00    0.02       1.0  T
  61    -13.0874030 -0.330782E+00  0.241E+00    0.94       1.0  T
  62    -13.0922198 -0.481687E-02  0.191E+00    0.56       1.0  T
  63    -13.0965234 -0.430353E-02  0.164E+00    0.30       1.0  T
  64    -13.0610276  0.354957E-01  0.262E+00    0.07       1.0  T
  65    -13.0917546 -0.307270E-01  0.195E+00    0.62       1.0  T
  66    -13.1054474 -0.136927E-01  0.118E+00    0.20       1.0  T
  67    -12.6482456  0.457202E+00  0.741E+00    0.01       1.0  T
  68    -13.0856182 -0.437373E+00  0.259E+00    0.94       1.0  T
  69    -13.0916577 -0.603953E-02  0.196E+00    0.64       1.0  T
  70    -13.0945822 -0.292450E-02  0.174E+00    0.36       1.0  T
  71    -13.1156261 -0.210439E-01  0.174E-01    0.12       1.0  T
  72    -13.1139060  0.172011E-02  0.504E-01    0.15       1.0  T
  73    -12.8672139  0.246692E+00  0.547E+00    0.03       1.0  T
  74    -13.0875662 -0.220352E+00  0.239E+00    0.93       1.0  T
  75    -13.0928426 -0.527639E-02  0.186E+00    0.48       1.0  T
  76    -13.1006725 -0.782990E-02  0.144E+00    0.24       1.0  T
  77    -12.8634569  0.237216E+00  0.551E+00    0.03       1.0  T
  78    -13.0876169 -0.224160E+00  0.239E+00    0.93       1.0  T
  79    -13.0929388 -0.532188E-02  0.185E+00    0.47       1.0  T
  80    -13.1019319 -0.899309E-02  0.137E+00    0.23       1.0  T
  81    -12.7687519  0.333180E+00  0.642E+00    0.02       1.0  T
  82    -13.0861687 -0.317417E+00  0.253E+00    0.94       1.0  T
  83    -13.0923154 -0.614667E-02  0.190E+00    0.55       1.0  T
  84    -13.0968271 -0.451165E-02  0.162E+00    0.29       1.0  T
  85    -13.0348048  0.620222E-01  0.317E+00    0.06       1.0  T
  86    -13.0904746 -0.556697E-01  0.208E+00    0.83       1.0  T
  87    -13.0983935 -0.791894E-02  0.155E+00    0.27       1.0  T
  88    -12.7829699  0.315424E+00  0.629E+00    0.02       1.0  T
  89    -13.0862552 -0.303285E+00  0.252E+00    0.94       1.0  T
  90    -13.0924617 -0.620652E-02  0.189E+00    0.53       1.0  T
  91    -13.0982474 -0.578565E-02  0.155E+00    0.27       1.0  T
  92    -12.8944546  0.203793E+00  0.517E+00    0.03       1.0  T
  93    -13.0875407 -0.193086E+00  0.239E+00    0.93       1.0  T
  94    -13.0932784 -0.573772E-02  0.182E+00    0.44       1.0  T
  95    -13.1078038 -0.145254E-01  0.103E+00    0.19       1.0  T
  96    -12.6571203  0.450684E+00  0.734E+00    0.01       1.0  T
  97    -13.0837555 -0.426635E+00  0.277E+00    0.94       1.0  T
  98    -13.0917394 -0.798390E-02  0.196E+00    0.63       1.0  T
  99    -13.0942904 -0.255100E-02  0.176E+00    0.37       1.0  T
 100    -13.1158312 -0.215408E-01  0.465E-02    0.13       1.0  T
 101    -13.1158317 -0.482595E-06  0.201E-02    0.13       2.0  T
 102    -13.1070294  0.880237E-02  0.106E+00    0.10       1.0  T
 103    -13.0942121  0.128173E-01  0.176E+00    0.38       1.0  T
 104    -12.9400088  0.154203E+00  0.462E+00    0.04       1.0  T
 105    -13.0876653 -0.147657E+00  0.238E+00    0.93       1.0  T
 106    -13.0945076 -0.684227E-02  0.175E+00    0.36       1.0  T
 107    -13.0969369 -0.242926E-02  0.155E+00    0.09       1.0  T
 108    -13.0928923  0.404460E-02  0.185E+00    0.48       1.0  T
 109    -13.1109511 -0.180589E-01  0.794E-01    0.11       1.0  T
 110    -13.1000312  0.109200E-01  0.147E+00    0.25       1.0  T
 111    -12.4466016  0.653430E+00  0.881E+00    0.00       1.0  T
 112    -13.0780190 -0.631417E+00  0.327E+00    0.94       1.0  T
 113    -13.0912722 -0.132532E-01  0.201E+00    0.72       1.0  T
 114    -13.0936415 -0.236931E-02  0.180E+00    0.41       1.0  T
 115    -13.1155915 -0.219500E-01  0.177E-01    0.14       1.0  T
 116    -13.1066614  0.893013E-02  0.108E+00    0.10       1.0  T
 117    -13.0937538  0.129076E-01  0.179E+00    0.40       1.0  T
 118    -13.0957870 -0.203318E-02  0.160E+00    0.09       1.0  T
 119    -13.0929747  0.281229E-02  0.185E+00    0.47       1.0  T
 120    -13.1129592 -0.199844E-01  0.611E-01    0.11       1.0  T
 121    -13.1078689  0.509021E-02  0.103E+00    0.19       1.0  T
 122    -12.4362079  0.671661E+00  0.888E+00    0.00       1.0  T
 123    -13.0771738 -0.640966E+00  0.334E+00    0.94       1.0  T
 124    -13.0909364 -0.137626E-01  0.205E+00    0.78       1.0  T
 125    -13.0938726 -0.293618E-02  0.179E+00    0.40       1.0  T
 126    -13.1131937 -0.193211E-01  0.589E-01    0.16       1.0  T
 127    -12.9382516  0.174942E+00  0.465E+00    0.04       1.0  T
 128    -13.0869737 -0.148722E+00  0.246E+00    0.93       1.0  T
 129    -13.0936911 -0.671741E-02  0.180E+00    0.41       1.0  T
 130    -13.1092752 -0.155841E-01  0.933E-01    0.18       1.0  T
 131    -12.6477658  0.461509E+00  0.742E+00    0.01       1.0  T
 132    -13.0815814 -0.433816E+00  0.296E+00    0.94       1.0  T
 133    -13.0917901 -0.102087E-01  0.196E+00    0.63       1.0  T
 134    -13.0951540 -0.336393E-02  0.171E+00    0.34       1.0  T
 135    -13.1154464 -0.202924E-01  0.226E-01    0.12       1.0  T
 136    -13.1100428  0.540363E-02  0.877E-01    0.17       1.0  T
 137    -12.6128010  0.497242E+00  0.768E+00    0.01       1.0  T
 138    -13.0805831 -0.467782E+00  0.305E+00    0.94       1.0  T
 139    -13.0915117 -0.109286E-01  0.199E+00    0.68       1.0  T
 140    -13.0945976 -0.308584E-02  0.174E+00    0.36       1.0  T
 141    -13.1135816 -0.189840E-01  0.543E-01    0.15       1.0  T
 142    -12.9515210  0.162061E+00  0.447E+00    0.04       1.0  T
 143    -13.0872735 -0.135752E+00  0.243E+00    0.93       1.0  T
 144    -13.0938973 -0.662389E-02  0.178E+00    0.40       1.0  T
 145    -13.1105723 -0.166750E-01  0.834E-01    0.17       1.0  T
 146    -12.6373408  0.473232E+00  0.750E+00    0.01       1.0  T
 147    -13.0813033 -0.443963E+00  0.299E+00    0.94       1.0  T
 148    -13.0916644 -0.103610E-01  0.197E+00    0.65       1.0  T
 149    -13.0950320 -0.336765E-02  0.172E+00    0.34       1.0  T
 150    -13.1157984 -0.207664E-01  0.698E-02    0.13       1.0  T
 151    -13.1103461  0.545232E-02  0.839E-01    0.10       1.0  T
 152    -13.0956208  0.147253E-01  0.169E+00    0.32       1.0  T
 153    -13.0109666  0.846542E-01  0.359E+00    0.05       1.0  T
 154    -13.0895003 -0.785337E-01  0.219E+00    0.93       1.0  T
 155    -13.0963733 -0.687298E-02  0.165E+00    0.30       1.0  T
 156    -13.0177841  0.785892E-01  0.348E+00    0.06       1.0  T
 157    -13.0899138 -0.721297E-01  0.214E+00    0.93       1.0  T
 158    -13.0971940 -0.728014E-02  0.161E+00    0.29       1.0  T
 159    -12.8950631  0.202131E+00  0.516E+00    0.04       1.0  T
 160    -13.0873060 -0.192243E+00  0.242E+00    0.93       1.0  T
 161    -13.0938569 -0.655093E-02  0.178E+00    0.40       1.0  T
 162    -13.1118326 -0.179757E-01  0.727E-01    0.16       1.0  T
 163    -12.5523566  0.559476E+00  0.811E+00    0.00       1.0  T
 164    -13.0798822 -0.527526E+00  0.311E+00    0.94       1.0  T
 165    -13.0912656 -0.113834E-01  0.201E+00    0.72       1.0  T
 166    -13.0945498 -0.328425E-02  0.174E+00    0.36       1.0  T
 167    -13.1127541 -0.182043E-01  0.637E-01    0.16       1.0  T
 168    -12.7821354  0.330619E+00  0.630E+00    0.02       1.0  T
 169    -13.0838175 -0.301682E+00  0.276E+00    0.94       1.0  T
 170    -13.0924267 -0.860915E-02  0.190E+00    0.54       1.0  T
 171    -13.0968282 -0.440149E-02  0.162E+00    0.29       1.0  T
 172    -13.0755732  0.212549E-01  0.225E+00    0.08       1.0  T
 173    -13.0915356 -0.159623E-01  0.198E+00    0.66       1.0  T
 174    -13.1028382 -0.113027E-01  0.132E+00    0.22       1.0  T
 175    -12.4785095  0.624329E+00  0.860E+00    0.00       1.0  T
 176    -13.0784203 -0.599911E+00  0.323E+00    0.94       1.0  T
 177    -13.0908178 -0.123974E-01  0.206E+00    0.80       1.0  T
 178    -13.0945637 -0.374597E-02  0.174E+00    0.36       1.0  T
 179    -13.1144394 -0.198756E-01  0.428E-01    0.15       1.0  T
 180    -12.9257416  0.188698E+00  0.480E+00    0.04       1.0  T
 181    -13.0866119 -0.160870E+00  0.249E+00    0.93       1.0  T
 182    -13.0937090 -0.709715E-02  0.180E+00    0.41       1.0  T
 183    -13.1062420 -0.125330E-01  0.113E+00    0.20       1.0  T
 184    -12.5435856  0.562656E+00  0.817E+00    0.00       1.0  T
 185    -13.0791713 -0.535586E+00  0.317E+00    0.94       1.0  T
 186    -13.0910163 -0.118450E-01  0.204E+00    0.76       1.0  T
 187    -13.0943321 -0.331578E-02  0.176E+00    0.37       1.0  T
 188    -13.1100140 -0.156820E-01  0.878E-01    0.17       1.0  T
 189    -12.6286080  0.481406E+00  0.756E+00    0.01       1.0  T
 190    -13.0804025 -0.451794E+00  0.306E+00    0.94       1.0  T
 191    -13.0914102 -0.110077E-01  0.200E+00    0.69       1.0  T
 192    -13.0946203 -0.321011E-02  0.174E+00    0.36       1.0  T
 193    -13.1121379 -0.175176E-01  0.698E-01    0.16       1.0  T
 194    -12.6991713  0.412967E+00  0.701E+00    0.01       1.0  T
 195    -13.0817416 -0.382570E+00  0.295E+00    0.94       1.0  T
 196    -13.0918066 -0.100650E-01  0.196E+00    0.63       1.0  T
 197    -13.0952284 -0.342184E-02  0.171E+00    0.33       1.0  T
 198    -13.1158318 -0.206034E-01  0.335E-02    0.13       1.2  T
 199    -13.1033056  0.125262E-01  0.126E+00    0.09       1.0  T
 200    -13.0933249  0.998067E-02  0.182E+00    0.44       1.0  T
 201    -13.1155517 -0.222268E-01  0.197E-01    0.14       1.0  T
 202    -12.8136534  0.301898E+00  0.601E+00    0.03       1.0  T
 203    -13.0844991 -0.270846E+00  0.270E+00    0.94       1.0  T
 204    -13.0927657 -0.826663E-02  0.187E+00    0.49       1.0  T
 205    -13.0990337 -0.626796E-02  0.152E+00    0.26       1.0  T
 206    -12.8176772  0.281356E+00  0.597E+00    0.03       1.0  T
 207    -13.0850068 -0.267330E+00  0.265E+00    0.94       1.0  T
 208    -13.0927840 -0.777716E-02  0.186E+00    0.49       1.0  T
 209    -13.0993089 -0.652486E-02  0.150E+00    0.25       1.0  T
 210    -12.7653872  0.333922E+00  0.645E+00    0.02       1.0  T
 211    -13.0839223 -0.318535E+00  0.275E+00    0.94       1.0  T
 212    -13.0923443 -0.842197E-02  0.190E+00    0.55       1.0  T
 213    -13.0973284 -0.498411E-02  0.160E+00    0.28       1.0  T
 214    -12.9788777  0.118451E+00  0.409E+00    0.05       1.0  T
 215    -13.0883904 -0.109513E+00  0.231E+00    0.93       1.0  T
 216    -13.0951673 -0.677685E-02  0.171E+00    0.34       1.0  T
 217    -13.1075349 -0.123676E-01  0.103E+00    0.10       1.0  T
 218    -13.0971654  0.103695E-01  0.161E+00    0.29       1.0  T
 219    -12.7425450  0.354620E+00  0.665E+00    0.02       1.0  T
 220    -13.0837673 -0.341222E+00  0.276E+00    0.94       1.0  T
 221    -13.0922807 -0.851339E-02  0.191E+00    0.56       1.0  T
 222    -13.0974549 -0.517424E-02  0.159E+00    0.28       1.0  T
 223    -12.9426290  0.154826E+00  0.459E+00    0.04       1.0  T
 224    -13.0875851 -0.144956E+00  0.239E+00    0.93       1.0  T
 225    -13.0943337 -0.674858E-02  0.176E+00    0.37       1.0  T
 226    -13.1151049 -0.207712E-01  0.311E-01    0.14       1.0  T
 227    -12.7604371  0.354668E+00  0.650E+00    0.02       1.0  T
 228    -13.0830353 -0.322598E+00  0.283E+00    0.94       1.0  T
 229    -13.0921219 -0.908665E-02  0.192E+00    0.58       1.0  T
 230    -13.0963972 -0.427533E-02  0.165E+00    0.30       1.0  T
 231    -13.0659291  0.304681E-01  0.250E+00    0.07       1.0  T
 232    -13.0911027 -0.251735E-01  0.202E+00    0.73       1.0  T
 233    -13.1018011 -0.106985E-01  0.138E+00    0.23       1.0  T
 234    -12.4559085  0.645893E+00  0.875E+00    0.00       1.0  T
 235    -13.0769406 -0.621032E+00  0.334E+00    0.94       1.0  T
 236    -13.0900369 -0.130962E-01  0.214E+00    0.93       1.0  T
 237    -13.0944305 -0.439362E-02  0.175E+00    0.37       1.0  T
 238    -13.1144979 -0.200674E-01  0.419E-01    0.15       1.0  T
 239    -12.8617989  0.252699E+00  0.553E+00    0.03       1.0  T
 240    -13.0846625 -0.222864E+00  0.268E+00    0.94       1.0  T
 241    -13.0928856 -0.822319E-02  0.186E+00    0.48       1.0  T
 242    -13.0993507 -0.646508E-02  0.150E+00    0.25       1.0  T
 243    -12.7426218  0.356729E+00  0.665E+00    0.02       1.0  T
 244    -13.0830884 -0.340467E+00  0.282E+00    0.94       1.0  T
 245    -13.0920284 -0.894003E-02  0.193E+00    0.59       1.0  T
 246    -13.0962549 -0.422648E-02  0.165E+00    0.31       1.0  T
 247    -13.0638926  0.323622E-01  0.255E+00    0.07       1.0  T
 248    -13.0909740 -0.270813E-01  0.203E+00    0.75       1.0  T
 249    -13.1017182 -0.107442E-01  0.138E+00    0.23       1.0  T
 250    -12.4463047  0.655414E+00  0.881E+00    0.00       1.0  T
     SCC iter.                  ...        0 min,  0.129 sec
     gradient                   ...        0 min,  0.000 sec
 * total energy  :   -12.3324569 Eh     change       -0.6798458E+00 Eh
   gradient norm :     1.7424392 Eh/α   predicted    -0.1480229E+01 ( 117.73%)
   displ. norm   :     0.2743358 α      lambda       -0.4725983E+00
   maximum displ.:     0.2689843 α      in ANC's #12, #11, #6, ...

........................................................................
.............................. CYCLE    4 ..............................
........................................................................
   1    -13.0785810 -0.130786E+02  0.510E+00    0.61       0.0  T
   2    -12.3686792  0.709902E+00  0.888E+00    0.02       1.0  T
   3    -12.9926752 -0.623996E+00  0.612E+00    1.09       1.0  T
   4    -13.0573772 -0.647020E-01  0.458E+00    0.77       1.0  T
   5    -13.0774976 -0.201204E-01  0.282E+00    0.55       1.0  T
   6    -13.0853310 -0.783337E-02  0.257E+00    0.65       1.0  T
   7    -13.0847708  0.560217E-03  0.260E+00    0.66       1.0  T
   8    -13.0860763 -0.130552E-02  0.244E+00    0.66       1.0  T
   9    -13.1032478 -0.171715E-01  0.127E+00    0.19       1.0  T
  10    -12.9778903  0.125358E+00  0.429E+00    0.04       1.0  T
  11    -12.4566446  0.521246E+00  0.896E+00    0.00       1.0  T
  12    -12.9103997 -0.453755E+00  0.516E+00    0.03       1.0  T
  13    -13.1153309 -0.204931E+00  0.449E-01    0.12       1.0  T
  14    -12.3686861  0.746645E+00  0.959E+00    0.00       1.0  T
  15    -12.3575759  0.111101E-01  0.986E+00    0.00       1.0  T
  16    -13.0889372 -0.731361E+00  0.209E+00    0.60       1.0  T
  17    -13.0889454 -0.817402E-05  0.208E+00    0.61       1.0  T
  18    -13.0871976  0.174778E-02  0.226E+00    0.67       1.0  T
  19    -13.0878655 -0.667834E-03  0.218E+00    0.67       1.0  T
  20    -13.0497002  0.381653E-01  0.297E+00    0.06       1.0  T
  21    -13.0867890 -0.370888E-01  0.233E+00    0.67       1.0  T
  22    -13.1039727 -0.171837E-01  0.127E+00    0.19       1.0  T
  23    -12.3669597  0.737013E+00  0.958E+00    0.00       1.0  T
  24    -13.0812443 -0.714285E+00  0.291E+00    0.67       1.0  T
  25    -13.0886214 -0.737717E-02  0.212E+00    0.66       1.0  T
  26    -12.3967679  0.691854E+00  0.932E+00    0.00       1.0  T
  27    -13.0807857 -0.684018E+00  0.294E+00    0.67       1.0  T
  28    -13.0885908 -0.780508E-02  0.211E+00    0.65       1.0  T
  29    -12.3772198  0.711371E+00  0.946E+00    0.00       1.0  T
  30    -13.0812055 -0.703986E+00  0.290E+00    0.67       1.0  T
  31    -13.0893319 -0.812641E-02  0.201E+00    0.49       1.0  T
  32    -12.3646123  0.724720E+00  0.960E+00    0.00       1.0  T
  33    -13.0826439 -0.718032E+00  0.275E+00    0.67       1.0  T
  34    -13.0940159 -0.113720E-01  0.175E+00    0.27       1.0  T
  35    -12.3614781  0.732538E+00  0.966E+00    0.00       1.0  T
  36    -13.0839394 -0.722461E+00  0.261E+00    0.67       1.0  T
  37    -13.1152769 -0.313375E-01  0.287E-01    0.13       1.0  T
  38    -12.8007174  0.314559E+00  0.623E+00    0.02       1.0  T
  39    -13.0842138 -0.283496E+00  0.260E+00    0.67       1.0  T
  40    -13.1094586 -0.252448E-01  0.926E-01    0.16       1.0  T
  41    -12.3848014  0.724657E+00  0.936E+00    0.00       1.0  T
  42    -13.0826062 -0.697805E+00  0.274E+00    0.68       1.0  T
  43    -13.0908061 -0.819994E-02  0.190E+00    0.35       1.0  T
  44    -12.3648919  0.725914E+00  0.957E+00    0.00       1.0  T
  45    -13.0838999 -0.719008E+00  0.259E+00    0.68       1.0  T
  46    -13.1005941 -0.166943E-01  0.144E+00    0.21       1.0  T
  47    -12.3705586  0.730036E+00  0.948E+00    0.00       1.0  T
  48    -13.0832711 -0.712713E+00  0.266E+00    0.68       1.0  T
  49    -13.0944579 -0.111868E-01  0.173E+00    0.26       1.0  T
  50    -12.3664349  0.728023E+00  0.953E+00    0.00       1.0  T
  51    -13.0837574 -0.717322E+00  0.260E+00    0.68       1.0  T
  52    -13.0994472 -0.156898E-01  0.150E+00    0.22       1.0  T
  53    -12.3727818  0.726665E+00  0.945E+00    0.00       1.0  T
  54    -13.0829032 -0.710121E+00  0.269E+00    0.68       1.0  T
  55    -13.0927717 -0.986855E-02  0.181E+00    0.29       1.0  T
  56    -12.3668929  0.725879E+00  0.952E+00    0.00       1.0  T
  57    -13.0833684 -0.716475E+00  0.264E+00    0.68       1.0  T
  58    -13.0967686 -0.134001E-01  0.163E+00    0.24       1.0  T
  59    -12.3707887  0.725980E+00  0.947E+00    0.00       1.0  T
  60    -13.0826083 -0.711820E+00  0.272E+00    0.68       1.0  T
  61    -13.0930325 -0.104241E-01  0.180E+00    0.29       1.0  T
  62    -12.3677893  0.725243E+00  0.950E+00    0.00       1.0  T
  63    -13.0826828 -0.714893E+00  0.270E+00    0.68       1.0  T
  64    -13.0943786 -0.116958E-01  0.174E+00    0.26       1.0  T
  65    -12.3690068  0.725372E+00  0.948E+00    0.00       1.0  T
  66    -13.0821415 -0.713135E+00  0.276E+00    0.68       1.0  T
  67    -13.0931938 -0.110523E-01  0.179E+00    0.28       1.0  T
  68    -12.3684916  0.724702E+00  0.949E+00    0.00       1.0  T
  69    -13.0817983 -0.713307E+00  0.279E+00    0.68       1.0  T
  70    -13.0929911 -0.111928E-01  0.180E+00    0.29       1.0  T
  71    -12.3687534  0.724238E+00  0.949E+00    0.00       1.0  T
  72    -13.0812909 -0.712538E+00  0.284E+00    0.68       1.0  T
  73    -13.0925782 -0.112873E-01  0.182E+00    0.29       1.0  T
  74    -12.3691816  0.723397E+00  0.948E+00    0.00       1.0  T
  75    -13.0807159 -0.711534E+00  0.289E+00    0.68       1.0  T
  76    -13.0921421 -0.114262E-01  0.184E+00    0.30       1.0  T
  77    -12.3700518  0.722090E+00  0.947E+00    0.00       1.0  T
  78    -13.0800385 -0.709987E+00  0.295E+00    0.68       1.0  T
  79    -13.0916730 -0.116345E-01  0.186E+00    0.32       1.0  T
  80    -12.3717625  0.719910E+00  0.945E+00    0.00       1.0  T
  81    -13.0792255 -0.707463E+00  0.303E+00    0.68       1.0  T
  82    -13.0911467 -0.119213E-01  0.189E+00    0.33       1.0  T
  83    -12.3754653  0.715681E+00  0.941E+00    0.00       1.0  T
  84    -13.0782055 -0.702740E+00  0.312E+00    0.68       1.0  T
  85    -13.0905657 -0.123602E-01  0.192E+00    0.35       1.0  T
  86    -12.3865232  0.704043E+00  0.933E+00    0.00       1.0  T
  87    -13.0768360 -0.690313E+00  0.324E+00    0.68       1.0  T
  88    -13.0899621 -0.131261E-01  0.196E+00    0.39       1.0  T
  89    -12.4557093  0.634253E+00  0.887E+00    0.00       1.0  T
  90    -13.0753783 -0.619669E+00  0.336E+00    0.68       1.0  T
  91    -13.0894757 -0.140974E-01  0.199E+00    0.43       1.0  T
  92    -12.9200727  0.169403E+00  0.494E+00    0.04       1.0  T
  93    -13.0811737 -0.161101E+00  0.286E+00    0.68       1.0  T
  94    -13.0912124 -0.100387E-01  0.189E+00    0.32       1.0  T
  95    -12.5528668  0.538346E+00  0.821E+00    0.01       1.0  T
  96    -13.0759650 -0.523098E+00  0.332E+00    0.68       1.0  T
  97    -13.0890511 -0.130861E-01  0.202E+00    0.46       1.0  T
  98    -13.1127860 -0.237349E-01  0.653E-01    0.10       1.0  T
  99    -13.0873325  0.254535E-01  0.219E+00    0.68       1.0  T
 100    -12.9818155  0.105517E+00  0.411E+00    0.05       1.0  T
 101    -13.0830699 -0.101254E+00  0.267E+00    0.68       1.0  T
 102    -13.0923004 -0.923054E-02  0.183E+00    0.30       1.0  T
 103    -12.6423111  0.449989E+00  0.756E+00    0.01       1.0  T
 104    -13.0776946 -0.435383E+00  0.318E+00    0.68       1.0  T
 105    -13.0889923 -0.112977E-01  0.202E+00    0.46       1.0  T
 106    -13.1136332 -0.246409E-01  0.562E-01    0.11       1.0  T
 107    -13.0876405  0.259927E-01  0.216E+00    0.68       1.0  T
 108    -13.0157272  0.719133E-01  0.357E+00    0.05       1.0  T
 109    -13.0841170 -0.683898E-01  0.256E+00    0.68       1.0  T
 110    -13.0933897 -0.927262E-02  0.179E+00    0.28       1.0  T
 111    -12.7615083  0.331881E+00  0.658E+00    0.02       1.0  T
 112    -13.0798380 -0.318330E+00  0.299E+00    0.68       1.0  T
 113    -13.0891727 -0.933469E-02  0.201E+00    0.44       1.0  T
 114    -13.0980649 -0.889220E-02  0.153E+00    0.09       1.0  T
 115    -13.0865518  0.115131E-01  0.228E+00    0.68       1.0  T
 116    -13.1129856 -0.264338E-01  0.634E-01    0.15       1.0  T
 117    -13.0922012  0.207844E-01  0.184E+00    0.30       1.0  T
 118    -12.5262269  0.565974E+00  0.840E+00    0.01       1.0  T
 119    -13.0778773 -0.551650E+00  0.316E+00    0.68       1.0  T
 120    -13.0886517 -0.107744E-01  0.205E+00    0.50       1.0  T
 121    -13.1114392 -0.227875E-01  0.783E-01    0.15       1.0  T
 122    -13.0930677  0.183715E-01  0.180E+00    0.28       1.0  T
 123    -12.6097095  0.483358E+00  0.780E+00    0.01       1.0  T
 124    -13.0788924 -0.469183E+00  0.307E+00    0.68       1.0  T
 125    -13.0887089 -0.981650E-02  0.204E+00    0.49       1.0  T
 126    -13.1127292 -0.240203E-01  0.661E-01    0.15       1.0  T
 127    -13.0921749  0.205543E-01  0.184E+00    0.30       1.0  T
 128    -12.6559608  0.436214E+00  0.745E+00    0.01       1.0  T
 129    -13.0795923 -0.423632E+00  0.301E+00    0.68       1.0  T
 130    -13.0886984 -0.910606E-02  0.204E+00    0.49       1.0  T
 131    -13.1119698 -0.232714E-01  0.735E-01    0.15       1.0  T
 132    -13.0936824  0.182874E-01  0.177E+00    0.27       1.0  T
 133    -12.7614841  0.332198E+00  0.657E+00    0.02       1.0  T
 134    -13.0810683 -0.319584E+00  0.287E+00    0.68       1.0  T
 135    -13.0888112 -0.774284E-02  0.203E+00    0.47       1.0  T
 136    -13.1141256 -0.253145E-01  0.499E-01    0.14       1.0  T
 137    -13.0915141  0.226116E-01  0.187E+00    0.32       1.0  T
 138    -12.7983939  0.293120E+00  0.624E+00    0.02       1.0  T
 139    -13.0817226 -0.283329E+00  0.281E+00    0.68       1.0  T
 140    -13.0888976 -0.717497E-02  0.203E+00    0.46       1.0  T
 141    -13.1149796 -0.260821E-01  0.366E-01    0.13       1.0  T
 142    -13.0909808  0.239988E-01  0.190E+00    0.34       1.0  T
 143    -12.8567857  0.234195E+00  0.565E+00    0.03       1.0  T
 144    -13.0826999 -0.225914E+00  0.271E+00    0.68       1.0  T
 145    -13.0891139 -0.641408E-02  0.201E+00    0.44       1.0  T
 146    -13.1157776 -0.266637E-01  0.172E-01    0.12       1.0  T
 147    -13.0895490  0.262286E-01  0.198E+00    0.42       1.0  T
 148    -13.0195242  0.700248E-01  0.350E+00    0.05       1.0  T
 149    -13.0854794 -0.659552E-01  0.241E+00    0.68       1.0  T
 150    -13.0911353 -0.565589E-02  0.189E+00    0.33       1.0  T
 151    -13.0397707  0.513646E-01  0.312E+00    0.06       1.0  T
 152    -13.0859090 -0.461383E-01  0.236E+00    0.68       1.0  T
 153    -13.0926293 -0.672031E-02  0.182E+00    0.29       1.0  T
 154    -13.0203778  0.722515E-01  0.348E+00    0.05       1.0  T
 155    -13.0855575 -0.651797E-01  0.240E+00    0.68       1.0  T
 156    -13.0918967 -0.633920E-02  0.185E+00    0.31       1.0  T
 157    -13.0400177  0.518790E-01  0.311E+00    0.06       1.0  T
 158    -13.0859542 -0.459365E-01  0.235E+00    0.68       1.0  T
 159    -13.0932910 -0.733681E-02  0.179E+00    0.28       1.0  T
 160    -13.0513263  0.419647E-01  0.288E+00    0.06       1.0  T
 161    -13.0862250 -0.348987E-01  0.232E+00    0.68       1.0  T
 162    -13.0945451 -0.832014E-02  0.173E+00    0.26       1.0  T
 163    -13.0768841  0.176610E-01  0.225E+00    0.07       1.0  T
 164    -13.0868711 -0.998706E-02  0.225E+00    0.68       1.0  T
 165    -13.0991287 -0.122576E-01  0.152E+00    0.22       1.0  T
 166    -13.1144530 -0.153243E-01  0.451E-01    0.11       1.0  T
 167    -13.0889253  0.255277E-01  0.203E+00    0.48       1.0  T
 168    -13.0999708 -0.110455E-01  0.145E+00    0.09       1.0  T
 169    -13.0876943  0.122764E-01  0.215E+00    0.68       1.0  T
 170    -13.1071768 -0.194824E-01  0.109E+00    0.17       1.0  T
 171    -13.1026706  0.450621E-02  0.135E+00    0.20       1.0  T
 172    -13.1156584 -0.129878E-01  0.203E-01    0.13       1.0  T
 173    -13.0904814  0.251770E-01  0.193E+00    0.36       1.0  T
 174    -13.0788449  0.116365E-01  0.219E+00    0.07       1.0  T
 175    -13.0871456 -0.830069E-02  0.222E+00    0.68       1.0  T
 176    -13.0963229 -0.917739E-02  0.165E+00    0.24       1.0  T
 177    -13.1116082 -0.152852E-01  0.758E-01    0.10       1.0  T
 178    -13.0887416  0.228665E-01  0.205E+00    0.50       1.0  T
 179    -13.1148441 -0.261024E-01  0.385E-01    0.11       1.0  T
 180    -13.0893205  0.255235E-01  0.200E+00    0.44       1.0  T
 181    -13.1014098 -0.120893E-01  0.138E+00    0.09       1.0  T
 182    -13.0881654  0.132444E-01  0.210E+00    0.59       1.0  T
 183    -13.1117081 -0.235427E-01  0.755E-01    0.15       1.0  T
 184    -13.0967563  0.149518E-01  0.164E+00    0.24       1.0  T
 185    -13.0865417  0.102146E-01  0.195E+00    0.08       1.0  T
 186    -13.0877788 -0.123711E-02  0.215E+00    0.67       1.0  T
 187    -13.1025390 -0.147602E-01  0.136E+00    0.20       1.0  T
 188    -13.1137006 -0.111616E-01  0.548E-01    0.14       1.0  T
 189    -13.0946765  0.190241E-01  0.173E+00    0.26       1.0  T
 190    -13.0816751  0.130014E-01  0.210E+00    0.07       1.0  T
 191    -13.0877356 -0.606053E-02  0.215E+00    0.67       1.0  T
 192    -13.1003122 -0.125765E-01  0.147E+00    0.21       1.0  T
 193    -13.1156844 -0.153722E-01  0.182E-01    0.13       1.0  T
 194    -13.0917394  0.239450E-01  0.186E+00    0.31       1.0  T
 195    -13.0684376  0.233018E-01  0.247E+00    0.07       1.0  T
 196    -13.0875872 -0.191496E-01  0.217E+00    0.68       1.0  T
 197    -13.0993582 -0.117710E-01  0.151E+00    0.22       1.0  T
 198    -13.1152483 -0.158901E-01  0.301E-01    0.11       1.0  T
 199    -13.0904304  0.248179E-01  0.193E+00    0.36       1.0  T
 200    -13.0772945  0.131359E-01  0.223E+00    0.07       1.0  T
 201    -13.0879238 -0.106293E-01  0.213E+00    0.64       1.0  T
 202    -13.1045957 -0.166719E-01  0.124E+00    0.19       1.0  T
 203    -13.1129449 -0.834915E-02  0.633E-01    0.15       1.0  T
 204    -13.0986015  0.143434E-01  0.155E+00    0.22       1.0  T
 205    -13.1072581 -0.865663E-02  0.107E+00    0.09       1.0  T
 206    -13.0890979  0.181602E-01  0.202E+00    0.46       1.0  T
 207    -13.1155225 -0.264246E-01  0.229E-01    0.13       1.0  T
 208    -13.0923422  0.231803E-01  0.183E+00    0.30       1.0  T
 209    -13.0904365  0.190572E-02  0.182E+00    0.08       1.0  T
 210    -13.0884818  0.195474E-02  0.207E+00    0.54       1.0  T
 211    -13.1101845 -0.217027E-01  0.880E-01    0.16       1.0  T
 212    -13.1028364  0.734807E-02  0.134E+00    0.20       1.0  T
 213    -13.1158426 -0.130061E-01  0.974E-02    0.12       1.0  T
 214    -13.0921801  0.236625E-01  0.184E+00    0.30       1.0  T
 215    -13.0983084 -0.612828E-02  0.151E+00    0.09       1.0  T
 216    -13.0888834  0.942492E-02  0.204E+00    0.49       1.0  T
 217    -13.1128418 -0.239584E-01  0.642E-01    0.15       1.0  T
 218    -13.0984648  0.143770E-01  0.156E+00    0.22       1.0  T
 219    -13.1099720 -0.115072E-01  0.883E-01    0.10       1.0  T
 220    -13.0899413  0.200307E-01  0.196E+00    0.39       1.0  T
 221    -13.1136950 -0.237536E-01  0.541E-01    0.11       1.0  T
 222    -13.0906517  0.230432E-01  0.192E+00    0.35       1.0  T
 223    -13.1060014 -0.153496E-01  0.114E+00    0.09       1.0  T
 224    -13.0896962  0.163052E-01  0.197E+00    0.41       1.0  T
 225    -13.1141123 -0.244161E-01  0.487E-01    0.11       1.0  T
 226    -13.0913047  0.228076E-01  0.188E+00    0.33       1.0  T
 227    -13.0937562 -0.245152E-02  0.170E+00    0.08       1.0  T
 228    -13.0892177  0.453852E-02  0.201E+00    0.45       1.0  T
 229    -13.1158219 -0.266042E-01  0.994E-02    0.12       1.0  T
 230    -13.0947602  0.210617E-01  0.172E+00    0.26       1.0  T
 231    -13.0886125  0.614774E-02  0.188E+00    0.08       1.0  T
 232    -13.0891593 -0.546853E-03  0.201E+00    0.46       1.0  T
 233    -13.1152232 -0.260639E-01  0.299E-01    0.13       1.0  T
 234    -13.0972159  0.180073E-01  0.161E+00    0.23       1.0  T
 235    -13.1028067 -0.559086E-02  0.131E+00    0.09       1.0  T
 236    -13.0899638  0.128429E-01  0.196E+00    0.39       1.0  T
 237    -13.1148897 -0.249259E-01  0.365E-01    0.11       1.0  T
 238    -13.0924545  0.224352E-01  0.183E+00    0.30       1.0  T
 239    -13.1006962 -0.824173E-02  0.141E+00    0.09       1.0  T
 240    -13.0899319  0.107644E-01  0.196E+00    0.39       1.0  T
 241    -13.1149917 -0.250599E-01  0.346E-01    0.11       1.0  T
 242    -13.0930984  0.218933E-01  0.180E+00    0.28       1.0  T
 243    -13.0979598 -0.486138E-02  0.153E+00    0.09       1.0  T
 244    -13.0899486  0.801119E-02  0.196E+00    0.39       1.0  T
 245    -13.1150754 -0.251268E-01  0.329E-01    0.11       1.0  T
 246    -13.0936118  0.214636E-01  0.178E+00    0.27       1.0  T
 247    -13.0989043 -0.529251E-02  0.149E+00    0.09       1.0  T
 248    -13.0901723  0.873197E-02  0.194E+00    0.38       1.0  T
 249    -13.1145523 -0.243799E-01  0.421E-01    0.11       1.0  T
 250    -13.0934350  0.211172E-01  0.178E+00    0.28       1.0  T
     SCC iter.                  ...        0 min,  0.118 sec
     gradient                   ...        0 min,  0.000 sec
 * total energy  :   -12.6500236 Eh     change       -0.3175667E+00 Eh
   gradient norm :     4.4388186 Eh/α   predicted    -0.2540830E+00 ( -19.99%)
   displ. norm   :     0.1840569 α      lambda       -0.7663671E+00
   maximum displ.:     0.1795423 α      in ANC's #12, #11, #3, ...

........................................................................
.............................. CYCLE    5 ..............................
........................................................................
   1    -13.1014274 -0.131014E+02  0.142E+00    0.25       0.0  T
   2    -12.3211451  0.780282E+00  0.103E+01    0.00       1.0  T
   3    -12.3818696 -0.607245E-01  0.942E+00    0.00       1.0  T
   4    -12.4643514 -0.824819E-01  0.890E+00    0.00       1.0  T
   5    -12.4646351 -0.283684E-03  0.889E+00    0.00       1.0  T
   6    -13.1016191 -0.636984E+00  0.152E+00    0.24       1.0  T
   7    -13.0924087  0.921040E-02  0.215E+00    0.56       1.0  T
   8    -13.0944248 -0.201610E-02  0.209E+00    0.76       1.0  T
   9    -13.0950730 -0.648246E-03  0.199E+00    0.70       1.0  T
  10    -13.0991738 -0.410075E-02  0.166E+00    0.30       1.0  T
  11    -13.1023619 -0.318814E-02  0.152E+00    0.25       1.0  T
  12    -13.1068465 -0.448455E-02  0.130E+00    0.21       1.0  T
  13    -13.1115283 -0.468184E-02  0.102E+00    0.18       1.0  T
  14    -13.1137149 -0.218656E-02  0.869E-01    0.17       1.0  T
  15    -13.1020607  0.116542E-01  0.151E+00    0.09       1.0  T
  16    -13.1074164 -0.535568E-02  0.126E+00    0.20       1.0  T
  17    -13.0463269  0.610895E-01  0.303E+00    0.06       1.0  T
  18    -13.1018059 -0.554790E-01  0.156E+00    0.25       1.0  T
  19    -13.1164719 -0.146659E-01  0.630E-01    0.11       1.0  T
  20    -13.1170636 -0.591691E-03  0.569E-01    0.15       1.0  T
  21    -13.1168730  0.190580E-03  0.582E-01    0.11       1.0  T
  22    -13.1181492 -0.127617E-02  0.417E-01    0.14       1.0  T
  23    -13.1184327 -0.283585E-03  0.367E-01    0.12       1.0  T
  24    -13.1190883 -0.655593E-03  0.222E-01    0.13       1.0  T
  25    -13.1192301 -0.141762E-03  0.175E-01    0.12       1.0  T
  26    -13.1194080 -0.177885E-03  0.846E-02    0.13       1.0  T
  27    -13.1194280 -0.199722E-04  0.675E-02    0.12       1.0  T
  28    -13.1194590 -0.310458E-04  0.218E-02    0.13       1.9  T
  29    -13.1194591 -0.752282E-07  0.217E-02    0.13       1.9  T
  30    -13.1194626 -0.357122E-05  0.857E-04    0.13      47.7  T
  31    -13.1194623  0.391077E-06  0.724E-03    0.13       5.6  T
  32    -13.1194626 -0.306653E-06  0.343E-03    0.13      11.9  T
     SCC iter.                  ...        0 min,  0.002 sec
     gradient                   ...        0 min,  0.000 sec
 * total energy  :   -13.0710175 Eh     change       -0.4209939E+00 Eh
   gradient norm :     0.1756077 Eh/α   predicted    -0.3961646E+00 (  -5.90%)
   displ. norm   :     0.0566901 α      lambda       -0.3444198E-02
   maximum displ.:     0.0509371 α      in ANC's #3, #6, #1, ...

........................................................................
.............................. CYCLE    6 ..............................
........................................................................
   1    -13.1253962 -0.131254E+02  0.187E-01    0.13       0.0  T
   2    -12.6802790  0.445117E+00  0.733E+00    0.01       1.0  T
   3    -13.1249338 -0.444655E+00  0.337E-01    0.13       1.0  T
   4    -13.1250915 -0.157681E-03  0.275E-01    0.12       1.0  T
   5    -13.1246887  0.402741E-03  0.370E-01    0.12       1.0  T
   6    -13.1247384 -0.496529E-04  0.345E-01    0.12       1.0  T
   7    -13.1253093 -0.570887E-03  0.207E-01    0.12       1.0  T
   8    -13.1255989 -0.289624E-03  0.676E-02    0.12       1.0  T
   9    -13.1256324 -0.334886E-04  0.703E-03    0.13       5.8  T
  10    -13.1256327 -0.365299E-06  0.144E-03    0.13      28.4  T
  11    -13.1256328 -0.122178E-07  0.422E-04    0.13      96.8  T
     SCC iter.                  ...        0 min,  0.001 sec
     gradient                   ...        0 min,  0.000 sec
 * total energy  :   -13.0735213 Eh     change       -0.2503752E-02 Eh
   gradient norm :     0.0301738 Eh/α   predicted    -0.1727637E-02 ( -31.00%)
   displ. norm   :     0.1779956 α      lambda       -0.3372255E-02
   maximum displ.:     0.1394690 α      in ANC's #1, #3, #6, ...

........................................................................
.............................. CYCLE    7 ..............................
........................................................................
   1    -13.1352462 -0.131352E+02  0.303E-01    0.13       0.0  T
   2    -12.9931141  0.142132E+00  0.439E+00    0.05       1.0  T
   3    -13.1295535 -0.136439E+00  0.901E-01    0.16       1.0  T
   4    -13.1334958 -0.394235E-02  0.571E-01    0.11       1.0  T
   5    -13.1298695  0.362634E-02  0.880E-01    0.10       1.0  T
   6    -13.1349136 -0.504413E-02  0.291E-01    0.12       1.0  T
   7    -13.1355716 -0.657986E-03  0.161E-02    0.13       2.5  T
   8    -13.1355727 -0.105433E-05  0.902E-03    0.13       4.5  T
   9    -13.1355733 -0.628174E-06  0.234E-03    0.13      17.4  T
  10    -13.1355733  0.235941E-07  0.259E-03    0.13      15.8  T
     SCC iter.                  ...        0 min,  0.001 sec
     gradient                   ...        0 min,  0.000 sec
 * total energy  :   -13.0749787 Eh     change       -0.1457429E-02 Eh
   gradient norm :     0.1046935 Eh/α   predicted    -0.1739551E-02 (  19.36%)
   displ. norm   :     0.4465848 α      lambda       -0.7413651E-02
   maximum displ.:     0.3598506 α      in ANC's #1, #3, #6, ...

........................................................................
.............................. CYCLE    8 ..............................
........................................................................
   1    -13.1511578 -0.131512E+02  0.693E-01    0.12       0.0  T
   2    -13.1206274  0.305304E-01  0.213E+00    0.37       1.0  T
   3    -13.1513021 -0.306747E-01  0.593E-01    0.11       1.0  T
   4    -13.1343581  0.169440E-01  0.169E+00    0.23       1.0  T
   5    -13.1505730 -0.162149E-01  0.629E-01    0.11       1.0  T
   6    -13.1526613 -0.208824E-02  0.171E-01    0.14       1.0  T
   7    -13.1523594  0.301874E-03  0.279E-01    0.12       1.0  T
   8    -13.1526671 -0.307725E-03  0.177E-01    0.13       1.0  T
   9    -13.1528908 -0.223700E-03  0.764E-03    0.13       5.3  T
  10    -13.1528912 -0.438450E-06  0.706E-04    0.13      57.8  T
  11    -13.1528911  0.993156E-07  0.375E-03    0.13      10.9  T
     SCC iter.                  ...        0 min,  0.001 sec
     gradient                   ...        0 min,  0.000 sec
 * total energy  :   -13.0739359 Eh     change        0.1042765E-02 Eh
   gradient norm :     0.2227824 Eh/α   predicted    -0.4446124E-02 (-526.38%)
   displ. norm   :     0.1486381 α      lambda       -0.5039551E-02
   maximum displ.:     0.1287948 α      in ANC's #1, #3, #6, ...

........................................................................
.............................. CYCLE    9 ..............................
........................................................................
   1    -13.1448884 -0.131449E+02  0.503E-01    0.15       0.0  T
   2    -12.3749228  0.769966E+00  0.981E+00    0.00       1.0  T
   3    -13.1462475 -0.771325E+00  0.221E-01    0.13       1.0  T
   4    -13.1450621  0.118545E-02  0.421E-01    0.15       1.0  T
   5    -13.1463049 -0.124283E-02  0.178E-01    0.13       1.0  T
   6    -13.1464390 -0.134088E-03  0.632E-02    0.13       1.0  T
   7    -13.1464572 -0.182167E-04  0.323E-02    0.13       1.3  T
   8    -13.1464635 -0.625347E-05  0.778E-03    0.13       5.2  T
   9    -13.1464638 -0.357893E-06  0.113E-03    0.13      36.1  T
  10    -13.1464638  0.511546E-08  0.111E-03    0.13      36.7  T
     SCC iter.                  ...        0 min,  0.001 sec
     gradient                   ...        0 min,  0.000 sec
 * total energy  :   -13.0775326 Eh     change       -0.3596646E-02 Eh
   gradient norm :     0.0934921 Eh/α   predicted    -0.2575442E-02 ( -28.39%)
   displ. norm   :     0.1188008 α      lambda       -0.2080745E-02
   maximum displ.:     0.0885301 α      in ANC's #1, #2, #6, ...

........................................................................
.............................. CYCLE   10 ..............................
........................................................................
   1    -13.1402625 -0.131403E+02  0.557E-01    0.15       0.0  T
   2    -12.3657064  0.774556E+00  0.987E+00    0.00       1.0  T
   3    -13.1365458 -0.770839E+00  0.836E-01    0.16       1.0  T
   4    -13.1419408 -0.539502E-02  0.175E-01    0.13       1.0  T
   5    -13.1418907  0.501540E-04  0.168E-01    0.13       1.0  T
   6    -13.1420497 -0.159027E-03  0.533E-02    0.13       1.0  T
   7    -13.1420607 -0.109999E-04  0.285E-02    0.13       1.4  T
   8    -13.1420649 -0.418438E-05  0.262E-03    0.13      15.6  T
   9    -13.1420649 -0.607233E-08  0.207E-03    0.13      19.7  T
     SCC iter.                  ...        0 min,  0.001 sec
     gradient                   ...        0 min,  0.000 sec
 * total energy  :   -13.0786587 Eh     change       -0.1126171E-02 Eh
   gradient norm :     0.0235803 Eh/α   predicted    -0.1055054E-02 (  -6.31%)
   displ. norm   :     0.2962458 α      lambda       -0.2233485E-02
   maximum displ.:     0.2708239 α      in ANC's #2, #3, #1, ...

........................................................................
.............................. CYCLE   11 ..............................
........................................................................
   1    -13.1328555 -0.131329E+02  0.899E-01    0.15       0.0  T
   2    -12.3484024  0.784453E+00  0.101E+01    0.00       1.0  T
   3    -13.1121451 -0.763743E+00  0.185E+00    0.21       1.0  T
   4    -13.1369252 -0.247801E-01  0.200E-01    0.13       1.0  T
   5    -13.1365831  0.342158E-03  0.258E-01    0.14       1.0  T
   6    -13.1366269 -0.437993E-04  0.237E-01    0.12       1.0  T
   7    -13.1369790 -0.352116E-03  0.312E-02    0.13       1.3  T
   8    -13.1369830 -0.406051E-05  0.139E-02    0.13       2.9  T
   9    -13.1369829  0.176112E-06  0.132E-02    0.13       3.1  T
  10    -13.1369838 -0.969905E-06  0.520E-03    0.13       7.9  T
  11    -13.1369840 -0.152712E-06  0.180E-03    0.13      22.7  T
     SCC iter.                  ...        0 min,  0.001 sec
     gradient                   ...        0 min,  0.000 sec
 * total energy  :   -13.0777458 Eh     change        0.9129829E-03 Eh
   gradient norm :     0.1272427 Eh/α   predicted    -0.1214790E-02 (-233.06%)
   displ. norm   :     0.2021046 α      lambda       -0.3746241E-02
   maximum displ.:     0.1766409 α      in ANC's #2, #3, #1, ...

........................................................................
.............................. CYCLE   12 ..............................
........................................................................
   1    -13.1394667 -0.131395E+02  0.269E-01    0.12       0.0  T
   2    -13.1232304  0.162363E-01  0.151E+00    0.27       1.0  T
   3    -13.1389121 -0.156817E-01  0.414E-01    0.12       1.0  T
   4    -13.1396255 -0.713353E-03  0.169E-01    0.13       1.0  T
   5    -13.1392370  0.388464E-03  0.267E-01    0.12       1.0  T
   6    -13.1390633  0.173675E-03  0.302E-01    0.14       1.0  T
   7    -13.1397021 -0.638779E-03  0.607E-02    0.13       1.0  T
   8    -13.1397174 -0.153433E-04  0.378E-02    0.13       1.1  T
   9    -13.1397276 -0.101986E-04  0.218E-03    0.13      18.8  T
  10    -13.1397275  0.129458E-06  0.480E-03    0.13       8.5  T
  11    -13.1397277 -0.159289E-06  0.711E-04    0.13      57.5  T
     SCC iter.                  ...        0 min,  0.001 sec
     gradient                   ...        0 min,  0.000 sec
 * total energy  :   -13.0798685 Eh     change       -0.2122748E-02 Eh
   gradient norm :     0.0332019 Eh/α   predicted    -0.1949636E-02 (  -8.16%)
   displ. norm   :     0.0647147 α      lambda       -0.2889637E-03
   maximum displ.:     0.0528001 α      in ANC's #3, #1, #2, ...

........................................................................
.............................. CYCLE   13 ..............................
........................................................................
   1    -13.1394010 -0.131394E+02  0.137E-01    0.13       0.0  T
   2    -13.1362409  0.316008E-02  0.636E-01    0.16       1.0  T
   3    -13.1253179  0.109229E-01  0.143E+00    0.09       1.0  T
   4    -13.1393151 -0.139972E-01  0.170E-01    0.13       1.0  T
   5    -13.1394771 -0.161993E-03  0.277E-02    0.13       1.5  T
   6    -13.1394700  0.714173E-05  0.431E-02    0.13       1.0  T
   7    -13.1394818 -0.118796E-04  0.738E-03    0.13       5.5  T
   8    -13.1394822 -0.363466E-06  0.234E-03    0.13      17.4  T
   9    -13.1394822 -0.323382E-07  0.436E-04    0.13      93.5  T
     SCC iter.                  ...        0 min,  0.001 sec
     gradient                   ...        0 min,  0.000 sec
 * total energy  :   -13.0800586 Eh     change       -0.1900546E-03 Eh
   gradient norm :     0.0097816 Eh/α   predicted    -0.1450865E-03 ( -23.66%)
   displ. norm   :     0.0345012 α      lambda       -0.5826209E-04
   maximum displ.:     0.0316016 α      in ANC's #3, #1, #2, ...

........................................................................
.............................. CYCLE   14 ..............................
........................................................................
   1    -13.1394044 -0.131394E+02  0.105E-01    0.13       0.0  T
   2    -13.1285713  0.108331E-01  0.123E+00    0.21       1.0  T
   3    -13.1391875 -0.106162E-01  0.198E-01    0.13       1.0  T
   4    -13.1394392 -0.251716E-03  0.877E-02    0.13       1.0  T
   5    -13.1393569  0.822718E-04  0.132E-01    0.12       1.0  T
   6    -13.1394587 -0.101775E-03  0.556E-02    0.13       1.0  T
   7    -13.1394783 -0.195869E-04  0.214E-02    0.13       1.9  T
   8    -13.1394812 -0.289370E-05  0.510E-03    0.13       8.0  T
   9    -13.1394813 -0.153204E-06  0.227E-03    0.13      18.0  T
  10    -13.1394813  0.760835E-07  0.398E-03    0.13      10.3  T
  11    -13.1394814 -0.107902E-06  0.706E-04    0.13      57.9  T
     SCC iter.                  ...        0 min,  0.001 sec
     gradient                   ...        0 min,  0.000 sec
 * total energy  :   -13.0800918 Eh     change       -0.3318497E-04 Eh
   gradient norm :     0.0024616 Eh/α   predicted    -0.2916623E-04 ( -12.11%)
   displ. norm   :     0.0061152 α      lambda       -0.4732618E-05
   maximum displ.:     0.0057858 α      in ANC's #3, #5, #8, ...

........................................................................
.............................. CYCLE   15 ..............................
........................................................................
   1    -13.1396352 -0.131396E+02  0.426E-02    0.13       0.0  T
   2    -13.1350143  0.462095E-02  0.818E-01    0.17       1.0  T
   3    -13.1396268 -0.461247E-02  0.521E-02    0.13       1.0  T
   4    -13.1396474 -0.206632E-04  0.139E-02    0.13       2.9  T
   5    -13.1396485 -0.106336E-05  0.451E-03    0.13       9.1  T
   6    -13.1396486 -0.792768E-07  0.187E-03    0.13      21.9  T
   7    -13.1396486  0.808815E-08  0.235E-03    0.13      17.4  T
   8    -13.1396486 -0.303007E-07  0.974E-04    0.13      41.9  T
   9    -13.1396486 -0.203591E-08  0.810E-04    0.13      50.4  T
     SCC iter.                  ...        0 min,  0.001 sec
     gradient                   ...        0 min,  0.000 sec
 * total energy  :   -13.0800952 Eh     change       -0.3468301E-05 Eh
   gradient norm :     0.0025388 Eh/α   predicted    -0.2364268E-05 ( -31.83%)
   displ. norm   :     0.0072279 α      lambda       -0.4163869E-05
   maximum displ.:     0.0048230 α      in ANC's #1, #3, #5, ...

........................................................................
.............................. CYCLE   16 ..............................
........................................................................
   1    -13.1398108 -0.131398E+02  0.436E-02    0.13       0.0  T
   2    -13.1350702  0.474061E-02  0.831E-01    0.17       1.0  T
   3    -13.1398120 -0.474177E-02  0.393E-02    0.13       1.0  T
   4    -13.1398211 -0.916638E-05  0.204E-02    0.13       2.0  T
   5    -13.1398242 -0.302912E-05  0.505E-03    0.13       8.1  T
   6    -13.1398243 -0.109878E-06  0.164E-03    0.13      24.9  T
   7    -13.1398243 -0.121606E-09  0.182E-03    0.13      22.5  T
   8    -13.1398243 -0.164469E-07  0.895E-04    0.13      45.6  T
   9    -13.1398243 -0.504721E-08  0.271E-04    0.13     150.7  T
     SCC iter.                  ...        0 min,  0.001 sec
     gradient                   ...        0 min,  0.000 sec
 * total energy  :   -13.0800980 Eh     change       -0.2822838E-05 Eh
   gradient norm :     0.0013218 Eh/α   predicted    -0.2082655E-05 ( -26.22%)
   displ. norm   :     0.0106486 α      lambda       -0.1952111E-05
   maximum displ.:     0.0100138 α      in ANC's #1, #5, #8, ...

........................................................................
.............................. CYCLE   17 ..............................
........................................................................
   1    -13.1399071 -0.131399E+02  0.199E-02    0.13       0.0  T
   2    -13.1389704  0.936676E-03  0.369E-01    0.14       1.0  T
   3    -13.1399085 -0.938136E-03  0.101E-02    0.13       4.0  T
   4    -13.1399089 -0.401165E-06  0.241E-03    0.13      16.9  T
   5    -13.1399081  0.843766E-06  0.103E-02    0.13       4.0  T
   6    -13.1399089 -0.856959E-06  0.520E-04    0.13      78.5  T
   7    -13.1399089 -0.149122E-08  0.599E-05    0.13     681.5  T
     SCC iter.                  ...        0 min,  0.001 sec
     gradient                   ...        0 min,  0.000 sec
 * total energy  :   -13.0800996 Eh     change       -0.1588992E-05 Eh
   gradient norm :     0.0011831 Eh/α   predicted    -0.9755990E-06 ( -38.60%)
   displ. norm   :     0.0050520 α      lambda       -0.5971833E-06
   maximum displ.:     0.0040293 α      in ANC's #1, #3, #2, ...

........................................................................
.............................. CYCLE   18 ..............................
........................................................................
   1    -13.1398131 -0.131398E+02  0.244E-02    0.13       0.0  T
   2    -13.1363408  0.347231E-02  0.699E-01    0.11       1.0  T
   3    -13.1398160 -0.347514E-02  0.137E-02    0.13       3.0  T
   4    -13.1398154  0.589203E-06  0.160E-02    0.13       2.5  T
   5    -13.1398174 -0.202412E-05  0.155E-03    0.13      26.4  T
   6    -13.1398174  0.166047E-07  0.167E-03    0.13      24.5  T
   7    -13.1398174 -0.142865E-07  0.721E-04    0.13      56.6  T
   8    -13.1398174 -0.355370E-08  0.445E-05    0.13     917.1  T
     SCC iter.                  ...        0 min,  0.001 sec
     gradient                   ...        0 min,  0.000 sec
 * total energy  :   -13.0801002 Eh     change       -0.5882355E-06 Eh
   gradient norm :     0.0007887 Eh/α   predicted    -0.2973209E-06 ( -49.46%)
   displ. norm   :     0.0030910 α      lambda       -0.2130423E-06
   maximum displ.:     0.0025845 α      in ANC's #1, #3, #2, ...

   *** GEOMETRY OPTIMIZATION CONVERGED AFTER 18 ITERATIONS ***

------------------------------------------------------------------------
 total energy gain   :       -15.9780741 Eh   -10026.3929 kcal/mol
 total RMSD          :         0.4032336 a0        0.2134 Å
 total power (kW/mol):     -2330.5793227 (step)********** (real)
------------------------------------------------------------------------

 ANCopt (total)                0 d,  0 h,  0 min,  0.281 sec
 optimizer setup                ...        0 min,  0.000 sec (  0.021%)
 model hessian                  ...        0 min,  0.000 sec (  0.029%)
 ANC generation                 ...        0 min,  0.000 sec (  0.030%)
 coordinate transformation      ...        0 min,  0.000 sec (  0.028%)
 single point calculation       ...        0 min,  0.279 sec ( 99.317%)
 optimization log               ...        0 min,  0.000 sec (  0.174%)
 hessian update                 ...        0 min,  0.000 sec (  0.026%)
 rational function              ...        0 min,  0.001 sec (  0.188%)

================
 final structure:
================
6
 xtb: 6.2.3 (830e466)
F        -3.44880965195605   -0.18806638904071    0.06615900390991
Cl        3.03699329316513    0.20887646918360   -0.04748030345779
C        -0.95306457453313   -0.06567657712039    0.01561616401005
H        -0.92260419345317   -0.64794565614934   -0.87932559059228
H        -0.88339605707327   -0.54759686869404    0.96630765458507
H        -0.97202881615056    1.00036902181995   -0.04255692845407
 
 Bond Distances (Angstroems)
 ---------------------------
C3-H4=1.0681         C3-H5=1.0681         C3-H6=1.0678         H4-C3=1.0681         H5-C3=1.0681         H6-C3=1.0678         
 C  H  Rav=1.0680 sigma=0.0002  Rmin=1.0678  Rmax=1.0681     3
 
 selected bond angles (degree)
 --------------------
H5-C3-H4=119.86                H6-C3-H4=119.94                H6-C3-H5=120.01                
 
 selected dihedral angles (degree)
 ---------------------------------

 
 CMA Distance (Angstroems)
 ---------------------------
R(CMA):  5.3094
           -------------------------------------------------
          |                Final Singlepoint                |
           -------------------------------------------------

          ...................................................
          :                      SETUP                      :
          :.................................................:
          :  # basis functions                  21          :
          :  # atomic orbitals                  20          :
          :  # shells                           10          :
          :  # electrons                        22          :
          :  max. iterations                   250          :
          :  Hamiltonian                  GFN2-xTB          :
          :  restarted?                      false          :
          :  GBSA solvation                  false          :
          :  PC potential                    false          :
          :  electronic temp.          300.0000000     K    :
          :  accuracy                    1.0000000          :
          :  -> integral cutoff          0.2500000E+02      :
          :  -> integral neglect         0.1000000E-07      :
          :  -> SCF convergence          0.1000000E-05 Eh   :
          :  -> wf. convergence          0.1000000E-03 e    :
          :  Broyden damping             0.4000000          :
          ...................................................

 iter      E             dE          RMSdq      gap      omega  full diag
   1    -13.1398174 -0.131398E+02  0.114E-04    0.13       0.0  T
   2    -13.1398174  0.543260E-07  0.278E-03    0.13      14.7  T
   3    -13.1398174 -0.544038E-07  0.453E-05    0.13     901.1  T
   4    -13.1398174  0.227374E-12  0.444E-05    0.13     919.2  T

   *** convergence criteria satisfied after 4 iterations ***

         #    Occupation            Energy/Eh            Energy/eV
      -------------------------------------------------------------
         1        2.0000           -0.8440192             -22.9669
       ...           ...                  ...                  ...
         5        2.0000           -0.3752358             -10.2107
         6        2.0000           -0.2651845              -7.2160
         7        2.0000           -0.2546244              -6.9287
         8        2.0000           -0.2546237              -6.9287
         9        1.9422           -0.2276514              -6.1947
        10        1.9065           -0.2271765              -6.1818
        11        1.9064           -0.2271757              -6.1818 (HOMO)
        12        0.2449           -0.2224410              -6.0529 (LUMO)
        13                          0.2319797               6.3125
        14                          0.2659299               7.2363
        15                          0.2659748               7.2375
        16                          0.2659753               7.2376
       ...                                ...                  ...
        20                          0.3993591              10.8671
      -------------------------------------------------------------
                  HL-Gap            0.0047347 Eh            0.1288 eV
             Fermi-level           -0.2243122 Eh           -6.1038 eV

 SCC (total)                   0 d,  0 h,  0 min,  0.001 sec
 SCC setup                      ...        0 min,  0.000 sec (  5.787%)
 Dispersion                     ...        0 min,  0.000 sec (  0.629%)
 integral evaluation            ...        0 min,  0.000 sec ( 29.454%)
 zeroth order Hamiltonian       ...        0 min,  0.000 sec (  0.997%)
 iterations                     ...        0 min,  0.000 sec ( 27.091%)
 molecular gradient             ...        0 min,  0.000 sec ( 29.519%)
 printout                       ...        0 min,  0.000 sec (  4.638%)

         :::::::::::::::::::::::::::::::::::::::::::::::::::::
         ::                     SUMMARY                     ::
         :::::::::::::::::::::::::::::::::::::::::::::::::::::
         :: total energy             -13.080100217687 Eh    ::
         :: gradient norm              0.000788445455 Eh/a0 ::
         :: HOMO-LUMO gap              0.128837421592 eV    ::
         ::.................................................::
         :: SCC energy               -13.139817412435 Eh    ::
         :: -> isotropic ES            0.160509170702 Eh    ::
         :: -> anisotropic ES         -0.000740752027 Eh    ::
         :: -> anisotropic XC          0.006042823537 Eh    ::
         :: -> dispersion             -0.001411493081 Eh    ::
         :: repulsion energy           0.059701187861 Eh    ::
         :: add. restraining           0.000019804709 Eh    ::
         :::::::::::::::::::::::::::::::::::::::::::::::::::::

           -------------------------------------------------
          |                Property Printout                |
           -------------------------------------------------

    * Orbital Energies and Occupations

         #    Occupation            Energy/Eh            Energy/eV
      -------------------------------------------------------------
         1        2.0000           -0.8440192             -22.9669
         2        2.0000           -0.5418815             -14.7453
         3        2.0000           -0.4724004             -12.8547
         4        2.0000           -0.3752617             -10.2114
         5        2.0000           -0.3752358             -10.2107
         6        2.0000           -0.2651845              -7.2160
         7        2.0000           -0.2546244              -6.9287
         8        2.0000           -0.2546237              -6.9287
         9        1.9422           -0.2276514              -6.1947
        10        1.9065           -0.2271765              -6.1818
        11        1.9064           -0.2271757              -6.1818 (HOMO)
        12        0.2449           -0.2224410              -6.0529 (LUMO)
        13                          0.2319797               6.3125
        14                          0.2659299               7.2363
        15                          0.2659748               7.2375
        16                          0.2659753               7.2376
        17                          0.2661484               7.2423
        18                          0.2661484               7.2423
        19                          0.3981028              10.8329
        20                          0.3993591              10.8671
      -------------------------------------------------------------
                  HL-Gap            0.0047347 Eh            0.1288 eV
             Fermi-level           -0.2243122 Eh           -6.1038 eV

     #   Z        covCN         q      C6AA      α(0)
     1   9 F      0.000    -0.522    15.654     4.608
     2  17 Cl     0.000    -0.697   115.190    16.334
     3   6 C      2.780    -0.054    29.329     8.870
     4   1 H      0.927     0.091     1.870     2.138
     5   1 H      0.927     0.091     1.868     2.138
     6   1 H      0.927     0.092     1.864     2.135

 Mol. C6AA /au·bohr⁶  :        579.211755
 Mol. C8AA /au·bohr⁸  :      16508.573152
 Mol. α(0) /au        :         36.223118


Wiberg/Mayer (AO) data.
largest (>0.10) Wiberg bond orders for each atom
          total WBO             WBO to atom ...
     1  F   0.582        C    3 0.582
     2  Cl  0.069
     3  C   3.622        H    4 0.990    H    5 0.990    H    6 0.990    F    1 0.582
     4  H   0.992        C    3 0.990
     5  H   0.992        C    3 0.990
     6  H   0.992        C    3 0.990

molecular dipole:
                 x           y           z       tot (Debye)
 q only:       -0.975      -0.115       0.003
   full:       -0.950      -0.114       0.003       2.432
molecular quadrupole (traceless):
                xx          xy          yy          xz          yz          zz
 q only:      -44.944      -4.151      22.355       1.180       0.071      22.589
  q+dip:      -46.130      -4.233      22.949       1.220       0.071      23.181
   full:      -45.323      -4.181      22.545       1.192       0.071      22.778

           -------------------------------------------------
          |                Geometry Summary                 |
           -------------------------------------------------

      molecular mass/u    :       69.4858989
   center of mass at/Å    :        0.4015399       0.0409691      -0.0027928
  moments of inertia/u·Å² :        0.3456976E+01   0.5593115E+03   0.5593226E+03
rotational constants/cm⁻¹ :        0.4876410E+01   0.3013997E-01   0.3013937E-01

 * 3 selected distances

     #   Z        #   Z                                     value/Å
     3   6 C      4   1 H                                 1.0681226
     3   6 C      5   1 H                                 1.0681363 (max)
     3   6 C      6   1 H                                 1.0678001 (min)

 * 1 distinct bonds (by element types)

   Z      Z             #   av. dist./Å        max./Å        min./Å
   1 H    6 C           3     1.0680197     1.0681363     1.0678001


optimized geometry written to: xtbopt.xyz


           -------------------------------------------------
          | TOTAL ENERGY              -13.080100217687 Eh   |
          | GRADIENT NORM               0.000788445455 Eh/α |
          | HOMO-LUMO GAP               0.128837421592 eV   |
           -------------------------------------------------
########################################################################
[WARNING] Runtime exception occurred
-2- scf: Self consistent charge iterator did not converge
-1- scf: Self consistent charge iterator did not converge
########################################################################

------------------------------------------------------------------------
 * finished run on 2020/04/08 at 13:05:41.155     
------------------------------------------------------------------------
 total:
 * wall-time:     0 d,  0 h,  0 min,  0.377 sec
 *  cpu-time:     0 d,  0 h,  0 min,  0.568 sec
 * ratio c/w:     1.505 speedup
 SCF:
 * wall-time:     0 d,  0 h,  0 min,  0.027 sec
 *  cpu-time:     0 d,  0 h,  0 min,  0.031 sec
 * ratio c/w:     1.123 speedup
 ANC optimizer:
 * wall-time:     0 d,  0 h,  0 min,  0.282 sec
 *  cpu-time:     0 d,  0 h,  0 min,  0.512 sec
 * ratio c/w:     1.814 speedup

