      -----------------------------------------------------------      
     |                   =====================                   |     
     |                           x T B                           |     
     |                   =====================                   |     
     |                         S. Grimme                         |     
     |          Mulliken Center for Theoretical Chemistry        |     
     |                    University of Bonn                     |     
      -----------------------------------------------------------      

   * xtb version 6.2.3 (830e466) compiled by 'ehlert@majestix' on 2020-03-16

   xtb is free software: you can redistribute it and/or modify it under
   the terms of the GNU Lesser General Public License as published by
   the Free Software Foundation, either version 3 of the License, or
   (at your option) any later version.
   
   xtb is distributed in the hope that it will be useful,
   but WITHOUT ANY WARRANTY; without even the implied warranty of
   MERCHANTABILITY or FITNESS FOR A PARTICULAR PURPOSE.  See the
   GNU Lesser General Public License for more details.
   
   Cite this work as:
   * S. Grimme, C. Bannwarth, P. Shushkov, J. Chem. Theory Comput., 2017,
     13, 1989-2009. DOI: 10.1021/acs.jctc.7b00118
   * C. Bannwarth, S. Ehlert and S. Grimme., J. Chem. Theory Comput., 2019,
     15, 1652-1671. DOI: 10.1021/acs.jctc.8b01176
   * P. Pracht, E. Caldeweyher, S. Ehlert, S. Grimme, ChemRxiv, 2019, preprint.
     DOI: 10.26434/chemrxiv.8326202.v1
   
   for DFT-D4:
   * E. Caldeweyher, C. Bannwarth and S. Grimme, J. Chem. Phys., 2017,
     147, 034112. DOI: 10.1063/1.4993215
   * E. Caldeweyher, S. Ehlert, A. Hansen, H. Neugebauer, S. Spicher,
     C. Bannwarth and S. Grimme, J. Chem. Phys., 2019, 150, 154122.
     DOI: 10.1063/1.5090222
   
   for sTDA-xTB:
   * S. Grimme and C. Bannwarth, J. Chem. Phys., 2016, 145, 054103.
     DOI: 10.1063/1.4959605
   
   in the mass-spec context:
   * V. Asgeirsson, C. Bauer and S. Grimme, Chem. Sci., 2017, 8, 4879.
     DOI: 10.1039/c7sc00601b
   
   for metadynamics refer to:
   * S. Grimme, J. Chem. Theory Comput., 2019, 155, 2847-2862
     DOI: 10.1021/acs.jctc.9b00143
   
   with help from (in alphabetical order)
   C. Bannwarth, F. Bohle, G. Brandenburg, E. Caldeweyher, M. Checinski,
   S. Dohm, S. Ehlert, S. Ehrlich, F. März, H. Neugebauer, J. Pisarek,
   P. Pracht, P. Shushkov, and S. Spicher.
   
 * started run on 2020/04/08 at 23:04:47.369     

           -------------------------------------------------
          |                Calculation Setup                |
           -------------------------------------------------

          program call               : /home/tom/.local/bin/xtb SN2_PES_scan_1-6_xtb.xyz --chrg -1 --opt --input xcontrol_SN2_PES_scan_1-6
          coordinate file            : SN2_PES_scan_1-6_xtb.xyz
          omp threads                :                     1
          number of atoms            :                     6
          number of electrons        :                    22
          charge                     :                    -1
          spin                       :                   0.0
          first test random number   :      0.26130967503941

constraining bond 1 3 to    3.7050000 Å, actual value:    4.0000086 Å
constraining bond 2 3 to    3.5830000 Å, actual value:    3.9999650 Å

molecular fragmentation (1/2 indicates fragments):
122222
# atoms in fragment 1/2:     1     5
 fragment masses (1/2) :       19.00       50.49
CMA distance (Bohr)    :  12.868
constraining FC (au)   : 10.0000
########################################################################
[WARNING] Please study the warnings concerning your input carefully
-2- prog_main: XTBPATH is not set, using XTBHOME instead
-1- prog_main: XTBHOME is not set, using HOME instead
########################################################################
           ------------------------------------------------- 
          |                 G F N 2 - x T B                 |
          | Geometry, Frequencies, Noncovalent interactions |
          |            JCTC 2019 parametrisation            |
           ------------------------------------------------- 
             k(s)              :                1.8500
             k(p)              :                2.2300
             k(d)              :                2.2300
             k(f)              :                2.0000
             kEN (H0ij)        :               -2.0000
             D4 a1             :                0.5200
             D4 a2             :                5.0000
             D4 s6             :                1.0000
             D4 s8             :                2.7000
             D4 s9             :                5.0000
             alphaj            :                2.0000

  Z AO/shell   Hii/eV     exponent
  1     Wed Apr 25 08:07:45 CEST 2018   EN: 2.200 GM2: 0.406  GM3: 0.0800  RAES: 1.40
     1s    -10.707211    1.230000
  6     Wed Apr 25 08:07:45 CEST 2018   EN: 2.550 GM2: 0.538  GM3: 0.1500  RAES: 3.00
     2s    -13.970922    2.096432
     2p    -10.063292    1.800000
  9     Mon Apr 23 13:58:50 CEST 2018   EN: 3.980 GM2: 0.532  GM3: 0.1426  RAES: 2.40
     2s    -23.458179    2.416361
     2p    -15.746583    2.308399
 17     Mon Apr 23 14:09:22 CEST 2018   EN: 3.160 GM2: 0.249  GM3: 0.1495  RAES: 2.50
     3s    -29.278781    2.485265
     3p    -12.673758    2.199650
     3d     -0.240338    2.476089

           ------------------------------------------------- 
          |        Self-Consistent Charge Iterations        |
           ------------------------------------------------- 

          ...................................................
          :                      SETUP                      :
          :.................................................:
          :  # basis functions                  21          :
          :  # atomic orbitals                  20          :
          :  # shells                           10          :
          :  # electrons                        22          :
          :  max. iterations                   250          :
          :  Hamiltonian                  GFN2-xTB          :
          :  restarted?                      false          :
          :  GBSA solvation                  false          :
          :  PC potential                    false          :
          :  electronic temp.          300.0000000     K    :
          :  accuracy                    1.0000000          :
          :  -> integral cutoff          0.2500000E+02      :
          :  -> integral neglect         0.1000000E-07      :
          :  -> SCF convergence          0.1000000E-05 Eh   :
          :  -> wf. convergence          0.1000000E-03 e    :
          :  Broyden damping             0.4000000          :
          ...................................................

 iter      E             dE          RMSdq      gap      omega  full diag
   1    -12.7843123 -0.127843E+02  0.106E+01    1.16       0.0  T
   2    -12.1075269  0.676785E+00  0.106E+01    0.00       1.0  T
   3    -12.4673337 -0.359807E+00  0.911E+00    0.00       1.0  T
   4    -12.8225730 -0.355239E+00  0.834E+00    1.52       1.0  T
   5    -12.4457799  0.376793E+00  0.994E+00    0.00       1.0  T
   6    -12.2257466  0.220033E+00  0.103E+01    0.00       1.0  T
   7    -12.2369579 -0.112113E-01  0.957E+00    0.00       1.0  T
   8    -12.2315778  0.538004E-02  0.999E+00    0.00       1.0  T
   9    -12.2288762  0.270166E-02  0.103E+01    0.00       1.0  T
  10    -12.2268591  0.201703E-02  0.104E+01    0.00       1.0  T
  11    -12.2333163 -0.645715E-02  0.993E+00    0.00       1.0  T
  12    -12.8587076 -0.625391E+00  0.659E+00    0.76       1.0  T
  13    -12.2091178  0.649590E+00  0.113E+01    0.00       1.0  T
  14    -12.2307771 -0.216593E-01  0.974E+00    0.00       1.0  T
  15    -12.8650458 -0.634269E+00  0.646E+00    0.64       1.0  T
  16    -12.2241590  0.640887E+00  0.990E+00    0.00       1.0  T
  17    -12.9340086 -0.709850E+00  0.575E+00    0.18       1.0  T
  18    -13.0214874 -0.874788E-01  0.401E+00    0.11       1.0  T
  19    -13.0121525  0.933487E-02  0.423E+00    0.12       1.0  T
  20    -12.2171748  0.794978E+00  0.101E+01    0.00       1.0  T
  21    -12.4542766 -0.237102E+00  0.107E+01    0.00       1.0  T
  22    -12.2023945  0.251882E+00  0.112E+01    0.00       1.0  T
  23    -12.4404161 -0.238022E+00  0.120E+01    0.00       1.0  T
  24    -12.4369871  0.342901E-02  0.124E+01    0.00       1.0  T
  25    -12.1958236  0.241164E+00  0.122E+01    0.00       1.0  T
  26    -12.1812512  0.145724E-01  0.132E+01    0.00       1.0  T
  27    -12.2136741 -0.324229E-01  0.106E+01    0.00       1.0  T
  28    -12.8524843 -0.638810E+00  0.715E+00    0.04       1.0  T
  29    -12.2233814  0.629103E+00  0.976E+00    0.00       1.0  T
  30    -12.7846831 -0.561302E+00  0.866E+00    0.04       1.0  T
  31    -12.4807551  0.303928E+00  0.113E+01    0.02       1.0  T
  32    -12.4799105  0.844631E-03  0.113E+01    0.02       1.0  T
  33    -13.0416292 -0.561719E+00  0.538E+00    0.08       1.0  T
  34    -12.5071174  0.534512E+00  0.117E+01    0.03       1.0  T
  35    -12.5076712 -0.553745E-03  0.117E+01    0.03       1.0  T
  36    -12.5061868  0.148438E-02  0.107E+01    0.03       1.0  T
  37    -12.2059177  0.300269E+00  0.112E+01    0.00       1.0  T
  38    -12.2306760 -0.247583E-01  0.958E+00    0.00       1.0  T
  39    -12.8656567 -0.634981E+00  0.664E+00    0.55       1.0  T
  40    -12.2145796  0.651077E+00  0.107E+01    0.00       1.0  T
  41    -12.9899052 -0.775326E+00  0.342E+00    0.02       1.0  T
  42    -12.9070595  0.828457E-01  0.596E+00    0.20       1.0  T
  43    -12.2107194  0.696340E+00  0.109E+01    0.00       1.0  T
  44    -13.0406090 -0.829890E+00  0.323E+00    0.10       1.0  T
  45    -12.2098859  0.830723E+00  0.107E+01    0.00       1.0  T
  46    -12.5963169 -0.386431E+00  0.878E+00    0.02       1.0  T
  47    -12.1997495  0.396567E+00  0.114E+01    0.00       1.0  T
  48    -12.2205213 -0.207718E-01  0.100E+01    0.02       1.0  T
  49    -12.2365812 -0.160599E-01  0.955E+00    0.05       1.0  T
  50    -12.8884781 -0.651897E+00  0.687E+00    0.26       1.0  T
  51    -12.2193001  0.669178E+00  0.102E+01    0.04       1.0  T
  52    -13.0440687 -0.824769E+00  0.480E+00    0.08       1.0  T
  53    -12.2152509  0.828818E+00  0.103E+01    0.05       1.0  T
  54    -12.8025901 -0.587339E+00  0.775E+00    0.03       1.0  T
  55    -12.2136960  0.588894E+00  0.106E+01    0.07       1.0  T
  56    -12.9476144 -0.733918E+00  0.683E+00    0.17       1.0  T
  57    -12.2176680  0.729946E+00  0.104E+01    0.09       1.0  T
  58    -12.7045211 -0.486853E+00  0.915E+00    0.02       1.0  T
  59    -12.2263709  0.478150E+00  0.982E+00    0.12       1.0  T
  60    -12.9519572 -0.725586E+00  0.695E+00    0.04       1.0  T
  61    -12.2529203  0.699037E+00  0.950E+00    0.14       1.0  T
  62    -12.7973363 -0.544416E+00  0.845E+00    0.03       1.0  T
  63    -12.8210211 -0.236848E-01  0.790E+00    0.03       1.0  T
  64    -13.0368311 -0.215810E+00  0.555E+00    0.10       1.0  T
  65    -12.2298137  0.807017E+00  0.965E+00    0.13       1.0  T
  66    -12.7140327 -0.484219E+00  0.912E+00    0.02       1.0  T
  67    -12.9625097 -0.248477E+00  0.703E+00    0.04       1.0  T
  68    -12.5197279  0.442782E+00  0.105E+01    0.00       1.0  T
  69    -13.0413751 -0.521647E+00  0.618E+00    0.07       1.0  T
  70    -12.4740333  0.567342E+00  0.107E+01    0.00       1.0  T
  71    -12.9338202 -0.459787E+00  0.724E+00    0.04       1.0  T
  72    -12.5318709  0.401949E+00  0.102E+01    0.00       1.0  T
  73    -13.0314873 -0.499616E+00  0.587E+00    0.10       1.0  T
  74    -12.4738223  0.557665E+00  0.105E+01    0.00       1.0  T
  75    -12.9598521 -0.486030E+00  0.661E+00    0.04       1.0  T
  76    -12.5454185  0.414434E+00  0.995E+00    0.00       1.0  T
  77    -12.9931790 -0.447761E+00  0.598E+00    0.12       1.0  T
  78    -12.4748170  0.518362E+00  0.103E+01    0.00       1.0  T
  79    -13.0359652 -0.561148E+00  0.526E+00    0.07       1.0  T
  80    -12.5001799  0.535785E+00  0.101E+01    0.00       1.0  T
  81    -12.9486486 -0.448469E+00  0.618E+00    0.15       1.0  T
  82    -12.4892230  0.459426E+00  0.993E+00    0.00       1.0  T
  83    -12.9564540 -0.467231E+00  0.594E+00    0.15       1.0  T
  84    -12.5205673  0.435887E+00  0.963E+00    0.00       1.0  T
  85    -12.8996207 -0.379053E+00  0.642E+00    0.21       1.0  T
  86    -13.0304851 -0.130864E+00  0.360E+00    0.06       1.0  T
  87    -12.9045531  0.125932E+00  0.594E+00    0.22       1.0  T
  88    -12.9574563 -0.529032E-01  0.498E+00    0.17       1.0  T
  89    -12.2244668  0.732990E+00  0.996E+00    0.00       1.0  T
  90    -12.9436478 -0.719181E+00  0.534E+00    0.17       1.0  T
  91    -12.9881264 -0.444787E-01  0.470E+00    0.13       1.0  T
  92    -12.9923781 -0.425171E-02  0.447E+00    0.05       1.0  T
  93    -13.0428674 -0.504892E-01  0.398E+00    0.08       1.0  T
  94    -12.9351801  0.107687E+00  0.542E+00    0.04       1.0  T
  95    -12.9629323 -0.277522E-01  0.520E+00    0.15       1.0  T
  96    -12.9802371 -0.173049E-01  0.463E+00    0.14       1.0  T
  97    -12.9043429  0.758942E-01  0.569E+00    0.24       1.0  T
  98    -12.2253539  0.678989E+00  0.982E+00    0.00       1.0  T
  99    -13.0102560 -0.784902E+00  0.405E+00    0.12       1.0  T
 100    -12.9386557  0.716003E-01  0.542E+00    0.17       1.0  T
 101    -12.9381349  0.520719E-03  0.531E+00    0.18       1.0  T
 102    -12.9134043  0.247306E-01  0.561E+00    0.22       1.0  T
 103    -12.9054187  0.798561E-02  0.569E+00    0.25       1.0  T
 104    -12.7284208  0.176998E+00  0.613E+00    0.00       1.0  T
 105    -13.0393422 -0.310921E+00  0.354E+00    0.09       1.0  T
 106    -12.9444771  0.948651E-01  0.531E+00    0.17       1.0  T
 107    -12.9369030  0.757413E-02  0.530E+00    0.18       1.0  T
 108    -12.9187871  0.181159E-01  0.553E+00    0.21       1.0  T
 109    -12.9094219  0.936524E-02  0.564E+00    0.23       1.0  T
 110    -12.9069291  0.249272E-02  0.567E+00    0.24       1.0  T
 111    -12.9078576 -0.928488E-03  0.566E+00    0.25       1.0  T
 112    -12.9030049  0.485272E-02  0.571E+00    0.25       1.0  T
 113    -12.9028769  0.128030E-03  0.571E+00    0.25       1.0  T
 114    -12.9036146 -0.737772E-03  0.570E+00    0.24       1.0  T
 115    -12.9058982 -0.228354E-02  0.566E+00    0.24       1.0  T
 116    -12.9098254 -0.392722E-02  0.561E+00    0.23       1.0  T
 117    -12.9810846 -0.712592E-01  0.468E+00    0.15       1.0  T
 118    -12.9317299  0.493547E-01  0.527E+00    0.19       1.0  T
 119    -13.0051008 -0.733709E-01  0.429E+00    0.13       1.0  T
 120    -12.9511383  0.539625E-01  0.495E+00    0.17       1.0  T
 121    -13.0561667 -0.105028E+00  0.329E+00    0.10       1.0  T
 122    -12.9844887  0.716780E-01  0.438E+00    0.14       1.0  T
 123    -12.9761862  0.830258E-02  0.468E+00    0.16       1.0  T
 124    -13.0473376 -0.711514E-01  0.344E+00    0.11       1.0  T
 125    -12.9930691  0.542685E-01  0.418E+00    0.13       1.0  T
 126    -13.0856226 -0.925535E-01  0.240E+00    0.08       1.0  T
 127    -13.0236395  0.619832E-01  0.356E+00    0.11       1.0  T
 128    -13.0110062  0.126333E-01  0.414E+00    0.13       1.0  T
 129    -12.9810719  0.299343E-01  0.439E+00    0.14       1.0  T
 130    -13.0878447 -0.106773E+00  0.187E+00    0.06       1.0  T
 131    -13.0468167  0.410279E-01  0.295E+00    0.08       1.0  T
 132    -13.0762751 -0.294584E-01  0.209E+00    0.05       1.0  T
 133    -13.0210181  0.552571E-01  0.369E+00    0.11       1.0  T
 134    -12.9448859  0.761321E-01  0.504E+00    0.18       1.0  T
 135    -12.9653397 -0.204537E-01  0.467E+00    0.16       1.0  T
 136    -13.0860518 -0.120712E+00  0.237E+00    0.09       1.0  T
 137    -13.0343184  0.517334E-01  0.321E+00    0.10       1.0  T
 138    -12.6190111  0.415307E+00  0.700E+00    0.00       1.0  T
 139    -13.0109063 -0.391895E+00  0.389E+00    0.05       1.0  T
 140    -12.9226945  0.882118E-01  0.545E+00    0.21       1.0  T
 141    -12.9358261 -0.131316E-01  0.516E+00    0.19       1.0  T
 142    -12.9780983 -0.422722E-01  0.442E+00    0.15       1.0  T
 143    -13.0678234 -0.897251E-01  0.288E+00    0.10       1.0  T
 144    -13.0271260  0.406974E-01  0.334E+00    0.11       1.0  T
 145    -12.2458952  0.781231E+00  0.943E+00    0.00       1.0  T
 146    -12.9404639 -0.694569E+00  0.511E+00    0.04       1.0  T
 147    -12.5503011  0.390163E+00  0.748E+00    0.00       1.0  T
 148    -12.9139620 -0.363661E+00  0.581E+00    0.20       1.0  T
 149    -12.9927356 -0.787736E-01  0.440E+00    0.13       1.0  T
 150    -12.9681363  0.245993E-01  0.472E+00    0.15       1.0  T
 151    -12.9821025 -0.139662E-01  0.441E+00    0.14       1.0  T
 152    -12.9842511 -0.214859E-02  0.431E+00    0.14       1.0  T
 153    -13.0986280 -0.114377E+00  0.158E+00    0.07       1.0  T
 154    -13.0480706  0.505574E-01  0.274E+00    0.08       1.0  T
 155    -12.2370999  0.810971E+00  0.948E+00    0.00       1.0  T
 156    -13.0434080 -0.806308E+00  0.345E+00    0.07       1.0  T
 157    -12.9123156  0.131092E+00  0.557E+00    0.22       1.0  T
 158    -12.9888972 -0.765816E-01  0.424E+00    0.14       1.0  T
 159    -13.0024836 -0.135864E-01  0.391E+00    0.13       1.0  T
 160    -12.2326400  0.769844E+00  0.952E+00    0.00       1.0  T
 161    -12.9202148 -0.687575E+00  0.544E+00    0.04       1.0  T
 162    -13.0463568 -0.126142E+00  0.259E+00    0.05       1.0  T
 163    -12.9184016  0.127955E+00  0.560E+00    0.20       1.0  T
 164    -13.0092049 -0.908032E-01  0.390E+00    0.12       1.0  T
 165    -12.9893275  0.198774E-01  0.418E+00    0.14       1.0  T
 166    -12.8172455  0.172082E+00  0.538E+00    0.00       1.0  T
 167    -12.9973667 -0.180121E+00  0.402E+00    0.05       1.0  T
 168    -12.4692175  0.528149E+00  0.804E+00    0.00       1.0  T
 169    -12.9591477 -0.489930E+00  0.516E+00    0.15       1.0  T
 170    -13.0150387 -0.558911E-01  0.389E+00    0.12       1.0  T
 171    -12.9804246  0.346141E-01  0.440E+00    0.14       1.0  T
 172    -13.0072785 -0.268539E-01  0.379E+00    0.12       1.0  T
 173    -12.2456539  0.761625E+00  0.943E+00    0.00       1.0  T
 174    -12.9520555 -0.706402E+00  0.497E+00    0.04       1.0  T
 175    -13.0054360 -0.533804E-01  0.428E+00    0.13       1.0  T
 176    -12.9506748  0.547612E-01  0.492E+00    0.17       1.0  T
 177    -13.0169440 -0.662692E-01  0.356E+00    0.12       1.0  T
 178    -12.2387450  0.778199E+00  0.948E+00    0.00       1.0  T
 179    -12.9590811 -0.720336E+00  0.485E+00    0.04       1.0  T
 180    -13.0310112 -0.719301E-01  0.383E+00    0.12       1.0  T
 181    -12.9501572  0.808540E-01  0.494E+00    0.17       1.0  T
 182    -13.0144077 -0.642505E-01  0.363E+00    0.12       1.0  T
 183    -12.2685032  0.745904E+00  0.930E+00    0.00       1.0  T
 184    -12.9686683 -0.700165E+00  0.469E+00    0.04       1.0  T
 185    -12.9964912 -0.278229E-01  0.442E+00    0.14       1.0  T
 186    -12.9570548  0.394364E-01  0.480E+00    0.16       1.0  T
 187    -13.0147703 -0.577155E-01  0.360E+00    0.12       1.0  T
 188    -12.2316733  0.783097E+00  0.952E+00    0.00       1.0  T
 189    -12.9565713 -0.724898E+00  0.487E+00    0.04       1.0  T
 190    -13.0857589 -0.129188E+00  0.221E+00    0.07       1.0  T
 191    -12.9461731  0.139586E+00  0.508E+00    0.17       1.0  T
 192    -13.0145696 -0.683965E-01  0.368E+00    0.12       1.0  T
 193    -13.0988227 -0.842531E-01  0.179E+00    0.08       1.0  T
 194    -13.0463359  0.524868E-01  0.272E+00    0.09       1.0  T
 195    -12.2282168  0.818119E+00  0.956E+00    0.00       1.0  T
 196    -13.0234148 -0.795198E+00  0.371E+00    0.06       1.0  T
 197    -12.9092629  0.114152E+00  0.555E+00    0.23       1.0  T
 198    -12.9919480 -0.826852E-01  0.411E+00    0.13       1.0  T
 199    -12.8296056  0.162342E+00  0.527E+00    0.01       1.0  T
 200    -13.0113407 -0.181735E+00  0.369E+00    0.05       1.0  T
 201    -12.7337531  0.277588E+00  0.607E+00    0.00       1.0  T
 202    -12.9897556 -0.256002E+00  0.450E+00    0.13       1.0  T
 203    -13.0128241 -0.230686E-01  0.380E+00    0.12       1.0  T
 204    -13.0011612  0.116629E-01  0.392E+00    0.13       1.0  T
 205    -12.7950740  0.206087E+00  0.560E+00    0.00       1.0  T
 206    -13.0120626 -0.216989E+00  0.369E+00    0.05       1.0  T
 207    -12.9578106  0.542520E-01  0.380E+00    0.03       1.0  T
 208    -13.0007352 -0.429246E-01  0.419E+00    0.13       1.0  T
 209    -13.0139039 -0.131687E-01  0.371E+00    0.12       1.0  T
 210    -13.0278685 -0.139646E-01  0.343E+00    0.12       1.0  T
 211    -12.2370193  0.790849E+00  0.949E+00    0.00       1.0  T
 212    -12.9600632 -0.723044E+00  0.480E+00    0.04       1.0  T
 213    -13.0859843 -0.125921E+00  0.227E+00    0.08       1.0  T
 214    -12.9677663  0.118218E+00  0.470E+00    0.15       1.0  T
 215    -13.0274815 -0.597153E-01  0.333E+00    0.11       1.0  T
 216    -12.6055127  0.421969E+00  0.713E+00    0.00       1.0  T
 217    -13.0247232 -0.419210E+00  0.354E+00    0.06       1.0  T
 218    -12.9390239  0.856993E-01  0.514E+00    0.21       1.0  T
 219    -13.0154629 -0.764390E-01  0.358E+00    0.12       1.0  T
 220    -12.2549429  0.760520E+00  0.938E+00    0.00       1.0  T
 221    -12.9866283 -0.731685E+00  0.435E+00    0.05       1.0  T
 222    -12.9955779 -0.894959E-02  0.441E+00    0.14       1.0  T
 223    -12.9907966  0.478128E-02  0.415E+00    0.14       1.0  T
 224    -13.0632947 -0.724981E-01  0.264E+00    0.11       1.0  T
 225    -12.2278537  0.835441E+00  0.956E+00    0.00       1.0  T
 226    -12.9672515 -0.739398E+00  0.466E+00    0.04       1.0  T
 227    -13.0617369 -0.944854E-01  0.314E+00    0.10       1.0  T
 228    -12.9799447  0.817922E-01  0.442E+00    0.14       1.0  T
 229    -13.0267988 -0.468541E-01  0.330E+00    0.11       1.0  T
 230    -12.2357546  0.791044E+00  0.949E+00    0.00       1.0  T
 231    -13.0101858 -0.774431E+00  0.392E+00    0.05       1.0  T
 232    -12.9194595  0.907263E-01  0.541E+00    0.22       1.0  T
 233    -13.0040719 -0.846124E-01  0.384E+00    0.13       1.0  T
 234    -12.5647334  0.439338E+00  0.743E+00    0.00       1.0  T
 235    -13.0089044 -0.444171E+00  0.383E+00    0.05       1.0  T
 236    -13.0218155 -0.129111E-01  0.394E+00    0.13       1.0  T
 237    -13.0113283  0.104872E-01  0.370E+00    0.12       1.0  T
 238    -13.0043553  0.697302E-02  0.323E+00    0.03       1.0  T
 239    -13.0419558 -0.376005E-01  0.285E+00    0.07       1.0  T
 240    -12.5654805  0.476475E+00  0.739E+00    0.00       1.0  T
 241    -13.0352437 -0.469763E+00  0.352E+00    0.10       1.0  T
 242    -12.9882014  0.470424E-01  0.425E+00    0.14       1.0  T
 243    -13.0253929 -0.371915E-01  0.334E+00    0.11       1.0  T
 244    -12.2626984  0.762694E+00  0.933E+00    0.00       1.0  T
 245    -13.0180196 -0.755321E+00  0.376E+00    0.06       1.0  T
 246    -12.9209892  0.970304E-01  0.536E+00    0.21       1.0  T
 247    -13.0160714 -0.950822E-01  0.357E+00    0.12       1.0  T
 248    -12.4208005  0.595271E+00  0.838E+00    0.00       1.0  T
 249    -13.0154467 -0.594646E+00  0.374E+00    0.06       1.0  T
 250    -12.9366940  0.787527E-01  0.517E+00    0.21       1.0  T

   *** convergence criteria cannot be satisfied within 250 iterations ***

         #    Occupation            Energy/Eh            Energy/eV
      -------------------------------------------------------------
         1        2.0000           -0.8693557             -23.6564
       ...           ...                  ...                  ...
         5        2.0000           -0.3800482             -10.3416
         6        1.9905           -0.2494970              -6.7892
         7        1.9880           -0.2492789              -6.7832
         8        1.9867           -0.2491750              -6.7804
         9        1.9867           -0.2491748              -6.7804
        10        1.9843           -0.2490217              -6.7762
        11        1.9843           -0.2490217              -6.7762 (HOMO)
        12        0.0795           -0.2413951              -6.5687 (LUMO)
        13                          0.2237461               6.0884
        14                          0.2347464               6.3878
        15                          0.2347720               6.3885
        16                          0.2347721               6.3885
       ...                                ...                  ...
        20                          0.3927405              10.6870
      -------------------------------------------------------------
                  HL-Gap            0.0076266 Eh            0.2075 eV
             Fermi-level           -0.2444211 Eh           -6.6510 eV

 SCC (total)                   0 d,  0 h,  0 min,  0.118 sec
 SCC setup                      ...        0 min,  0.000 sec (  0.051%)
 Dispersion                     ...        0 min,  0.000 sec (  0.010%)
 integral evaluation            ...        0 min,  0.001 sec (  0.549%)
 zeroth order Hamiltonian       ...        0 min,  0.000 sec (  0.011%)
 iterations                     ...        0 min,  0.117 sec ( 98.876%)
 molecular gradient             ...        0 min,  0.001 sec (  0.433%)
 printout                       ...        0 min,  0.000 sec (  0.050%)

         :::::::::::::::::::::::::::::::::::::::::::::::::::::
         ::                     SUMMARY                     ::
         :::::::::::::::::::::::::::::::::::::::::::::::::::::
         :: total energy              -3.560524530708 Eh    ::
         :: gradient norm             19.848077615471 Eh/a0 ::
         :: HOMO-LUMO gap              0.207529256324 eV    ::
         ::.................................................::
         :: SCC energy               -12.936693976156 Eh    ::
         :: -> isotropic ES            0.452673890756 Eh    ::
         :: -> anisotropic ES         -0.011705115166 Eh    ::
         :: -> anisotropic XC          0.012191657740 Eh    ::
         :: -> dispersion             -0.001173274981 Eh    ::
         :: repulsion energy           0.059758061889 Eh    ::
         :: add. restraining           9.316545515273 Eh    ::
         :::::::::::::::::::::::::::::::::::::::::::::::::::::

      ----------------------------------------------------------- 
     |                   =====================                   |
     |                        A N C O P T                        |
     |                   =====================                   |
     |               Approximate Normal Coordinate               |
     |                Rational Function Optimizer                |
      ----------------------------------------------------------- 

          ...................................................
          :                      SETUP                      :
          :.................................................:
          :   optimization level            normal          :
          :   max. optcycles                   200          :
          :   ANC micro-cycles                  20          :
          :   degrees of freedom                12          :
          :.................................................:
          :   RF solver                   davidson          :
          :   write xtbopt.log                true          :
          :   linear?                        false          :
          :   energy convergence         0.5000000E-05 Eh   :
          :   grad. convergence          0.1000000E-02 Eh/α :
          :   maximium RF displ.         1.0000000          :
          :   Hlow (freq-cutoff)         0.1000000E-01      :
          :   Hmax (freq-cutoff)         5.0000000          :
          :   S6 in model hess.         20.0000000          :
          ...................................................

generating ANC from model Hessian ...
Using Lindh-Hessian (1995)
 Shifting diagonal of input Hessian by   9.826793434641686E-003
 Lowest  eigenvalues of input Hessian
   -0.000000   -0.000000   -0.000000    0.000000    0.000000    0.000000
    0.010000    0.097982    0.097988    0.161948    0.161956    0.447622
    0.647382    0.647402    6.008320    6.008327   20.010446   60.010173
 Highest eigenvalues
    0.647382    0.647402    6.008320    6.008327   20.010446   60.010173
 

........................................................................
.............................. CYCLE    1 ..............................
........................................................................
   1    -13.0180555 -0.130181E+02  0.351E+00    0.12       0.0  T
   2    -12.1572027  0.860853E+00  0.111E+01    0.00       1.0  T
   3    -12.6044751 -0.447272E+00  0.848E+00    0.00       1.0  T
   4    -12.2389730  0.365502E+00  0.956E+00    0.00       1.0  T
   5    -12.7102432 -0.471270E+00  0.758E+00    0.01       1.0  T
   6    -13.1031376 -0.392894E+00  0.132E+00    0.07       1.0  T
   7    -12.8207720  0.282366E+00  0.719E+00    0.01       1.0  T
   8    -12.8674012 -0.466292E-01  0.563E+00    0.01       1.0  T
   9    -12.6341840  0.233217E+00  0.836E+00    0.01       1.0  T
  10    -12.9536477 -0.319464E+00  0.390E+00    0.03       1.0  T
  11    -13.0764923 -0.122845E+00  0.193E+00    0.05       1.0  T
  12    -13.0763213  0.171007E-03  0.193E+00    0.05       1.0  T
  13    -12.4820224  0.594299E+00  0.821E+00    0.00       1.0  T
  14    -12.4309781  0.510443E-01  0.886E+00    0.01       1.0  T
  15    -12.9676259 -0.536648E+00  0.477E+00    0.17       1.0  T
  16    -12.3015549  0.666071E+00  0.911E+00    0.00       1.0  T
  17    -13.0470469 -0.745492E+00  0.355E+00    0.11       1.0  T
  18    -12.2390331  0.808014E+00  0.948E+00    0.01       1.0  T
  19    -13.0675338 -0.828501E+00  0.238E+00    0.05       1.0  T
  20    -12.2635480  0.803986E+00  0.932E+00    0.00       1.0  T
  21    -13.0209153 -0.757367E+00  0.305E+00    0.04       1.0  T
  22    -12.3399757  0.680940E+00  0.885E+00    0.00       1.0  T
  23    -13.0360760 -0.696100E+00  0.287E+00    0.04       1.0  T
  24    -12.4186399  0.617436E+00  0.836E+00    0.00       1.0  T
  25    -13.0585472 -0.639907E+00  0.261E+00    0.05       1.0  T
  26    -12.5177766  0.540771E+00  0.770E+00    0.00       1.0  T
  27    -13.0740481 -0.556272E+00  0.249E+00    0.06       1.0  T
  28    -12.6444652  0.429583E+00  0.679E+00    0.00       1.0  T
  29    -13.0801493 -0.435684E+00  0.253E+00    0.07       1.0  T
  30    -12.7896128  0.290537E+00  0.560E+00    0.01       1.0  T
  31    -13.0811990 -0.291586E+00  0.259E+00    0.07       1.0  T
  32    -12.9229524  0.158247E+00  0.429E+00    0.02       1.0  T
  33    -13.0806970 -0.157745E+00  0.257E+00    0.07       1.0  T
  34    -13.0113734  0.693235E-01  0.324E+00    0.04       1.0  T
  35    -13.0778063 -0.664329E-01  0.253E+00    0.06       1.0  T
  36    -13.0518041  0.260022E-01  0.273E+00    0.05       1.0  T
  37    -13.0715690 -0.197649E-01  0.255E+00    0.06       1.0  T
  38    -13.0668919  0.467714E-02  0.259E+00    0.05       1.0  T
  39    -13.0671502 -0.258355E-03  0.259E+00    0.05       1.0  T
  40    -13.0569150  0.102352E-01  0.341E+00    0.10       1.0  T
  41    -13.0638007 -0.688570E-02  0.324E+00    0.09       1.0  T
  42    -13.0576720  0.612876E-02  0.339E+00    0.10       1.0  T
  43    -13.0576482  0.237228E-04  0.339E+00    0.10       1.0  T
  44    -13.0666882 -0.903997E-02  0.318E+00    0.09       1.0  T
  45    -13.0708057 -0.411747E-02  0.307E+00    0.09       1.0  T
  46    -13.0710342 -0.228489E-03  0.308E+00    0.09       1.0  T
  47    -13.0710125  0.217232E-04  0.293E+00    0.09       1.0  T
  48    -12.4488953  0.622117E+00  0.999E+00    0.00       1.0  T
  49    -12.9829791 -0.534084E+00  0.396E+00    0.03       1.0  T
  50    -12.9159870  0.669921E-01  0.562E+00    0.20       1.0  T
  51    -12.4636694  0.452318E+00  0.980E+00    0.00       1.0  T
  52    -12.9486728 -0.485003E+00  0.574E+00    0.15       1.0  T
  53    -13.0531738 -0.104501E+00  0.380E+00    0.08       1.0  T
  54    -13.0046846  0.484891E-01  0.447E+00    0.13       1.0  T
  55    -13.0868718 -0.821872E-01  0.226E+00    0.08       1.0  T
  56    -12.4723284  0.614543E+00  0.971E+00    0.00       1.0  T
  57    -13.0734901 -0.601162E+00  0.315E+00    0.06       1.0  T
  58    -13.0120319  0.614582E-01  0.444E+00    0.12       1.0  T
  59    -13.0826742 -0.706423E-01  0.236E+00    0.07       1.0  T
  60    -13.0953464 -0.126721E-01  0.164E+00    0.07       1.0  T
  61    -12.9021492  0.193197E+00  0.571E+00    0.26       1.0  T
  62    -12.4434885  0.458661E+00  0.102E+01    0.00       1.0  T
  63    -12.2695374  0.173951E+00  0.926E+00    0.02       1.0  T
  64    -12.4520614 -0.182524E+00  0.994E+00    0.00       1.0  T
  65    -12.3226114  0.129450E+00  0.892E+00    0.01       1.0  T
  66    -13.0508344 -0.728223E+00  0.355E+00    0.10       1.0  T
  67    -13.0476805  0.315391E-02  0.361E+00    0.10       1.0  T
  68    -12.9823432  0.653373E-01  0.466E+00    0.15       1.0  T
  69    -12.9788378  0.350539E-02  0.411E+00    0.05       1.0  T
  70    -12.8965019  0.823359E-01  0.589E+00    0.23       1.0  T
  71    -13.0963273 -0.199825E+00  0.191E+00    0.09       1.0  T
  72    -12.4907852  0.605542E+00  0.956E+00    0.00       1.0  T
  73    -13.0614831 -0.570698E+00  0.298E+00    0.04       1.0  T
  74    -13.0108342  0.506489E-01  0.446E+00    0.11       1.0  T
  75    -13.0477518 -0.369176E-01  0.363E+00    0.10       1.0  T
  76    -13.0778757 -0.301239E-01  0.264E+00    0.09       1.0  T
  77    -12.4891825  0.588693E+00  0.956E+00    0.00       1.0  T
  78    -12.6506474 -0.161465E+00  0.677E+00    0.01       1.0  T
  79    -13.0124878 -0.361840E+00  0.428E+00    0.12       1.0  T
  80    -13.0103503  0.213742E-02  0.419E+00    0.13       1.0  T
  81    -12.8142780  0.196072E+00  0.644E+00    0.02       1.0  T
  82    -12.9693526 -0.155075E+00  0.515E+00    0.15       1.0  T
  83    -13.0306789 -0.613263E-01  0.399E+00    0.11       1.0  T
  84    -13.0871262 -0.564473E-01  0.225E+00    0.08       1.0  T
  85    -12.4621848  0.624941E+00  0.981E+00    0.00       1.0  T
  86    -12.5369728 -0.747880E-01  0.758E+00    0.01       1.0  T
  87    -13.0754123 -0.538440E+00  0.302E+00    0.07       1.0  T
  88    -12.9803676  0.950447E-01  0.475E+00    0.14       1.0  T
  89    -13.0887917 -0.108424E+00  0.176E+00    0.10       1.0  T
  90    -12.9619650  0.126827E+00  0.475E+00    0.18       1.0  T
  91    -12.6453073  0.316658E+00  0.819E+00    0.01       1.0  T
  92    -13.0786075 -0.433300E+00  0.303E+00    0.07       1.0  T
  93    -13.0481265  0.304811E-01  0.370E+00    0.10       1.0  T
  94    -13.0841744 -0.360479E-01  0.221E+00    0.07       1.0  T
  95    -12.5062937  0.577881E+00  0.942E+00    0.00       1.0  T
  96    -12.4544019  0.518918E-01  0.812E+00    0.01       1.0  T
  97    -13.0185961 -0.564194E+00  0.420E+00    0.12       1.0  T
  98    -13.0102048  0.839138E-02  0.420E+00    0.13       1.0  T
  99    -12.8610675  0.149137E+00  0.587E+00    0.03       1.0  T
 100    -12.9755669 -0.114499E+00  0.508E+00    0.14       1.0  T
 101    -13.0402931 -0.647262E-01  0.378E+00    0.11       1.0  T
 102    -13.0906218 -0.503287E-01  0.184E+00    0.07       1.0  T
 103    -12.4508687  0.639753E+00  0.996E+00    0.00       1.0  T
 104    -12.6509675 -0.200099E+00  0.678E+00    0.02       1.0  T
 105    -13.0753197 -0.424352E+00  0.269E+00    0.05       1.0  T
 106    -12.9895620  0.857576E-01  0.466E+00    0.13       1.0  T
 107    -13.0902440 -0.100682E+00  0.161E+00    0.08       1.0  T
 108    -12.9601660  0.130078E+00  0.499E+00    0.16       1.0  T
 109    -12.7472698  0.212896E+00  0.724E+00    0.02       1.0  T
 110    -13.0788035 -0.331534E+00  0.269E+00    0.07       1.0  T
 111    -13.0244576  0.543459E-01  0.407E+00    0.12       1.0  T
 112    -13.0915613 -0.671037E-01  0.195E+00    0.07       1.0  T
 113    -12.4545827  0.636979E+00  0.990E+00    0.00       1.0  T
 114    -12.6977355 -0.243153E+00  0.641E+00    0.02       1.0  T
 115    -13.0774457 -0.379710E+00  0.295E+00    0.07       1.0  T
 116    -13.0147981  0.626476E-01  0.418E+00    0.12       1.0  T
 117    -13.0680974 -0.532993E-01  0.235E+00    0.06       1.0  T
 118    -12.9787780  0.893194E-01  0.479E+00    0.15       1.0  T
 119    -13.1054113 -0.126633E+00  0.137E+00    0.08       1.0  T
 120    -12.4592613  0.646150E+00  0.985E+00    0.00       1.0  T
 121    -12.9194347 -0.460173E+00  0.443E+00    0.02       1.0  T
 122    -13.0632080 -0.143773E+00  0.338E+00    0.09       1.0  T
 123    -13.0557615  0.744658E-02  0.335E+00    0.10       1.0  T
 124    -12.8264381  0.229323E+00  0.639E+00    0.02       1.0  T
 125    -13.0744968 -0.248059E+00  0.257E+00    0.06       1.0  T
 126    -13.0208176  0.536792E-01  0.407E+00    0.12       1.0  T
 127    -13.0976742 -0.768566E-01  0.178E+00    0.10       1.0  T
 128    -12.5911278  0.506546E+00  0.868E+00    0.01       1.0  T
 129    -13.0788531 -0.487725E+00  0.294E+00    0.06       1.0  T
 130    -13.0223540  0.564991E-01  0.424E+00    0.11       1.0  T
 131    -13.0832943 -0.609403E-01  0.243E+00    0.08       1.0  T
 132    -12.7991775  0.284117E+00  0.673E+00    0.02       1.0  T
 133    -13.0590583 -0.259881E+00  0.273E+00    0.05       1.0  T
 134    -13.0335752  0.254831E-01  0.388E+00    0.11       1.0  T
 135    -13.0868424 -0.532673E-01  0.227E+00    0.08       1.0  T
 136    -12.4656463  0.621196E+00  0.978E+00    0.00       1.0  T
 137    -12.7996912 -0.334045E+00  0.557E+00    0.01       1.0  T
 138    -13.0570974 -0.257406E+00  0.357E+00    0.09       1.0  T
 139    -13.0340342  0.230632E-01  0.383E+00    0.11       1.0  T
 140    -13.1103738 -0.763396E-01  0.999E-01    0.09       1.0  T
 141    -12.8440509  0.266323E+00  0.607E+00    0.03       1.0  T
 142    -13.0026760 -0.158625E+00  0.467E+00    0.12       1.0  T
 143    -13.0751191 -0.724431E-01  0.290E+00    0.09       1.0  T
 144    -13.0841929 -0.907380E-02  0.194E+00    0.06       1.0  T
 145    -12.4502422  0.633951E+00  0.997E+00    0.00       1.0  T
 146    -12.8892778 -0.439036E+00  0.474E+00    0.02       1.0  T
 147    -13.0779969 -0.188719E+00  0.293E+00    0.07       1.0  T
 148    -13.0622667  0.157302E-01  0.320E+00    0.09       1.0  T
 149    -13.0073111  0.549557E-01  0.385E+00    0.04       1.0  T
 150    -13.0641996 -0.568885E-01  0.325E+00    0.10       1.0  T
 151    -13.0831634 -0.189638E-01  0.244E+00    0.09       1.0  T
 152    -12.4740967  0.609067E+00  0.969E+00    0.00       1.0  T
 153    -12.7260171 -0.251920E+00  0.618E+00    0.02       1.0  T
 154    -13.0226785 -0.296661E+00  0.420E+00    0.11       1.0  T
 155    -13.0291539 -0.647537E-02  0.387E+00    0.12       1.0  T
 156    -13.0318192 -0.266526E-02  0.315E+00    0.05       1.0  T
 157    -12.9999605  0.318587E-01  0.455E+00    0.13       1.0  T
 158    -13.0857189 -0.857584E-01  0.212E+00    0.07       1.0  T
 159    -12.4535960  0.632123E+00  0.991E+00    0.00       1.0  T
 160    -12.7511311 -0.297535E+00  0.598E+00    0.01       1.0  T
 161    -13.0510654 -0.299934E+00  0.369E+00    0.10       1.0  T
 162    -13.0415148  0.955058E-02  0.365E+00    0.11       1.0  T
 163    -12.9727508  0.687640E-01  0.437E+00    0.04       1.0  T
 164    -13.0656747 -0.929239E-01  0.326E+00    0.09       1.0  T
 165    -13.0789349 -0.132602E-01  0.261E+00    0.09       1.0  T
 166    -12.4747342  0.604201E+00  0.969E+00    0.00       1.0  T
 167    -12.6800334 -0.205299E+00  0.655E+00    0.01       1.0  T
 168    -12.9964327 -0.316399E+00  0.471E+00    0.12       1.0  T
 169    -13.0013777 -0.494496E-02  0.438E+00    0.14       1.0  T
 170    -13.0925877 -0.912101E-01  0.198E+00    0.10       1.0  T
 171    -12.5609195  0.531668E+00  0.895E+00    0.00       1.0  T
 172    -13.0383890 -0.477469E+00  0.307E+00    0.04       1.0  T
 173    -13.0000396  0.383494E-01  0.458E+00    0.13       1.0  T
 174    -13.0769837 -0.769441E-01  0.271E+00    0.09       1.0  T
 175    -12.5150783  0.561905E+00  0.935E+00    0.00       1.0  T
 176    -12.6369731 -0.121895E+00  0.687E+00    0.01       1.0  T
 177    -12.9571131 -0.320140E+00  0.526E+00    0.15       1.0  T
 178    -12.9995335 -0.424205E-01  0.441E+00    0.14       1.0  T
 179    -13.0817439 -0.822104E-01  0.236E+00    0.11       1.0  T
 180    -12.6582640  0.423480E+00  0.807E+00    0.01       1.0  T
 181    -13.0738009 -0.415537E+00  0.321E+00    0.08       1.0  T
 182    -13.0495973  0.242036E-01  0.361E+00    0.10       1.0  T
 183    -13.0831263 -0.335290E-01  0.206E+00    0.07       1.0  T
 184    -12.4503532  0.632773E+00  0.996E+00    0.00       1.0  T
 185    -13.0204914 -0.570138E+00  0.333E+00    0.04       1.0  T
 186    -13.0458593 -0.253679E-01  0.388E+00    0.10       1.0  T
 187    -13.0750764 -0.292172E-01  0.287E+00    0.09       1.0  T
 188    -13.1149750 -0.398985E-01  0.681E-01    0.07       1.0  T
 189    -12.5931463  0.521829E+00  0.869E+00    0.01       1.0  T
 190    -12.8644357 -0.271289E+00  0.496E+00    0.01       1.0  T
 191    -12.9481497 -0.837140E-01  0.534E+00    0.16       1.0  T
 192    -13.0214104 -0.732607E-01  0.405E+00    0.12       1.0  T
 193    -13.0914890 -0.700785E-01  0.187E+00    0.11       1.0  T
 194    -13.0591454  0.323436E-01  0.266E+00    0.11       1.0  T
 195    -12.9898586  0.692868E-01  0.453E+00    0.14       1.0  T
 196    -12.6841001  0.305758E+00  0.790E+00    0.01       1.0  T
 197    -12.9979353 -0.313835E+00  0.347E+00    0.03       1.0  T
 198    -13.0808085 -0.828731E-01  0.260E+00    0.08       1.0  T
 199    -12.7086762  0.372132E+00  0.768E+00    0.01       1.0  T
 200    -12.9699083 -0.261232E+00  0.383E+00    0.03       1.0  T
 201    -13.0202657 -0.503574E-01  0.419E+00    0.12       1.0  T
 202    -13.0800060 -0.597403E-01  0.258E+00    0.09       1.0  T
 203    -12.4886893  0.591317E+00  0.957E+00    0.00       1.0  T
 204    -12.9403800 -0.451691E+00  0.420E+00    0.02       1.0  T
 205    -12.9958116 -0.554316E-01  0.473E+00    0.13       1.0  T
 206    -13.0562765 -0.604649E-01  0.337E+00    0.10       1.0  T
 207    -13.1071772 -0.509007E-01  0.129E+00    0.08       1.0  T
 208    -12.4706086  0.636569E+00  0.973E+00    0.00       1.0  T
 209    -13.0276311 -0.557022E+00  0.321E+00    0.04       1.0  T
 210    -13.0144160  0.132151E-01  0.441E+00    0.12       1.0  T
 211    -13.0749357 -0.605196E-01  0.284E+00    0.09       1.0  T
 212    -13.1043083 -0.293726E-01  0.134E+00    0.07       1.0  T
 213    -13.0686407  0.356676E-01  0.296E+00    0.10       1.0  T
 214    -12.5384594  0.530181E+00  0.915E+00    0.00       1.0  T
 215    -12.9343051 -0.395846E+00  0.425E+00    0.02       1.0  T
 216    -12.9998859 -0.655808E-01  0.461E+00    0.13       1.0  T
 217    -13.0664521 -0.665662E-01  0.307E+00    0.10       1.0  T
 218    -12.9947251  0.717270E-01  0.404E+00    0.04       1.0  T
 219    -13.0535687 -0.588436E-01  0.356E+00    0.10       1.0  T
 220    -13.0841134 -0.305447E-01  0.210E+00    0.07       1.0  T
 221    -12.4548419  0.629272E+00  0.990E+00    0.00       1.0  T
 222    -13.0290892 -0.574247E+00  0.320E+00    0.04       1.0  T
 223    -13.0445198 -0.154307E-01  0.388E+00    0.10       1.0  T
 224    -13.0789511 -0.344313E-01  0.271E+00    0.08       1.0  T
 225    -13.1084150 -0.294639E-01  0.101E+00    0.07       1.0  T
 226    -12.4613611  0.647054E+00  0.982E+00    0.00       1.0  T
 227    -12.9592891 -0.497928E+00  0.399E+00    0.02       1.0  T
 228    -12.9921772 -0.328881E-01  0.478E+00    0.13       1.0  T
 229    -13.0541535 -0.619763E-01  0.343E+00    0.10       1.0  T
 230    -13.0975401 -0.433866E-01  0.179E+00    0.08       1.0  T
 231    -12.4600498  0.637490E+00  0.983E+00    0.00       1.0  T
 232    -13.0251765 -0.565127E+00  0.321E+00    0.04       1.0  T
 233    -13.0161424  0.903411E-02  0.436E+00    0.12       1.0  T
 234    -13.0748880 -0.587455E-01  0.283E+00    0.09       1.0  T
 235    -13.0788642 -0.397623E-02  0.226E+00    0.06       1.0  T
 236    -13.0757183  0.314591E-02  0.281E+00    0.09       1.0  T
 237    -12.8643025  0.211416E+00  0.596E+00    0.03       1.0  T
 238    -13.0798724 -0.215570E+00  0.260E+00    0.06       1.0  T
 239    -13.0654822  0.143903E-01  0.310E+00    0.10       1.0  T
 240    -13.1031465 -0.376643E-01  0.122E+00    0.07       1.0  T
 241    -13.0448502  0.582963E-01  0.356E+00    0.11       1.0  T
 242    -12.8973645  0.147486E+00  0.554E+00    0.03       1.0  T
 243    -13.0710208 -0.173656E+00  0.315E+00    0.09       1.0  T
 244    -13.0724279 -0.140706E-02  0.223E+00    0.06       1.0  T
 245    -12.4595132  0.612915E+00  0.984E+00    0.00       1.0  T
 246    -12.9465879 -0.487075E+00  0.413E+00    0.02       1.0  T
 247    -13.0263253 -0.797374E-01  0.425E+00    0.11       1.0  T
 248    -13.0674051 -0.410797E-01  0.311E+00    0.09       1.0  T
 249    -13.0913427 -0.239376E-01  0.185E+00    0.07       1.0  T
 250    -12.4529799  0.638363E+00  0.992E+00    0.00       1.0  T
     SCC iter.                  ...        0 min,  0.112 sec
     gradient                   ...        0 min,  0.000 sec
 * total energy  :    -3.0762822 Eh     change        0.4842423E+00 Eh
   gradient norm :    19.8460225 Eh/α   predicted     0.0000000E+00 (-100.00%)
   displ. norm   :     0.8819333 α      lambda       -0.1750287E+02
   maximum displ.:     0.8455132 α      in ANC's #12, #9, #10, ...

........................................................................
.............................. CYCLE    2 ..............................
........................................................................
   1    -12.8705345 -0.128705E+02  0.102E+01    0.41       0.0  T
   2    -12.0679227  0.802612E+00  0.110E+01    0.00       1.0  T
   3    -12.5887700 -0.520847E+00  0.924E+00    0.04       1.0  T
   4    -12.8524965 -0.263727E+00  0.795E+00    1.43       1.0  T
   5    -12.9519470 -0.994505E-01  0.545E+00    0.09       1.0  T
   6    -12.8467591  0.105188E+00  0.673E+00    0.06       1.0  T
   7    -12.2091828  0.637576E+00  0.973E+00    0.00       1.0  T
   8    -12.2130961 -0.391330E-02  0.966E+00    0.00       1.0  T
   9    -12.2118781  0.121799E-02  0.967E+00    0.00       1.0  T
  10    -12.2115616  0.316557E-03  0.967E+00    0.00       1.0  T
  11    -12.2152676 -0.370603E-02  0.966E+00    0.00       1.0  T
  12    -12.2154170 -0.149367E-03  0.965E+00    0.00       1.0  T
  13    -12.2034766  0.119404E-01  0.985E+00    0.00       1.0  T
  14    -12.2185544 -0.150778E-01  0.956E+00    0.00       1.0  T
  15    -12.8296670 -0.611113E+00  0.826E+00    1.02       1.0  T
  16    -12.4472395  0.382428E+00  0.114E+01    0.00       1.0  T
  17    -12.4179657  0.292737E-01  0.123E+01    0.00       1.0  T
  18    -12.3917602  0.262055E-01  0.136E+01    0.00       1.0  T
  19    -12.3944916 -0.273146E-02  0.134E+01    0.00       1.0  T
  20    -12.4363451 -0.418535E-01  0.121E+01    0.00       1.0  T
  21    -12.8520015 -0.415656E+00  0.722E+00    2.12       1.0  T
  22    -12.4193124  0.432689E+00  0.125E+01    0.00       1.0  T
  23    -12.8733979 -0.454086E+00  0.658E+00    1.26       1.0  T
  24    -12.4349208  0.438477E+00  0.118E+01    0.00       1.0  T
  25    -12.8604888 -0.425568E+00  0.693E+00    1.32       1.0  T
  26    -12.4871465  0.373342E+00  0.105E+01    0.02       1.0  T
  27    -12.8128703 -0.325724E+00  0.846E+00    1.21       1.0  T
  28    -12.8221201 -0.924982E-02  0.810E+00    1.86       1.0  T
  29    -12.4882912  0.333829E+00  0.107E+01    0.02       1.0  T
  30    -12.7766187 -0.288328E+00  0.953E+00    1.32       1.0  T
  31    -12.8855247 -0.108906E+00  0.626E+00    0.87       1.0  T
  32    -12.8863667 -0.841978E-03  0.616E+00    0.74       1.0  T
  33    -12.9333798 -0.470130E-01  0.544E+00    0.21       1.0  T
  34    -12.4260118  0.507368E+00  0.826E+00    0.00       1.0  T
  35    -12.8623756 -0.436364E+00  0.683E+00    1.65       1.0  T
  36    -12.9286034 -0.662278E-01  0.526E+00    0.50       1.0  T
  37    -12.8886200  0.399833E-01  0.615E+00    0.39       1.0  T
  38    -12.4759735  0.412646E+00  0.873E+00    0.00       1.0  T
  39    -12.8729582 -0.396985E+00  0.653E+00    1.00       1.0  T
  40    -12.8235284  0.494298E-01  0.762E+00    0.07       1.0  T
  41    -12.7733535  0.501748E-01  0.986E+00    0.82       1.0  T
  42    -12.8630514 -0.896979E-01  0.686E+00    1.16       1.0  T
  43    -13.0008342 -0.137783E+00  0.335E+00    0.04       1.0  T
  44    -12.9053137  0.955205E-01  0.576E+00    0.69       1.0  T
  45    -12.2655161  0.639798E+00  0.932E+00    0.00       1.0  T
  46    -12.8053664 -0.539850E+00  0.775E+00    0.07       1.0  T
  47    -12.7789003  0.264661E-01  0.961E+00    1.25       1.0  T
  48    -12.8845637 -0.105663E+00  0.627E+00    0.95       1.0  T
  49    -13.0635266 -0.178963E+00  0.426E+00    0.10       1.0  T
  50    -12.8209831  0.242543E+00  0.837E+00    0.73       1.0  T
  51    -12.9167445 -0.957614E-01  0.553E+00    0.36       1.0  T
  52    -12.2142501  0.702494E+00  0.963E+00    0.00       1.0  T
  53    -12.9942934 -0.780043E+00  0.404E+00    0.27       1.0  T
  54    -12.8774222  0.116871E+00  0.652E+00    0.48       1.0  T
  55    -12.5240462  0.353376E+00  0.848E+00    0.00       1.0  T
  56    -12.8956828 -0.371637E+00  0.601E+00    0.51       1.0  T
  57    -12.5292808  0.366402E+00  0.964E+00    0.01       1.0  T
  58    -13.0365954 -0.507315E+00  0.516E+00    0.10       1.0  T
  59    -13.0556141 -0.190188E-01  0.356E+00    0.14       1.0  T
  60    -12.8583416  0.197273E+00  0.744E+00    0.29       1.0  T
  61    -12.2348826  0.623459E+00  0.947E+00    0.00       1.0  T
  62    -12.9868485 -0.751966E+00  0.418E+00    0.29       1.0  T
  63    -12.9257004  0.611481E-01  0.564E+00    0.22       1.0  T
  64    -12.3798682  0.545832E+00  0.913E+00    0.00       1.0  T
  65    -13.0518018 -0.671934E+00  0.313E+00    0.15       1.0  T
  66    -12.8619104  0.189891E+00  0.708E+00    0.45       1.0  T
  67    -12.9377646 -0.758542E-01  0.617E+00    0.07       1.0  T
  68    -12.8732901  0.644745E-01  0.740E+00    0.23       1.0  T
  69    -13.0688215 -0.195531E+00  0.249E+00    0.06       1.0  T
  70    -12.9052580  0.163563E+00  0.604E+00    0.25       1.0  T
  71    -12.2347322  0.670526E+00  0.967E+00    0.00       1.0  T
  72    -12.5279216 -0.293189E+00  0.964E+00    0.01       1.0  T
  73    -12.8538961 -0.325974E+00  0.736E+00    0.48       1.0  T
  74    -12.6704251  0.183471E+00  0.856E+00    0.04       1.0  T
  75    -12.9852078 -0.314783E+00  0.620E+00    0.13       1.0  T
  76    -13.0231129 -0.379051E-01  0.381E+00    0.15       1.0  T
  77    -12.2146726  0.808440E+00  0.959E+00    0.00       1.0  T
  78    -12.9983195 -0.783647E+00  0.394E+00    0.27       1.0  T
  79    -12.9750862  0.232333E-01  0.492E+00    0.17       1.0  T
  80    -12.7091985  0.265888E+00  0.783E+00    0.00       1.0  T
  81    -12.9375459 -0.228347E+00  0.562E+00    0.19       1.0  T
  82    -12.5639065  0.373639E+00  0.941E+00    0.01       1.0  T
  83    -13.0722124 -0.508306E+00  0.391E+00    0.08       1.0  T
  84    -13.0781050 -0.589256E-02  0.246E+00    0.12       1.0  T
  85    -12.7711102  0.306995E+00  0.582E+00    0.01       1.0  T
  86    -12.9475910 -0.176481E+00  0.497E+00    0.40       1.0  T
  87    -13.0319172 -0.843261E-01  0.479E+00    0.07       1.0  T
  88    -12.8940544  0.137863E+00  0.674E+00    0.22       1.0  T
  89    -13.0364581 -0.142404E+00  0.327E+00    0.05       1.0  T
  90    -12.8931527  0.143305E+00  0.619E+00    0.32       1.0  T
  91    -12.5037962  0.389357E+00  0.851E+00    0.00       1.0  T
  92    -12.9470215 -0.443225E+00  0.498E+00    0.31       1.0  T
  93    -13.0377703 -0.907489E-01  0.433E+00    0.10       1.0  T
  94    -12.8781476  0.159623E+00  0.694E+00    0.26       1.0  T
  95    -12.9763835 -0.982359E-01  0.395E+00    0.04       1.0  T
  96    -12.9085144  0.678691E-01  0.581E+00    0.32       1.0  T
  97    -12.6712642  0.237250E+00  0.781E+00    0.00       1.0  T
  98    -12.9390940 -0.267830E+00  0.536E+00    0.22       1.0  T
  99    -12.6292875  0.309807E+00  0.883E+00    0.02       1.0  T
 100    -12.9405168 -0.311229E+00  0.617E+00    0.17       1.0  T
 101    -12.9554006 -0.148837E-01  0.571E+00    0.05       1.0  T
 102    -13.0035077 -0.481071E-01  0.509E+00    0.13       1.0  T
 103    -12.8663592  0.137148E+00  0.533E+00    0.02       1.0  T
 104    -12.9097101 -0.433509E-01  0.576E+00    0.37       1.0  T
 105    -12.9019636  0.774658E-02  0.656E+00    0.04       1.0  T
 106    -12.9374500 -0.354864E-01  0.596E+00    0.18       1.0  T
 107    -12.9666028 -0.291528E-01  0.497E+00    0.04       1.0  T
 108    -12.8938550  0.727478E-01  0.629E+00    0.28       1.0  T
 109    -12.7101469  0.183708E+00  0.704E+00    0.01       1.0  T
 110    -12.9146535 -0.204507E+00  0.566E+00    0.35       1.0  T
 111    -12.9362908 -0.216373E-01  0.587E+00    0.07       1.0  T
 112    -12.8836172  0.526736E-01  0.685E+00    0.25       1.0  T
 113    -13.0934999 -0.209883E+00  0.162E+00    0.07       1.0  T
 114    -12.9393032  0.154197E+00  0.534E+00    0.23       1.0  T
 115    -12.3284255  0.610878E+00  0.910E+00    0.00       1.0  T
 116    -12.5761001 -0.247675E+00  0.919E+00    0.02       1.0  T
 117    -12.8652346 -0.289135E+00  0.700E+00    0.54       1.0  T
 118    -12.9625395 -0.973048E-01  0.522E+00    0.09       1.0  T
 119    -12.8982138  0.643257E-01  0.669E+00    0.22       1.0  T
 120    -12.8178507  0.803630E-01  0.546E+00    0.02       1.0  T
 121    -12.9993321 -0.181481E+00  0.390E+00    0.26       1.0  T
 122    -13.0377512 -0.384191E-01  0.387E+00    0.13       1.0  T
 123    -12.5564550  0.481296E+00  0.801E+00    0.00       1.0  T
 124    -12.9867928 -0.430338E+00  0.426E+00    0.23       1.0  T
 125    -13.0997840 -0.112991E+00  0.172E+00    0.10       1.0  T
 126    -13.0727539  0.270301E-01  0.264E+00    0.13       1.0  T
 127    -13.0601395  0.126144E-01  0.233E+00    0.05       1.0  T
 128    -13.0216873  0.384521E-01  0.365E+00    0.18       1.0  T
 129    -12.8997956  0.121892E+00  0.456E+00    0.02       1.0  T
 130    -13.0447651 -0.144970E+00  0.327E+00    0.13       1.0  T
 131    -12.9009304  0.143835E+00  0.638E+00    0.24       1.0  T
 132    -12.3938947  0.507036E+00  0.875E+00    0.00       1.0  T
 133    -13.0151934 -0.621299E+00  0.399E+00    0.11       1.0  T
 134    -12.8758511  0.139342E+00  0.677E+00    0.35       1.0  T
 135    -13.0188563 -0.143005E+00  0.372E+00    0.05       1.0  T
 136    -12.9349158  0.839405E-01  0.560E+00    0.21       1.0  T
 137    -12.8134119  0.121504E+00  0.694E+00    0.01       1.0  T
 138    -12.9688578 -0.155446E+00  0.512E+00    0.17       1.0  T
 139    -12.6674044  0.301453E+00  0.847E+00    0.02       1.0  T
 140    -12.9158474 -0.248443E+00  0.621E+00    0.21       1.0  T
 141    -12.7926254  0.123222E+00  0.773E+00    0.03       1.0  T
 142    -13.0290701 -0.236445E+00  0.321E+00    0.04       1.0  T
 143    -13.0342816 -0.521145E-02  0.333E+00    0.18       1.0  T
 144    -13.0984821 -0.642005E-01  0.140E+00    0.07       1.0  T
 145    -13.0880054  0.104767E-01  0.207E+00    0.14       1.0  T
 146    -13.0809698  0.703559E-02  0.293E+00    0.09       1.0  T
 147    -12.9251542  0.155816E+00  0.571E+00    0.03       1.0  T
 148    -13.0844124 -0.159258E+00  0.291E+00    0.08       1.0  T
 149    -13.1121336 -0.277211E-01  0.131E+00    0.11       1.0  T
 150    -12.9764256  0.135708E+00  0.501E+00    0.17       1.0  T
 151    -12.7077536  0.268672E+00  0.722E+00    0.01       1.0  T
 152    -12.9811641 -0.273410E+00  0.469E+00    0.18       1.0  T
 153    -12.9371911  0.439730E-01  0.571E+00    0.07       1.0  T
 154    -12.9659414 -0.287504E-01  0.560E+00    0.16       1.0  T
 155    -12.8343558  0.131586E+00  0.570E+00    0.02       1.0  T
 156    -12.9421574 -0.107802E+00  0.522E+00    0.25       1.0  T
 157    -13.0187106 -0.765532E-01  0.469E+00    0.07       1.0  T
 158    -13.0328613 -0.141507E-01  0.439E+00    0.12       1.0  T
 159    -13.0024822  0.303791E-01  0.373E+00    0.04       1.0  T
 160    -12.9382854  0.641968E-01  0.534E+00    0.24       1.0  T
 161    -12.9832849 -0.449994E-01  0.506E+00    0.05       1.0  T
 162    -13.0262023 -0.429175E-01  0.438E+00    0.13       1.0  T
 163    -13.0381900 -0.119877E-01  0.383E+00    0.06       1.0  T
 164    -12.9638996  0.742904E-01  0.525E+00    0.17       1.0  T
 165    -12.9015446  0.623551E-01  0.559E+00    0.03       1.0  T
 166    -12.9563236 -0.547790E-01  0.523E+00    0.19       1.0  T
 167    -13.0030428 -0.467192E-01  0.493E+00    0.07       1.0  T
 168    -12.9778882  0.251546E-01  0.525E+00    0.15       1.0  T
 169    -12.9269535  0.509347E-01  0.506E+00    0.03       1.0  T
 170    -12.9514499 -0.244965E-01  0.522E+00    0.21       1.0  T
 171    -13.0267565 -0.753065E-01  0.445E+00    0.07       1.0  T
 172    -13.0044920  0.222645E-01  0.480E+00    0.14       1.0  T
 173    -12.9640801  0.404119E-01  0.460E+00    0.04       1.0  T
 174    -12.9577971  0.628297E-02  0.514E+00    0.20       1.0  T
 175    -13.0309786 -0.731815E-01  0.427E+00    0.06       1.0  T
 176    -13.0133128  0.176658E-01  0.460E+00    0.13       1.0  T
 177    -13.0041101  0.920264E-02  0.424E+00    0.05       1.0  T
 178    -12.9764792  0.276309E-01  0.496E+00    0.17       1.0  T
 179    -13.0161486 -0.396694E-01  0.442E+00    0.05       1.0  T
 180    -13.0062864  0.986218E-02  0.464E+00    0.14       1.0  T
 181    -13.0242253 -0.179389E-01  0.417E+00    0.05       1.0  T
 182    -12.9966995  0.275258E-01  0.475E+00    0.15       1.0  T
 183    -13.0169780 -0.202785E-01  0.428E+00    0.05       1.0  T
 184    -12.9993142  0.176638E-01  0.470E+00    0.15       1.0  T
 185    -13.0302397 -0.309255E-01  0.412E+00    0.06       1.0  T
 186    -13.0067008  0.235389E-01  0.461E+00    0.14       1.0  T
 187    -13.0277714 -0.210707E-01  0.408E+00    0.05       1.0  T
 188    -13.0061146  0.216568E-01  0.458E+00    0.15       1.0  T
 189    -13.0387429 -0.326283E-01  0.394E+00    0.06       1.0  T
 190    -13.0158578  0.228850E-01  0.445E+00    0.14       1.0  T
 191    -13.0398695 -0.240117E-01  0.385E+00    0.06       1.0  T
 192    -13.0173320  0.225375E-01  0.439E+00    0.14       1.0  T
 193    -13.0482764 -0.309443E-01  0.371E+00    0.06       1.0  T
 194    -13.0256549  0.226214E-01  0.426E+00    0.13       1.0  T
 195    -13.0519262 -0.262713E-01  0.360E+00    0.06       1.0  T
 196    -13.0295528  0.223733E-01  0.417E+00    0.13       1.0  T
 197    -13.0586663 -0.291135E-01  0.346E+00    0.06       1.0  T
 198    -13.0366692  0.219971E-01  0.405E+00    0.13       1.0  T
 199    -13.0637509 -0.270817E-01  0.333E+00    0.07       1.0  T
 200    -13.0422589  0.214920E-01  0.393E+00    0.12       1.0  T
 201    -13.0697632 -0.275043E-01  0.318E+00    0.07       1.0  T
 202    -13.0488765  0.208866E-01  0.379E+00    0.12       1.0  T
 203    -13.0753200 -0.264434E-01  0.303E+00    0.07       1.0  T
 204    -13.0551683  0.201517E-01  0.366E+00    0.11       1.0  T
 205    -13.0810212 -0.258529E-01  0.287E+00    0.07       1.0  T
 206    -13.0616142  0.194070E-01  0.351E+00    0.11       1.0  T
 207    -13.0864564 -0.248421E-01  0.270E+00    0.08       1.0  T
 208    -13.0678691  0.185873E-01  0.335E+00    0.11       1.0  T
 209    -13.0917038 -0.238347E-01  0.252E+00    0.08       1.0  T
 210    -13.0738970  0.178068E-01  0.319E+00    0.10       1.0  T
 211    -13.0965212 -0.226242E-01  0.234E+00    0.08       1.0  T
 212    -13.0794847  0.170365E-01  0.302E+00    0.10       1.0  T
 213    -13.1008085 -0.213238E-01  0.215E+00    0.09       1.0  T
 214    -13.0844515  0.163570E-01  0.285E+00    0.09       1.0  T
 215    -13.1043255 -0.198740E-01  0.196E+00    0.09       1.0  T
 216    -13.0885687  0.157568E-01  0.268E+00    0.09       1.0  T
 217    -13.1068904 -0.183217E-01  0.178E+00    0.10       1.0  T
 218    -13.0916195  0.152709E-01  0.252E+00    0.08       1.0  T
 219    -13.1083171 -0.166977E-01  0.163E+00    0.10       1.0  T
 220    -13.0934644  0.148528E-01  0.237E+00    0.08       1.0  T
 221    -13.1085255 -0.150611E-01  0.151E+00    0.11       1.0  T
 222    -13.0940805  0.144450E-01  0.225E+00    0.08       1.0  T
 223    -13.1076403 -0.135598E-01  0.145E+00    0.11       1.0  T
 224    -13.0936350  0.140053E-01  0.215E+00    0.07       1.0  T
 225    -13.1059409 -0.123059E-01  0.144E+00    0.12       1.0  T
 226    -13.0924927  0.134482E-01  0.208E+00    0.07       1.0  T
 227    -13.1040092 -0.115165E-01  0.145E+00    0.12       1.0  T
 228    -13.0910117  0.129975E-01  0.203E+00    0.07       1.0  T
 229    -13.1021624 -0.111507E-01  0.148E+00    0.13       1.0  T
 230    -13.0897624  0.124000E-01  0.200E+00    0.07       1.0  T
 231    -13.1008568 -0.110944E-01  0.150E+00    0.13       1.0  T
 232    -13.0886864  0.121704E-01  0.197E+00    0.07       1.0  T
 233    -13.0998213 -0.111348E-01  0.152E+00    0.13       1.0  T
 234    -13.0883490  0.114723E-01  0.193E+00    0.06       1.0  T
 235    -13.0993780 -0.110290E-01  0.152E+00    0.13       1.0  T
 236    -13.0879928  0.113852E-01  0.190E+00    0.06       1.0  T
 237    -13.0989615 -0.109686E-01  0.152E+00    0.13       1.0  T
 238    -13.0884824  0.104790E-01  0.185E+00    0.06       1.0  T
 239    -13.0990995 -0.106171E-01  0.150E+00    0.13       1.0  T
 240    -13.0886342  0.104653E-01  0.182E+00    0.06       1.0  T
 241    -13.0991038 -0.104696E-01  0.149E+00    0.13       1.0  T
 242    -13.0896951  0.940875E-02  0.176E+00    0.06       1.0  T
 243    -13.0996837 -0.998864E-02  0.146E+00    0.13       1.0  T
 244    -13.0903226  0.936117E-02  0.171E+00    0.06       1.0  T
 245    -13.1000893 -0.976679E-02  0.144E+00    0.13       1.0  T
 246    -13.0918635  0.822586E-02  0.164E+00    0.07       1.0  T
 247    -13.1010998 -0.923628E-02  0.139E+00    0.13       1.0  T
 248    -13.0931139  0.798582E-02  0.158E+00    0.07       1.0  T
 249    -13.1020064 -0.889245E-02  0.135E+00    0.13       1.0  T
 250    -13.0951940  0.681237E-02  0.150E+00    0.07       1.0  T
     SCC iter.                  ...        0 min,  0.110 sec
     gradient                   ...        0 min,  0.000 sec
 * total energy  :   -12.1885496 Eh     change       -0.9112267E+01 Eh
   gradient norm :     9.6406548 Eh/α   predicted    -0.1555835E+02 (  70.74%)
   displ. norm   :     0.7630040 α      lambda       -0.6807363E+01
   maximum displ.:     0.6252419 α      in ANC's #9, #12, #1, ...

........................................................................
.............................. CYCLE    3 ..............................
........................................................................
   1    -13.0400269 -0.130400E+02  0.364E+00    0.18       0.0  T
   2    -12.1872196  0.852807E+00  0.107E+01    0.00       1.0  T
   3    -12.3982889 -0.211069E+00  0.111E+01    0.00       1.0  T
   4    -12.4261840 -0.278951E-01  0.101E+01    0.00       1.0  T
   5    -12.2983926  0.127791E+00  0.936E+00    0.01       1.0  T
   6    -12.2838215  0.145711E-01  0.947E+00    0.01       1.0  T
   7    -12.2879557 -0.413424E-02  0.944E+00    0.01       1.0  T
   8    -12.2925032 -0.454748E-02  0.942E+00    0.02       1.0  T
   9    -12.7915720 -0.499069E+00  0.102E+01    3.13       1.0  T
  10    -12.8609872 -0.694152E-01  0.110E+01    0.41       1.0  T
  11    -12.2435702  0.617417E+00  0.216E+01    0.00       1.0  T
  12    -12.2461566 -0.258645E-02  0.174E+01    0.00       1.0  T
  13    -12.2790827 -0.329260E-01  0.961E+00    0.00       1.0  T
  14    -12.8807584 -0.601676E+00  0.809E+00    0.74       1.0  T
  15    -12.2871790  0.593579E+00  0.959E+00    0.03       1.0  T
  16    -12.9022992 -0.615120E+00  0.650E+00    0.45       1.0  T
  17    -12.6259075  0.276392E+00  0.730E+00    0.05       1.0  T
  18    -12.8804840 -0.254577E+00  0.685E+00    0.95       1.0  T
  19    -12.9042801 -0.237961E-01  0.595E+00    0.49       1.0  T
  20    -12.9157362 -0.114561E-01  0.587E+00    0.41       1.0  T
  21    -12.9082629  0.747325E-02  0.601E+00    0.56       1.0  T
  22    -12.9085329 -0.269960E-03  0.599E+00    0.52       1.0  T
  23    -12.9109093 -0.237643E-02  0.596E+00    0.46       1.0  T
  24    -12.9439270 -0.330177E-01  0.566E+00    0.26       1.0  T
  25    -12.9389868  0.494017E-02  0.579E+00    0.27       1.0  T
  26    -12.9098305  0.291563E-01  0.594E+00    0.57       1.0  T
  27    -12.9291488 -0.193183E-01  0.573E+00    0.07       1.0  T
  28    -12.8700167  0.591321E-01  0.703E+00    0.71       1.0  T
  29    -12.8682313  0.178543E-02  0.690E+00    0.95       1.0  T
  30    -12.8795619 -0.113306E-01  0.649E+00    1.30       1.0  T
  31    -12.8862666 -0.670466E-02  0.635E+00    0.95       1.0  T
  32    -12.9094541 -0.231875E-01  0.591E+00    0.42       1.0  T
  33    -12.9301535 -0.206994E-01  0.560E+00    0.30       1.0  T
  34    -12.9144786  0.156748E-01  0.581E+00    0.38       1.0  T
  35    -12.5564371  0.358041E+00  0.895E+00    0.01       1.0  T
  36    -12.3027446  0.253693E+00  0.965E+00    0.06       1.0  T
  37    -12.8915415 -0.588797E+00  0.678E+00    0.57       1.0  T
  38    -12.9352632 -0.437217E-01  0.522E+00    0.29       1.0  T
  39    -12.9307134  0.454982E-02  0.535E+00    0.34       1.0  T
  40    -12.4778911  0.452822E+00  0.957E+00    0.00       1.0  T
  41    -12.2981041  0.179787E+00  0.973E+00    0.05       1.0  T
  42    -12.8660922 -0.567988E+00  0.682E+00    1.49       1.0  T
  43    -12.9137327 -0.476405E-01  0.566E+00    0.57       1.0  T
  44    -12.6633025  0.250430E+00  0.703E+00    0.04       1.0  T
  45    -12.4132893  0.250013E+00  0.107E+01    0.00       1.0  T
  46    -12.3224467  0.908427E-01  0.940E+00    0.09       1.0  T
  47    -12.8600092 -0.537563E+00  0.737E+00    1.55       1.0  T
  48    -12.9045408 -0.445316E-01  0.594E+00    0.45       1.0  T
  49    -12.8667927  0.377482E-01  0.595E+00    0.05       1.0  T
  50    -12.8822283 -0.154356E-01  0.658E+00    0.70       1.0  T
  51    -13.0487566 -0.166528E+00  0.354E+00    0.16       1.0  T
  52    -13.0716289 -0.228723E-01  0.272E+00    0.15       1.0  T
  53    -12.4439661  0.627663E+00  0.981E+00    0.00       1.0  T
  54    -12.3047112  0.139255E+00  0.946E+00    0.04       1.0  T
  55    -12.8622279 -0.557517E+00  0.691E+00    1.81       1.0  T
  56    -12.9101445 -0.479166E-01  0.575E+00    0.59       1.0  T
  57    -13.0459579 -0.135813E+00  0.312E+00    0.09       1.0  T
  58    -12.5212921  0.524666E+00  0.913E+00    0.01       1.0  T
  59    -12.8852755 -0.363983E+00  0.667E+00    0.46       1.0  T
  60    -12.3248840  0.560392E+00  0.916E+00    0.02       1.0  T
  61    -12.9086534 -0.583769E+00  0.571E+00    0.39       1.0  T
  62    -12.7674460  0.141207E+00  0.694E+00    0.03       1.0  T
  63    -12.8807815 -0.113336E+00  0.663E+00    0.65       1.0  T
  64    -12.9241742 -0.433927E-01  0.453E+00    0.07       1.0  T
  65    -12.9195004  0.467389E-02  0.563E+00    0.37       1.0  T
  66    -12.5494467  0.370054E+00  0.894E+00    0.01       1.0  T
  67    -12.3920829  0.157364E+00  0.882E+00    0.04       1.0  T
  68    -12.8686986 -0.476616E+00  0.680E+00    1.57       1.0  T
  69    -12.9093277 -0.406291E-01  0.574E+00    0.58       1.0  T
  70    -13.0730197 -0.163692E+00  0.241E+00    0.18       1.0  T
  71    -12.9152936  0.157726E+00  0.590E+00    0.05       1.0  T
  72    -12.9349805 -0.196869E-01  0.538E+00    0.37       1.0  T
  73    -12.9379230 -0.294256E-02  0.431E+00    0.08       1.0  T
  74    -12.4287611  0.509162E+00  0.101E+01    0.00       1.0  T
  75    -12.7523232 -0.323562E+00  0.637E+00    0.08       1.0  T
  76    -12.8705207 -0.118197E+00  0.695E+00    1.47       1.0  T
  77    -12.9190242 -0.485036E-01  0.557E+00    0.53       1.0  T
  78    -13.1034090 -0.184385E+00  0.118E+00    0.12       1.0  T
  79    -12.4838284  0.619581E+00  0.941E+00    0.00       1.0  T
  80    -13.0625115 -0.578683E+00  0.358E+00    0.16       1.0  T
  81    -13.0701853 -0.767375E-02  0.267E+00    0.13       1.0  T
  82    -12.9283826  0.141803E+00  0.561E+00    0.40       1.0  T
  83    -12.8129076  0.115475E+00  0.616E+00    0.06       1.0  T
  84    -12.4594619  0.353446E+00  0.973E+00    0.00       1.0  T
  85    -12.8937308 -0.434269E+00  0.643E+00    0.44       1.0  T
  86    -12.6222637  0.271467E+00  0.726E+00    0.05       1.0  T
  87    -12.8962653 -0.274002E+00  0.602E+00    0.64       1.0  T
  88    -13.0399298 -0.143664E+00  0.297E+00    0.09       1.0  T
  89    -12.9208573  0.119072E+00  0.563E+00    0.50       1.0  T
  90    -13.0981901 -0.177333E+00  0.134E+00    0.10       1.0  T
  91    -12.8313569  0.266833E+00  0.541E+00    0.07       1.0  T
  92    -12.5708709  0.260486E+00  0.876E+00    0.01       1.0  T
  93    -12.9014886 -0.330618E+00  0.624E+00    0.43       1.0  T
  94    -12.5293958  0.372093E+00  0.791E+00    0.05       1.0  T
  95    -12.8996119 -0.370216E+00  0.592E+00    0.60       1.0  T
  96    -13.0451779 -0.145566E+00  0.291E+00    0.12       1.0  T
  97    -12.9966617  0.485162E-01  0.415E+00    0.21       1.0  T
  98    -12.6747447  0.321917E+00  0.789E+00    0.02       1.0  T
  99    -12.3222606  0.352484E+00  0.919E+00    0.03       1.0  T
 100    -12.8847563 -0.562496E+00  0.620E+00    1.12       1.0  T
 101    -12.9347661 -0.500098E-01  0.532E+00    0.39       1.0  T
 102    -12.7095968  0.225169E+00  0.659E+00    0.06       1.0  T
 103    -12.4730547  0.236542E+00  0.959E+00    0.00       1.0  T
 104    -12.9013082 -0.428254E+00  0.619E+00    0.43       1.0  T
 105    -12.7660192  0.135289E+00  0.610E+00    0.06       1.0  T
 106    -12.9033110 -0.137292E+00  0.590E+00    0.60       1.0  T
 107    -13.0466338 -0.143323E+00  0.277E+00    0.09       1.0  T
 108    -12.9515953  0.950385E-01  0.504E+00    0.34       1.0  T
 109    -12.7852292  0.166366E+00  0.689E+00    0.03       1.0  T
 110    -12.3992475  0.385982E+00  0.873E+00    0.04       1.0  T
 111    -12.8903268 -0.491079E+00  0.611E+00    0.93       1.0  T
 112    -12.9448179 -0.544911E-01  0.509E+00    0.34       1.0  T
 113    -13.0116457 -0.668278E-01  0.412E+00    0.06       1.0  T
 114    -13.0811112 -0.694655E-01  0.224E+00    0.13       1.0  T
 115    -13.0804048  0.706422E-03  0.230E+00    0.18       1.0  T
 116    -12.4834196  0.596985E+00  0.945E+00    0.00       1.0  T
 117    -12.3279327  0.155487E+00  0.920E+00    0.04       1.0  T
 118    -12.8770224 -0.549090E+00  0.642E+00    1.28       1.0  T
 119    -12.9305108 -0.534884E-01  0.545E+00    0.38       1.0  T
 120    -12.8481407  0.823701E-01  0.529E+00    0.07       1.0  T
 121    -12.5504714  0.297669E+00  0.892E+00    0.02       1.0  T
 122    -12.8945922 -0.344121E+00  0.619E+00    0.60       1.0  T
 123    -13.0740485 -0.179456E+00  0.274E+00    0.14       1.0  T
 124    -13.0723756  0.167294E-02  0.214E+00    0.12       1.0  T
 125    -12.8559888  0.216387E+00  0.594E+00    0.04       1.0  T
 126    -12.9266881 -0.706993E-01  0.561E+00    0.38       1.0  T
 127    -12.6940891  0.232599E+00  0.669E+00    0.06       1.0  T
 128    -12.9846236 -0.290535E+00  0.436E+00    0.21       1.0  T
 129    -12.5521980  0.432426E+00  0.890E+00    0.01       1.0  T
 130    -12.9729507 -0.420753E+00  0.514E+00    0.24       1.0  T
 131    -12.3844674  0.588483E+00  0.880E+00    0.04       1.0  T
 132    -12.8993734 -0.514906E+00  0.586E+00    0.66       1.0  T
 133    -12.9856161 -0.862427E-01  0.434E+00    0.21       1.0  T
 134    -12.7174239  0.268192E+00  0.740E+00    0.03       1.0  T
 135    -13.0121667 -0.294743E+00  0.436E+00    0.21       1.0  T
 136    -12.4153096  0.596857E+00  0.861E+00    0.05       1.0  T
 137    -12.9183165 -0.503007E+00  0.550E+00    0.42       1.0  T
 138    -12.9739771 -0.556605E-01  0.421E+00    0.06       1.0  T
 139    -12.9232309  0.507461E-01  0.559E+00    0.44       1.0  T
 140    -12.9787297 -0.554988E-01  0.374E+00    0.09       1.0  T
 141    -12.6320883  0.346641E+00  0.819E+00    0.02       1.0  T
 142    -12.9804421 -0.348354E+00  0.492E+00    0.24       1.0  T
 143    -12.4102653  0.570177E+00  0.865E+00    0.04       1.0  T
 144    -12.9052534 -0.494988E+00  0.576E+00    0.58       1.0  T
 145    -13.0204426 -0.115189E+00  0.358E+00    0.16       1.0  T
 146    -12.9101293  0.110313E+00  0.516E+00    0.05       1.0  T
 147    -12.9724246 -0.622953E-01  0.491E+00    0.26       1.0  T
 148    -12.4174631  0.554962E+00  0.863E+00    0.04       1.0  T
 149    -13.0236607 -0.606198E+00  0.341E+00    0.16       1.0  T
 150    -12.9668681  0.567925E-01  0.428E+00    0.06       1.0  T
 151    -12.9162245  0.506436E-01  0.573E+00    0.50       1.0  T
 152    -13.0549150 -0.138691E+00  0.245E+00    0.11       1.0  T
 153    -12.9568239  0.980911E-01  0.489E+00    0.05       1.0  T
 154    -13.0606694 -0.103845E+00  0.317E+00    0.17       1.0  T
 155    -12.7799497  0.280720E+00  0.590E+00    0.08       1.0  T
 156    -13.0472725 -0.267323E+00  0.296E+00    0.13       1.0  T
 157    -13.0326761  0.145964E-01  0.300E+00    0.08       1.0  T
 158    -12.9364984  0.961777E-01  0.536E+00    0.40       1.0  T
 159    -12.9603669 -0.238685E-01  0.406E+00    0.09       1.0  T
 160    -12.5586617  0.401705E+00  0.883E+00    0.01       1.0  T
 161    -12.9477466 -0.389085E+00  0.432E+00    0.09       1.0  T
 162    -12.9015406  0.462060E-01  0.617E+00    0.53       1.0  T
 163    -12.9314778 -0.299372E-01  0.438E+00    0.08       1.0  T
 164    -12.9605259 -0.290481E-01  0.492E+00    0.33       1.0  T
 165    -12.8755965  0.849294E-01  0.570E+00    0.04       1.0  T
 166    -13.0465970 -0.171001E+00  0.353E+00    0.18       1.0  T
 167    -12.6714471  0.375150E+00  0.683E+00    0.06       1.0  T
 168    -13.0017992 -0.330352E+00  0.403E+00    0.19       1.0  T
 169    -12.7352971  0.266502E+00  0.721E+00    0.03       1.0  T
 170    -12.9237307 -0.188434E+00  0.571E+00    0.37       1.0  T
 171    -12.6778787  0.245852E+00  0.682E+00    0.06       1.0  T
 172    -12.9345818 -0.256703E+00  0.529E+00    0.37       1.0  T
 173    -13.0452320 -0.110650E+00  0.274E+00    0.09       1.0  T
 174    -12.9830836  0.621484E-01  0.455E+00    0.27       1.0  T
 175    -12.9333598  0.497238E-01  0.477E+00    0.08       1.0  T
 176    -12.6162111  0.317149E+00  0.834E+00    0.02       1.0  T
 177    -13.0088153 -0.392604E+00  0.443E+00    0.21       1.0  T
 178    -12.4917121  0.517103E+00  0.813E+00    0.05       1.0  T
 179    -12.9040507 -0.412339E+00  0.585E+00    0.66       1.0  T
 180    -12.9762461 -0.721953E-01  0.453E+00    0.25       1.0  T
 181    -12.9696207  0.662535E-02  0.444E+00    0.06       1.0  T
 182    -13.0759710 -0.106350E+00  0.262E+00    0.15       1.0  T
 183    -12.9014907  0.174480E+00  0.467E+00    0.09       1.0  T
 184    -12.7963089  0.105182E+00  0.659E+00    0.04       1.0  T
 185    -12.9233409 -0.127032E+00  0.565E+00    0.40       1.0  T
 186    -12.9912908 -0.679499E-01  0.357E+00    0.09       1.0  T
 187    -13.0106051 -0.193143E-01  0.403E+00    0.24       1.0  T
 188    -12.7486827  0.261922E+00  0.713E+00    0.03       1.0  T
 189    -12.9958593 -0.247177E+00  0.359E+00    0.09       1.0  T
 190    -12.9382454  0.576139E-01  0.548E+00    0.34       1.0  T
 191    -12.8096612  0.128584E+00  0.567E+00    0.07       1.0  T
 192    -13.0603822 -0.250721E+00  0.250E+00    0.12       1.0  T
 193    -13.0479857  0.123965E-01  0.268E+00    0.09       1.0  T
 194    -12.9519942  0.959915E-01  0.503E+00    0.28       1.0  T
 195    -12.9219278  0.300665E-01  0.501E+00    0.05       1.0  T
 196    -12.9874810 -0.655533E-01  0.367E+00    0.09       1.0  T
 197    -12.9816302  0.585080E-02  0.471E+00    0.26       1.0  T
 198    -12.6100844  0.371546E+00  0.735E+00    0.06       1.0  T
 199    -12.7567211 -0.146637E+00  0.703E+00    0.03       1.0  T
 200    -12.9161011 -0.159380E+00  0.576E+00    0.44       1.0  T
 201    -13.0822108 -0.166110E+00  0.225E+00    0.14       1.0  T
 202    -13.0302461  0.519647E-01  0.287E+00    0.10       1.0  T
 203    -12.9407774  0.894687E-01  0.478E+00    0.06       1.0  T
 204    -12.9439210 -0.314354E-02  0.528E+00    0.34       1.0  T
 205    -13.0145454 -0.706245E-01  0.317E+00    0.10       1.0  T
 206    -13.0871814 -0.726360E-01  0.166E+00    0.10       1.0  T
 207    -13.0520863  0.350951E-01  0.285E+00    0.14       1.0  T
 208    -13.0580663 -0.597994E-02  0.239E+00    0.09       1.0  T
 209    -13.0588498 -0.783503E-03  0.306E+00    0.18       1.0  T
 210    -12.7275295  0.331320E+00  0.651E+00    0.07       1.0  T
 211    -12.6013815  0.126148E+00  0.849E+00    0.01       1.0  T
 212    -13.0472578 -0.445876E+00  0.367E+00    0.17       1.0  T
 213    -12.8079118  0.239346E+00  0.566E+00    0.08       1.0  T
 214    -12.9116812 -0.103769E+00  0.586E+00    0.55       1.0  T
 215    -13.0387717 -0.127091E+00  0.342E+00    0.21       1.0  T
 216    -12.9849089  0.538629E-01  0.413E+00    0.08       1.0  T
 217    -12.6128572  0.372052E+00  0.836E+00    0.02       1.0  T
 218    -12.9530032 -0.340146E+00  0.527E+00    0.28       1.0  T
 219    -12.6251408  0.327862E+00  0.721E+00    0.06       1.0  T
 220    -12.9140796 -0.288939E+00  0.568E+00    0.57       1.0  T
 221    -12.9924751 -0.783955E-01  0.423E+00    0.24       1.0  T
 222    -12.9248114  0.676636E-01  0.508E+00    0.05       1.0  T
 223    -13.0623180 -0.137507E+00  0.305E+00    0.17       1.0  T
 224    -12.8310194  0.231299E+00  0.542E+00    0.08       1.0  T
 225    -13.0649287 -0.233909E+00  0.231E+00    0.11       1.0  T
 226    -13.0274323  0.374965E-01  0.346E+00    0.16       1.0  T
 227    -12.9884553  0.389769E-01  0.388E+00    0.06       1.0  T
 228    -12.9668011  0.216542E-01  0.492E+00    0.29       1.0  T
 229    -12.6111505  0.355651E+00  0.733E+00    0.06       1.0  T
 230    -13.0659408 -0.454790E+00  0.228E+00    0.13       1.0  T
 231    -13.0582777  0.766314E-02  0.248E+00    0.11       1.0  T
 232    -13.0233331  0.349445E-01  0.358E+00    0.17       1.0  T
 233    -12.9800409  0.432923E-01  0.424E+00    0.06       1.0  T
 234    -12.5612441  0.418797E+00  0.766E+00    0.05       1.0  T
 235    -12.9274784 -0.366234E+00  0.546E+00    0.47       1.0  T
 236    -13.0837153 -0.156237E+00  0.208E+00    0.17       1.0  T
 237    -12.9269758  0.156739E+00  0.540E+00    0.04       1.0  T
 238    -12.7135660  0.213410E+00  0.650E+00    0.07       1.0  T
 239    -12.9273951 -0.213829E+00  0.551E+00    0.46       1.0  T
 240    -13.0724903 -0.145095E+00  0.241E+00    0.18       1.0  T
 241    -12.9340811  0.138409E+00  0.511E+00    0.05       1.0  T
 242    -13.0363891 -0.102308E+00  0.287E+00    0.10       1.0  T
 243    -13.0355809  0.808256E-03  0.364E+00    0.20       1.0  T
 244    -12.9384036  0.971773E-01  0.445E+00    0.08       1.0  T
 245    -12.5701903  0.368213E+00  0.873E+00    0.01       1.0  T
 246    -13.0073352 -0.437145E+00  0.440E+00    0.21       1.0  T
 247    -12.7253931  0.281942E+00  0.640E+00    0.07       1.0  T
 248    -12.9145294 -0.189136E+00  0.573E+00    0.56       1.0  T
 249    -12.9985884 -0.840590E-01  0.415E+00    0.25       1.0  T
 250    -13.0446227 -0.460343E-01  0.309E+00    0.07       1.0  T
     SCC iter.                  ...        0 min,  0.110 sec
     gradient                   ...        0 min,  0.001 sec
 * total energy  :    -5.3066338 Eh     change        0.6881916E+01 Eh
   gradient norm :    28.8894221 Eh/α   predicted    -0.5385222E+01 (-178.25%)
   displ. norm   :     0.4391443 α      lambda       -0.1229916E+02
   maximum displ.:     0.3896838 α      in ANC's #9, #12, #6, ...

[...]
  84    -13.1057824 -0.117028E-01  0.120E+00    0.12       1.0  T
  85    -13.0694281  0.363543E-01  0.229E+00    0.06       1.0  T
  86    -13.0775625 -0.813440E-02  0.210E+00    0.14       1.0  T
  87    -13.1163493 -0.387868E-01  0.535E-01    0.08       1.0  T
  88    -13.1191736 -0.282433E-02  0.155E-01    0.10       1.0  T
  89    -13.0975288  0.216449E-01  0.151E+00    0.07       1.0  T
  90    -13.1062320 -0.870327E-02  0.118E+00    0.12       1.0  T
  91    -13.0870570  0.191751E-01  0.184E+00    0.06       1.0  T
  92    -13.0905024 -0.344541E-02  0.175E+00    0.14       1.0  T
  93    -13.1096031 -0.191007E-01  0.994E-01    0.08       1.0  T
  94    -13.1128302 -0.322706E-02  0.841E-01    0.11       1.0  T
  95    -13.0880716  0.247585E-01  0.181E+00    0.07       1.0  T
  96    -13.0935627 -0.549108E-02  0.165E+00    0.14       1.0  T
  97    -13.1097269 -0.161642E-01  0.989E-01    0.08       1.0  T
  98    -13.1132064 -0.347951E-02  0.815E-01    0.11       1.0  T
  99    -13.0931830  0.200234E-01  0.165E+00    0.07       1.0  T
 100    -13.0985517 -0.536878E-02  0.148E+00    0.13       1.0  T
 101    -13.1079227 -0.937097E-02  0.108E+00    0.08       1.0  T
 102    -13.1114975 -0.357479E-02  0.918E-01    0.12       1.0  T
 103    -13.0980361  0.134615E-01  0.149E+00    0.07       1.0  T
 104    -13.1028685 -0.483243E-02  0.132E+00    0.13       1.0  T
 105    -13.1071118 -0.424331E-02  0.112E+00    0.08       1.0  T
 106    -13.1108790 -0.376716E-02  0.951E-01    0.12       1.0  T
 107    -13.1025489  0.833007E-02  0.132E+00    0.07       1.0  T
 108    -13.1071159 -0.456703E-02  0.114E+00    0.12       1.0  T
 109    -13.1070852  0.306994E-04  0.113E+00    0.08       1.0  T
 110    -13.1110110 -0.392578E-02  0.942E-01    0.12       1.0  T
 111    -13.1063943  0.461670E-02  0.116E+00    0.07       1.0  T
 112    -13.1106300 -0.423567E-02  0.961E-01    0.12       1.0  T
 113    -13.1084025  0.222749E-02  0.107E+00    0.08       1.0  T
 114    -13.1123047 -0.390224E-02  0.864E-01    0.11       1.0  T
 115    -13.1093572  0.294754E-02  0.102E+00    0.08       1.0  T
 116    -13.1131809 -0.382377E-02  0.808E-01    0.11       1.0  T
 117    -13.1106617  0.251928E-02  0.951E-01    0.08       1.0  T
 118    -13.1142299 -0.356823E-02  0.736E-01    0.11       1.0  T
 119    -13.1118862  0.234367E-02  0.881E-01    0.08       1.0  T
 120    -13.1151837 -0.329752E-02  0.663E-01    0.11       1.0  T
 121    -13.1130919  0.209181E-02  0.806E-01    0.08       1.0  T
 122    -13.1160662 -0.297426E-02  0.588E-01    0.11       1.0  T
 123    -13.1142481  0.181805E-02  0.728E-01    0.08       1.0  T
 124    -13.1168599 -0.261172E-02  0.511E-01    0.11       1.0  T
 125    -13.1153297  0.153011E-02  0.646E-01    0.08       1.0  T
 126    -13.1175489 -0.221920E-02  0.433E-01    0.10       1.0  T
 127    -13.1163098  0.123909E-02  0.561E-01    0.08       1.0  T
 128    -13.1181202 -0.181037E-02  0.356E-01    0.10       1.0  T
 129    -13.1171618  0.958409E-03  0.475E-01    0.09       1.0  T
 130    -13.1185659 -0.140413E-02  0.282E-01    0.10       1.0  T
 131    -13.1178636  0.702300E-03  0.390E-01    0.09       1.0  T
 132    -13.1188875 -0.102382E-02  0.213E-01    0.10       1.0  T
 133    -13.1184039  0.483596E-03  0.309E-01    0.09       1.0  T
 134    -13.1190975 -0.693631E-03  0.152E-01    0.10       1.0  T
 135    -13.1187868  0.310736E-03  0.235E-01    0.09       1.0  T
 136    -13.1192189 -0.432162E-03  0.101E-01    0.10       1.0  T
 137    -13.1190335  0.185450E-03  0.172E-01    0.09       1.0  T
 138    -13.1192795 -0.246017E-03  0.616E-02    0.10       1.0  T
 139    -13.1191769  0.102636E-03  0.120E-01    0.09       1.0  T
 140    -13.1193047 -0.127884E-03  0.333E-02    0.10       1.2  T
 141    -13.1192521  0.526382E-04  0.812E-02    0.09       1.0  T
 142    -13.1193132 -0.610696E-04  0.144E-02    0.10       2.8  T
 143    -13.1192882  0.249502E-04  0.530E-02    0.09       1.0  T
 144    -13.1193151 -0.268311E-04  0.176E-03    0.10      23.2  T
 145    -13.1193017  0.133332E-04  0.374E-02    0.09       1.1  T
 146    -13.1193099 -0.813934E-05  0.233E-02    0.09       1.8  T
 147    -13.1193119 -0.204381E-05  0.182E-02    0.09       2.2  T
 148    -13.1193135 -0.158793E-05  0.128E-02    0.09       3.2  T
 149    -13.1193144 -0.871255E-06  0.851E-03    0.09       4.8  T
 150    -13.1193148 -0.462467E-06  0.490E-03    0.09       8.3  T
 151    -13.1193150 -0.190783E-06  0.202E-03    0.10      20.2  T
     SCC iter.                  ...        0 min,  0.026 sec
     gradient                   ...        0 min,  0.000 sec
 * total energy  :   -13.0594495 Eh     change       -0.8461637E-01 Eh
   gradient norm :     0.0097535 Eh/α   predicted    -0.1648792E-04 ( -99.98%)
   displ. norm   :     0.0080856 α      lambda       -0.3724682E-05
   maximum displ.:     0.0080359 α      in ANC's #1, #6, #5, ...

........................................................................
.............................. CYCLE    9 ..............................
........................................................................
   1    -13.1191907 -0.131192E+02  0.449E-02    0.09       0.0  T
   2    -13.0935030  0.256877E-01  0.157E+00    0.13       1.0  T
   3    -13.1180879 -0.245849E-01  0.457E-01    0.09       1.0  T
   4    -13.1191301 -0.104224E-02  0.115E-01    0.10       1.0  T
   5    -13.1192001 -0.699825E-04  0.345E-02    0.10       1.2  T
   6    -13.1192076 -0.751345E-05  0.166E-02    0.10       2.5  T
   7    -13.1192090 -0.133143E-05  0.611E-03    0.09       6.7  T
   8    -13.1192092 -0.237676E-06  0.163E-03    0.10      25.0  T
   9    -13.1192092 -0.116366E-07  0.677E-04    0.10      60.3  T
     SCC iter.                  ...        0 min,  0.001 sec
     gradient                   ...        0 min,  0.000 sec
 * total energy  :   -13.0594518 Eh     change       -0.2241396E-05 Eh
   gradient norm :     0.0013664 Eh/α   predicted    -0.1861592E-05 ( -16.94%)
   displ. norm   :     0.0018858 α      lambda       -0.9491096E-07
   maximum displ.:     0.0018329 α      in ANC's #1, #6, #5, ...

........................................................................
.............................. CYCLE   10 ..............................
........................................................................
   1    -13.1191656 -0.131192E+02  0.971E-03    0.09       0.0  T
   2    -13.1187774  0.388177E-03  0.202E-01    0.10       1.0  T
   3    -13.1187135  0.638683E-04  0.238E-01    0.09       1.0  T
   4    -13.1191660 -0.452530E-03  0.465E-03    0.10       8.8  T
   5    -13.1191661 -0.955040E-07  0.144E-03    0.10      28.3  T
   6    -13.1191661 -0.371602E-08  0.831E-04    0.10      49.1  T
   7    -13.1191661 -0.662624E-08  0.358E-04    0.10     114.2  T
     SCC iter.                  ...        0 min,  0.000 sec
     gradient                   ...        0 min,  0.000 sec
 * total energy  :   -13.0594518 Eh     change       -0.2723541E-07 Eh
   gradient norm :     0.0006751 Eh/α   predicted    -0.4715248E-07 (  73.13%)
   displ. norm   :     0.0006686 α      lambda       -0.1754107E-07
   maximum displ.:     0.0006616 α      in ANC's #1, #6, #5, ...

   *** GEOMETRY OPTIMIZATION CONVERGED AFTER 10 ITERATIONS ***

------------------------------------------------------------------------
 total energy gain   :        -9.4989273 Eh    -5960.6669 kcal/mol
 total RMSD          :         0.3923874 a0        0.2076 Å
 total power (kW/mol):     -2493.9430127 (step)********** (real)
------------------------------------------------------------------------

 ANCopt (total)                0 d,  0 h,  0 min,  0.596 sec
 optimizer setup                ...        0 min,  0.000 sec (  0.008%)
 model hessian                  ...        0 min,  0.000 sec (  0.011%)
 ANC generation                 ...        0 min,  0.000 sec (  0.011%)
 coordinate transformation      ...        0 min,  0.000 sec (  0.008%)
 single point calculation       ...        0 min,  0.595 sec ( 99.801%)
 optimization log               ...        0 min,  0.000 sec (  0.043%)
 hessian update                 ...        0 min,  0.000 sec (  0.006%)
 rational function              ...        0 min,  0.000 sec (  0.055%)

================
 final structure:
================
6
 xtb: 6.2.3 (830e466)
F        -4.37194965051173   -0.25825713680566    0.07703645101696
Cl        2.90246337965714    0.16380550323781   -0.05371204089789
C        -0.67411598048064   -0.03673684051496    0.01394648961236
H        -0.65019847563500   -0.61872922357625   -0.88119769916976
H        -0.62207664797866   -0.51858663059937    0.96562636759251
H        -0.72706262505226    1.02841432825851   -0.04299956815481
 
 Bond Distances (Angstroems)
 ---------------------------
C3-H4=1.0680         C3-H5=1.0680         C3-H6=1.0680         H4-C3=1.0680         H5-C3=1.0680         H6-C3=1.0680         
 C  H  Rav=1.0680 sigma=0.0000  Rmin=1.0680  Rmax=1.0680     3
 
 selected bond angles (degree)
 --------------------
H5-C3-H4=120.00                H6-C3-H4=119.99                H6-C3-H5=119.99                
 
 selected dihedral angles (degree)
 ---------------------------------

 
 CMA Distance (Angstroems)
 ---------------------------
R(CMA):  6.2214
           -------------------------------------------------
          |                Final Singlepoint                |
           -------------------------------------------------

          ...................................................
          :                      SETUP                      :
          :.................................................:
          :  # basis functions                  21          :
          :  # atomic orbitals                  20          :
          :  # shells                           10          :
          :  # electrons                        22          :
          :  max. iterations                   250          :
          :  Hamiltonian                  GFN2-xTB          :
          :  restarted?                      false          :
          :  GBSA solvation                  false          :
          :  PC potential                    false          :
          :  electronic temp.          300.0000000     K    :
          :  accuracy                    1.0000000          :
          :  -> integral cutoff          0.2500000E+02      :
          :  -> integral neglect         0.1000000E-07      :
          :  -> SCF convergence          0.1000000E-05 Eh   :
          :  -> wf. convergence          0.1000000E-03 e    :
          :  Broyden damping             0.4000000          :
          ...................................................

 iter      E             dE          RMSdq      gap      omega  full diag
   1    -13.1191661 -0.131192E+02  0.339E-04    0.10       0.0  T
   2    -13.1191659  0.231646E-06  0.571E-03    0.10       7.2  T
   3    -13.1191654  0.470722E-06  0.890E-03    0.09       4.6  T
   4    -13.1191660 -0.560932E-06  0.463E-03    0.10       8.8  T
   5    -13.1191661 -0.134856E-06  0.898E-04    0.10      45.5  T
   6    -13.1191661 -0.641375E-08  0.211E-04    0.10     193.9  T

   *** convergence criteria satisfied after 6 iterations ***

         #    Occupation            Energy/Eh            Energy/eV
      -------------------------------------------------------------
         1        2.0000           -0.8635195             -23.4976
       ...           ...                  ...                  ...
         5        2.0000           -0.3783902             -10.2965
         6        1.9995           -0.2474442              -6.7333
         7        1.9700           -0.2435339              -6.6269
         8        1.9700           -0.2435338              -6.6269
         9        1.8644           -0.2420485              -6.5865
        10        1.8545           -0.2419761              -6.5845
        11        1.8544           -0.2419758              -6.5845 (HOMO)
        12        0.4872           -0.2384819              -6.4894 (LUMO)
        13                          0.2263473               6.1592
        14                          0.2414298               6.5696
        15                          0.2416647               6.5760
        16                          0.2416648               6.5760
       ...                                ...                  ...
        20                          0.3948860              10.7454
      -------------------------------------------------------------
                  HL-Gap            0.0034939 Eh            0.0951 eV
             Fermi-level           -0.2395583 Eh           -6.5187 eV

 SCC (total)                   0 d,  0 h,  0 min,  0.002 sec
 SCC setup                      ...        0 min,  0.000 sec (  2.766%)
 Dispersion                     ...        0 min,  0.000 sec (  0.461%)
 integral evaluation            ...        0 min,  0.001 sec ( 36.206%)
 zeroth order Hamiltonian       ...        0 min,  0.000 sec (  0.698%)
 iterations                     ...        0 min,  0.000 sec ( 24.724%)
 molecular gradient             ...        0 min,  0.001 sec ( 31.303%)
 printout                       ...        0 min,  0.000 sec (  2.752%)

         :::::::::::::::::::::::::::::::::::::::::::::::::::::
         ::                     SUMMARY                     ::
         :::::::::::::::::::::::::::::::::::::::::::::::::::::
         :: total energy             -13.059451797857 Eh    ::
         :: gradient norm              0.000674925365 Eh/a0 ::
         :: HOMO-LUMO gap              0.095074239277 eV    ::
         ::.................................................::
         :: SCC energy               -13.119166144861 Eh    ::
         :: -> isotropic ES            0.155847994704 Eh    ::
         :: -> anisotropic ES         -0.000876260395 Eh    ::
         :: -> anisotropic XC          0.006786584294 Eh    ::
         :: -> dispersion             -0.001403953096 Eh    ::
         :: repulsion energy           0.059717813286 Eh    ::
         :: add. restraining           0.000000958799 Eh    ::
         :::::::::::::::::::::::::::::::::::::::::::::::::::::

           -------------------------------------------------
          |                Property Printout                |
           -------------------------------------------------

    * Orbital Energies and Occupations

         #    Occupation            Energy/Eh            Energy/eV
      -------------------------------------------------------------
         1        2.0000           -0.8635195             -23.4976
         2        2.0000           -0.5287031             -14.3867
         3        2.0000           -0.4764660             -12.9653
         4        2.0000           -0.3784159             -10.2972
         5        2.0000           -0.3783902             -10.2965
         6        1.9995           -0.2474442              -6.7333
         7        1.9700           -0.2435339              -6.6269
         8        1.9700           -0.2435338              -6.6269
         9        1.8644           -0.2420485              -6.5865
        10        1.8545           -0.2419761              -6.5845
        11        1.8544           -0.2419758              -6.5845 (HOMO)
        12        0.4872           -0.2384819              -6.4894 (LUMO)
        13                          0.2263473               6.1592
        14                          0.2414298               6.5696
        15                          0.2416647               6.5760
        16                          0.2416648               6.5760
        17                          0.2428046               6.6071
        18                          0.2428046               6.6071
        19                          0.3948380              10.7441
        20                          0.3948860              10.7454
      -------------------------------------------------------------
                  HL-Gap            0.0034939 Eh            0.0951 eV
             Fermi-level           -0.2395583 Eh           -6.5187 eV

     #   Z        covCN         q      C6AA      α(0)
     1   9 F      0.000    -0.537    15.861     4.639
     2  17 Cl     0.000    -0.626   112.624    16.151
     3   6 C      2.780    -0.086    30.124     8.990
     4   1 H      0.927     0.083     1.950     2.184
     5   1 H      0.927     0.083     1.951     2.184
     6   1 H      0.927     0.083     1.951     2.184

 Mol. C6AA /au·bohr⁶  :        582.500403
 Mol. C8AA /au·bohr⁸  :      16517.284406
 Mol. α(0) /au        :         36.331424


Wiberg/Mayer (AO) data.
largest (>0.10) Wiberg bond orders for each atom
          total WBO             WBO to atom ...
     1  F   0.040
     2  Cl  0.364        C    3 0.364
     3  C   3.378        H    6 0.991    H    5 0.991    H    4 0.991    Cl   2 0.364
     4  H   0.993        C    3 0.991
     5  H   0.993        C    3 0.991
     6  H   0.993        C    3 0.991

molecular dipole:
                 x           y           z       tot (Debye)
 q only:        0.797       0.057      -0.010
   full:        0.807       0.057      -0.011       2.057
molecular quadrupole (traceless):
                xx          xy          yy          xz          yz          zz
 q only:      -55.611      -4.861      27.677       1.497       0.087      27.934
  q+dip:      -56.482      -4.935      28.110       1.521       0.089      28.371
   full:      -55.486      -4.852      27.615       1.493       0.087      27.871

           -------------------------------------------------
          |                Geometry Summary                 |
           -------------------------------------------------

      molecular mass/u    :       69.4858989
   center of mass at/Å    :        0.1400133       0.0050357      -0.0033304
  moments of inertia/u·Å² :        0.3449423E+01   0.6714170E+03   0.6714177E+03
rotational constants/cm⁻¹ :        0.4887087E+01   0.2510755E-01   0.2510752E-01

 * 3 selected distances

     #   Z        #   Z                                     value/Å
     3   6 C      4   1 H                                 1.0679749 (min)
     3   6 C      5   1 H                                 1.0679803
     3   6 C      6   1 H                                 1.0679856 (max)

 * 1 distinct bonds (by element types)

   Z      Z             #   av. dist./Å        max./Å        min./Å
   1 H    6 C           3     1.0679802     1.0679856     1.0679749


optimized geometry written to: xtbopt.xyz


           -------------------------------------------------
          | TOTAL ENERGY              -13.059451797857 Eh   |
          | GRADIENT NORM               0.000674925365 Eh/α |
          | HOMO-LUMO GAP               0.095074239277 eV   |
           -------------------------------------------------
########################################################################
[WARNING] Runtime exception occurred
-6- scf: Self consistent charge iterator did not converge
-5- scf: Self consistent charge iterator did not converge
-4- scf: Self consistent charge iterator did not converge
-3- scf: Self consistent charge iterator did not converge
-2- scf: Self consistent charge iterator did not converge
-1- scf: Self consistent charge iterator did not converge
########################################################################

------------------------------------------------------------------------
 * finished run on 2020/04/08 at 23:04:48.092     
------------------------------------------------------------------------
 total:
 * wall-time:     0 d,  0 h,  0 min,  0.723 sec
 *  cpu-time:     0 d,  0 h,  0 min,  0.723 sec
 * ratio c/w:     1.000 speedup
 SCF:
 * wall-time:     0 d,  0 h,  0 min,  0.118 sec
 *  cpu-time:     0 d,  0 h,  0 min,  0.118 sec
 * ratio c/w:     1.000 speedup
 ANC optimizer:
 * wall-time:     0 d,  0 h,  0 min,  0.598 sec
 *  cpu-time:     0 d,  0 h,  0 min,  0.598 sec
 * ratio c/w:     1.000 speedup

