      -----------------------------------------------------------      
     |                   =====================                   |     
     |                           x T B                           |     
     |                   =====================                   |     
     |                         S. Grimme                         |     
     |          Mulliken Center for Theoretical Chemistry        |     
     |                    University of Bonn                     |     
      -----------------------------------------------------------      

   * xtb version 6.2.3 (830e466) compiled by 'ehlert@majestix' on 2020-03-16

   xtb is free software: you can redistribute it and/or modify it under
   the terms of the GNU Lesser General Public License as published by
   the Free Software Foundation, either version 3 of the License, or
   (at your option) any later version.
   
   xtb is distributed in the hope that it will be useful,
   but WITHOUT ANY WARRANTY; without even the implied warranty of
   MERCHANTABILITY or FITNESS FOR A PARTICULAR PURPOSE.  See the
   GNU Lesser General Public License for more details.
   
   Cite this work as:
   * S. Grimme, C. Bannwarth, P. Shushkov, J. Chem. Theory Comput., 2017,
     13, 1989-2009. DOI: 10.1021/acs.jctc.7b00118
   * C. Bannwarth, S. Ehlert and S. Grimme., J. Chem. Theory Comput., 2019,
     15, 1652-1671. DOI: 10.1021/acs.jctc.8b01176
   * P. Pracht, E. Caldeweyher, S. Ehlert, S. Grimme, ChemRxiv, 2019, preprint.
     DOI: 10.26434/chemrxiv.8326202.v1
   
   for DFT-D4:
   * E. Caldeweyher, C. Bannwarth and S. Grimme, J. Chem. Phys., 2017,
     147, 034112. DOI: 10.1063/1.4993215
   * E. Caldeweyher, S. Ehlert, A. Hansen, H. Neugebauer, S. Spicher,
     C. Bannwarth and S. Grimme, J. Chem. Phys., 2019, 150, 154122.
     DOI: 10.1063/1.5090222
   
   for sTDA-xTB:
   * S. Grimme and C. Bannwarth, J. Chem. Phys., 2016, 145, 054103.
     DOI: 10.1063/1.4959605
   
   in the mass-spec context:
   * V. Asgeirsson, C. Bauer and S. Grimme, Chem. Sci., 2017, 8, 4879.
     DOI: 10.1039/c7sc00601b
   
   for metadynamics refer to:
   * S. Grimme, J. Chem. Theory Comput., 2019, 155, 2847-2862
     DOI: 10.1021/acs.jctc.9b00143
   
   with help from (in alphabetical order)
   C. Bannwarth, F. Bohle, G. Brandenburg, E. Caldeweyher, M. Checinski,
   S. Dohm, S. Ehlert, S. Ehrlich, F. März, H. Neugebauer, J. Pisarek,
   P. Pracht, P. Shushkov, and S. Spicher.
   
 * started run on 2020/04/08 at 13:05:39.977     

           -------------------------------------------------
          |                Calculation Setup                |
           -------------------------------------------------

          program call               : /home/tom/.local/bin/xtb SN2_PES_scan_3-4_xtb.xyz --chrg -1 --opt --input xcontrol_SN2_PES_scan_3-4
          coordinate file            : SN2_PES_scan_3-4_xtb.xyz
          omp threads                :                     2
          number of atoms            :                     6
          number of electrons        :                    22
          charge                     :                    -1
          spin                       :                   0.0
          first test random number   :      0.91417882484626

constraining bond 1 3 to    2.5000000 Å, actual value:    2.9997492 Å
constraining bond 2 3 to    3.5560000 Å, actual value:    3.1115981 Å

molecular fragmentation (1/2 indicates fragments):
122222
# atoms in fragment 1/2:     1     5
 fragment masses (1/2) :       19.00       50.49
CMA distance (Bohr)    :   9.796
constraining FC (au)   : 10.0000
########################################################################
[WARNING] Please study the warnings concerning your input carefully
-2- prog_main: XTBPATH is not set, using XTBHOME instead
-1- prog_main: XTBHOME is not set, using HOME instead
########################################################################
           ------------------------------------------------- 
          |                 G F N 2 - x T B                 |
          | Geometry, Frequencies, Noncovalent interactions |
          |            JCTC 2019 parametrisation            |
           ------------------------------------------------- 
             k(s)              :                1.8500
             k(p)              :                2.2300
             k(d)              :                2.2300
             k(f)              :                2.0000
             kEN (H0ij)        :               -2.0000
             D4 a1             :                0.5200
             D4 a2             :                5.0000
             D4 s6             :                1.0000
             D4 s8             :                2.7000
             D4 s9             :                5.0000
             alphaj            :                2.0000

  Z AO/shell   Hii/eV     exponent
  1     Wed Apr 25 08:07:45 CEST 2018   EN: 2.200 GM2: 0.406  GM3: 0.0800  RAES: 1.40
     1s    -10.707211    1.230000
  6     Wed Apr 25 08:07:45 CEST 2018   EN: 2.550 GM2: 0.538  GM3: 0.1500  RAES: 3.00
     2s    -13.970922    2.096432
     2p    -10.063292    1.800000
  9     Mon Apr 23 13:58:50 CEST 2018   EN: 3.980 GM2: 0.532  GM3: 0.1426  RAES: 2.40
     2s    -23.458179    2.416361
     2p    -15.746583    2.308399
 17     Mon Apr 23 14:09:22 CEST 2018   EN: 3.160 GM2: 0.249  GM3: 0.1495  RAES: 2.50
     3s    -29.278781    2.485265
     3p    -12.673758    2.199650
     3d     -0.240338    2.476089

           ------------------------------------------------- 
          |        Self-Consistent Charge Iterations        |
           ------------------------------------------------- 

          ...................................................
          :                      SETUP                      :
          :.................................................:
          :  # basis functions                  21          :
          :  # atomic orbitals                  20          :
          :  # shells                           10          :
          :  # electrons                        22          :
          :  max. iterations                   250          :
          :  Hamiltonian                  GFN2-xTB          :
          :  restarted?                      false          :
          :  GBSA solvation                  false          :
          :  PC potential                    false          :
          :  electronic temp.          300.0000000     K    :
          :  accuracy                    1.0000000          :
          :  -> integral cutoff          0.2500000E+02      :
          :  -> integral neglect         0.1000000E-07      :
          :  -> SCF convergence          0.1000000E-05 Eh   :
          :  -> wf. convergence          0.1000000E-03 e    :
          :  Broyden damping             0.4000000          :
          ...................................................

 iter      E             dE          RMSdq      gap      omega  full diag
   1    -12.8715326 -0.128715E+02  0.100E+01    1.35       0.0  T
   2    -12.1456936  0.725839E+00  0.105E+01    0.00       1.0  T
   3    -13.0522943 -0.906601E+00  0.504E+00    0.58       1.0  T
   4    -13.0640926 -0.117983E-01  0.399E+00    0.54       1.0  T
   5    -12.2457144  0.818378E+00  0.101E+01    0.00       1.0  T
   6    -12.4501229 -0.204408E+00  0.886E+00    0.05       1.0  T
   7    -12.7473119 -0.297189E+00  0.699E+00    0.08       1.0  T
   8    -12.7087144  0.385975E-01  0.725E+00    0.08       1.0  T
   9    -12.2536177  0.455097E+00  0.985E+00    0.00       1.0  T
  10    -12.2774526 -0.238349E-01  0.963E+00    0.00       1.0  T
  11    -12.9107574 -0.633305E+00  0.839E+00    0.18       1.0  T
  12    -12.3710093  0.539748E+00  0.914E+00    0.00       1.0  T
  13    -12.7967073 -0.425698E+00  0.687E+00    0.03       1.0  T
  14    -12.2345522  0.562155E+00  0.101E+01    0.00       1.0  T
  15    -12.2329447  0.160752E-02  0.102E+01    0.00       1.0  T
  16    -13.1010851 -0.868140E+00  0.462E+00    0.26       1.0  T
  17    -12.2798832  0.821202E+00  0.958E+00    0.00       1.0  T
  18    -13.0906901 -0.810807E+00  0.259E+00    0.46       1.0  T
  19    -12.3944069  0.696283E+00  0.913E+00    0.07       1.0  T
  20    -13.1180602 -0.723653E+00  0.209E+00    0.28       1.0  T
  21    -13.0982129  0.198473E-01  0.277E+00    0.52       1.0  T
  22    -13.1106705 -0.124576E-01  0.241E+00    0.39       1.0  T
  23    -13.1165186 -0.584809E-02  0.212E+00    0.37       1.0  T
  24    -13.1051681  0.113505E-01  0.196E+00    0.48       1.0  T
  25    -13.1190984 -0.139303E-01  0.135E+00    0.36       1.0  T
  26    -13.1324188 -0.133204E-01  0.803E-01    0.25       1.0  T
  27    -13.1166876  0.157312E-01  0.170E+00    0.20       1.0  T
  28    -13.1125664  0.412114E-02  0.172E+00    0.21       1.0  T
  29    -13.1295816 -0.170152E-01  0.760E-01    0.25       1.0  T
  30    -13.1323833 -0.280171E-02  0.449E-01    0.26       1.0  T
  31    -13.1309771  0.140622E-02  0.590E-01    0.25       1.0  T
  32    -13.1317243 -0.747209E-03  0.497E-01    0.26       1.0  T
  33    -13.1331421 -0.141776E-02  0.334E-01    0.28       1.0  T
  34    -13.1330890  0.531311E-04  0.317E-01    0.28       1.0  T
  35    -13.1331536 -0.646540E-04  0.254E-01    0.28       1.0  T
  36    -13.1332799 -0.126332E-03  0.154E-01    0.28       1.0  T
  37    -13.1333448 -0.649081E-04  0.848E-02    0.27       1.0  T
  38    -13.1333586 -0.137087E-04  0.518E-02    0.27       1.0  T
  39    -13.1333626 -0.405822E-05  0.288E-02    0.27       1.4  T
  40    -13.1333660 -0.339975E-05  0.824E-03    0.27       5.0  T
  41    -13.1333665 -0.510195E-06  0.231E-03    0.27      17.7  T
  42    -13.1333665 -0.185861E-08  0.314E-04    0.27     129.9  T
  43    -13.1333665  0.509088E-08  0.106E-03    0.27      38.6  T
  44    -13.1333665 -0.475519E-08  0.277E-04    0.27     147.1  T

   *** convergence criteria satisfied after 44 iterations ***

         #    Occupation            Energy/Eh            Energy/eV
      -------------------------------------------------------------
         1        2.0000           -0.8563820             -23.3033
       ...           ...                  ...                  ...
         5        2.0000           -0.3669252              -9.9845
         6        2.0000           -0.2463020              -6.7022
         7        2.0000           -0.2371050              -6.4520
         8        2.0000           -0.2371047              -6.4519
         9        1.9976           -0.2284591              -6.2167
        10        1.9933           -0.2274711              -6.1898
        11        1.9933           -0.2274707              -6.1898 (HOMO)
        12        0.0157           -0.2174637              -5.9175 (LUMO)
        13                          0.2395663               6.5189
        14                          0.2496552               6.7935
        15                          0.2496558               6.7935
        16                          0.2498373               6.7984
       ...                                ...                  ...
        20                          0.4076054              11.0915
      -------------------------------------------------------------
                  HL-Gap            0.0100069 Eh            0.2723 eV
             Fermi-level           -0.2220584 Eh           -6.0425 eV

 SCC (total)                   0 d,  0 h,  0 min,  0.013 sec
 SCC setup                      ...        0 min,  0.000 sec (  0.541%)
 Dispersion                     ...        0 min,  0.000 sec (  0.145%)
 integral evaluation            ...        0 min,  0.007 sec ( 55.640%)
 zeroth order Hamiltonian       ...        0 min,  0.000 sec (  0.129%)
 iterations                     ...        0 min,  0.004 sec ( 33.077%)
 molecular gradient             ...        0 min,  0.001 sec (  9.838%)
 printout                       ...        0 min,  0.000 sec (  0.441%)

         :::::::::::::::::::::::::::::::::::::::::::::::::::::
         ::                     SUMMARY                     ::
         :::::::::::::::::::::::::::::::::::::::::::::::::::::
         :: total energy               2.897689884608 Eh    ::
         :: gradient norm             43.721572705745 Eh/a0 ::
         :: HOMO-LUMO gap              0.272302343871 eV    ::
         ::.................................................::
         :: SCC energy               -13.133366527415 Eh    ::
         :: -> isotropic ES            0.165142947802 Eh    ::
         :: -> anisotropic ES         -0.000453790770 Eh    ::
         :: -> anisotropic XC          0.005998890097 Eh    ::
         :: -> dispersion             -0.001701233080 Eh    ::
         :: repulsion energy           0.059750775646 Eh    ::
         :: add. restraining          15.971308968344 Eh    ::
         :::::::::::::::::::::::::::::::::::::::::::::::::::::

      ----------------------------------------------------------- 
     |                   =====================                   |
     |                        A N C O P T                        |
     |                   =====================                   |
     |               Approximate Normal Coordinate               |
     |                Rational Function Optimizer                |
      ----------------------------------------------------------- 

          ...................................................
          :                      SETUP                      :
          :.................................................:
          :   optimization level            normal          :
          :   max. optcycles                   200          :
          :   ANC micro-cycles                  20          :
          :   degrees of freedom                12          :
          :.................................................:
          :   RF solver                   davidson          :
          :   write xtbopt.log                true          :
          :   linear?                        false          :
          :   energy convergence         0.5000000E-05 Eh   :
          :   grad. convergence          0.1000000E-02 Eh/α :
          :   maximium RF displ.         1.0000000          :
          :   Hlow (freq-cutoff)         0.1000000E-01      :
          :   Hmax (freq-cutoff)         5.0000000          :
          :   S6 in model hess.         20.0000000          :
          ...................................................

generating ANC from model Hessian ...
Using Lindh-Hessian (1995)
 Shifting diagonal of input Hessian by    1.05949877185465     
 Lowest  eigenvalues of input Hessian
    0.010000    0.010719   -0.000000   -0.000000   -0.000000    0.000000
    0.000000    0.000000    1.060656    1.212336    1.212498    1.497315
    1.698648    1.698900    3.599142    3.599806   21.061035   61.060787
 Highest eigenvalues
    1.698648    1.698900    3.599142    3.599806   21.061035   61.060787
 

........................................................................
.............................. CYCLE    1 ..............................
........................................................................
   1    -13.1333665 -0.131334E+02  0.179E-04    0.27       0.0  T
   2    -13.1333665  0.414871E-07  0.238E-03    0.27      17.2  T
   3    -13.1333665 -0.407958E-07  0.386E-04    0.27     105.7  T
   4    -13.1333665 -0.124201E-09  0.330E-04    0.27     123.8  T
     SCC iter.                  ...        0 min,  0.017 sec
     gradient                   ...        0 min,  0.001 sec
 * total energy  :     2.8976899 Eh     change       -0.1227766E-07 Eh
   gradient norm :    43.7215704 Eh/α   predicted     0.0000000E+00 (-100.00%)
   displ. norm   :     0.9444534 α      lambda       -0.4129299E+02
   maximum displ.:     0.9439001 α      in ANC's #11, #12, #9, ...

........................................................................
.............................. CYCLE    2 ..............................
........................................................................
   1    -13.0014055 -0.130014E+02  0.448E+00    0.67       0.0  T
   2    -12.9682821  0.331234E-01  0.575E+00    0.23       1.0  T
   3    -12.3231534  0.645129E+00  0.105E+01    0.00       1.0  T
   4    -13.0549229 -0.731769E+00  0.256E+00    0.10       1.0  T
   5    -13.0776940 -0.227711E-01  0.240E+00    0.55       1.0  T
   6    -13.0579257  0.197683E-01  0.271E+00    0.60       1.0  T
   7    -13.0888522 -0.309265E-01  0.165E+00    0.23       1.0  T
   8    -13.1037465 -0.148943E-01  0.250E-01    0.17       1.0  T
   9    -13.0860320  0.177145E-01  0.153E+00    0.12       1.0  T
  10    -13.0964626 -0.104306E-01  0.102E+00    0.25       1.0  T
  11    -13.0996870 -0.322435E-02  0.766E-01    0.22       1.0  T
  12    -13.1011507 -0.146370E-02  0.593E-01    0.21       1.0  T
  13    -13.1022080 -0.105732E-02  0.455E-01    0.19       1.0  T
  14    -13.1028247 -0.616680E-03  0.349E-01    0.19       1.0  T
  15    -13.1037354 -0.910712E-03  0.469E-02    0.17       1.0  T
  16    -13.1037399 -0.453445E-05  0.416E-02    0.17       1.0  T
  17    -13.1037270  0.128910E-04  0.557E-02    0.16       1.0  T
  18    -13.1037480 -0.209240E-04  0.213E-02    0.17       1.9  T
  19    -13.1037506 -0.268205E-05  0.812E-03    0.17       5.0  T
  20    -13.1037511 -0.450179E-06  0.402E-03    0.17      10.2  T
  21    -13.1037511 -0.520730E-07  0.187E-03    0.17      21.8  T
     SCC iter.                  ...        0 min,  0.008 sec
     gradient                   ...        0 min,  0.000 sec
 * total energy  :   -11.6584034 Eh     change       -0.1455609E+02 Eh
   gradient norm :    12.9781482 Eh/α   predicted    -0.3906301E+02 ( 168.36%)
   displ. norm   :     0.2418827 α      lambda       -0.2791148E+01
   maximum displ.:     0.2072138 α      in ANC's #11, #12, #3, ...

........................................................................
.............................. CYCLE    3 ..............................
........................................................................
   1    -13.0803644 -0.130804E+02  0.270E+00    0.13       0.0  T
   2    -13.0901424 -0.977797E-02  0.273E+00    0.88       1.0  T
   3    -13.0986939 -0.855151E-02  0.203E+00    0.81       1.0  T
   4    -13.1025162 -0.382235E-02  0.187E+00    0.69       1.0  T
   5    -13.1139638 -0.114475E-01  0.969E-01    0.34       1.0  T
   6    -13.1068906  0.707319E-02  0.154E+00    0.52       1.0  T
   7    -13.1174125 -0.105219E-01  0.763E-01    0.26       1.0  T
   8    -13.0601362  0.572763E-01  0.284E+00    0.10       1.0  T
   9    -13.0650004 -0.486414E-02  0.271E+00    0.11       1.0  T
  10    -12.9471954  0.117805E+00  0.470E+00    0.07       1.0  T
  11    -13.1195852 -0.172390E+00  0.289E-01    0.19       1.0  T
  12    -13.1196835 -0.982904E-04  0.252E-01    0.19       1.0  T
  13    -13.1198916 -0.208047E-03  0.197E-01    0.22       1.0  T
  14    -13.1197938  0.978056E-04  0.219E-01    0.22       1.0  T
  15    -13.1192261  0.567709E-03  0.344E-01    0.24       1.0  T
  16    -13.1189367  0.289313E-03  0.393E-01    0.24       1.0  T
  17    -13.1189625 -0.257352E-04  0.387E-01    0.24       1.0  T
  18    -13.1196846 -0.722089E-03  0.215E-01    0.23       1.0  T
  19    -13.1199529 -0.268347E-03  0.915E-02    0.22       1.0  T
  20    -13.1200027 -0.497747E-04  0.363E-02    0.21       1.1  T
  21    -13.1200105 -0.786015E-05  0.142E-02    0.21       2.9  T
  22    -13.1200119 -0.138783E-05  0.163E-03    0.21      25.0  T
  23    -13.1200120 -0.152223E-07  0.268E-04    0.21     152.1  T
     SCC iter.                  ...        0 min,  0.007 sec
     gradient                   ...        0 min,  0.000 sec
 * total energy  :   -13.0058792 Eh     change       -0.1347476E+01 Eh
   gradient norm :     1.6946766 Eh/α   predicted    -0.1477226E+01 (   9.63%)
   displ. norm   :     0.2692303 α      lambda       -0.4508738E+00
   maximum displ.:     0.2636622 α      in ANC's #12, #11, #3, ...

........................................................................
.............................. CYCLE    4 ..............................
........................................................................
   1    -12.5521262 -0.125521E+02  0.871E+00    0.00       0.0  T
   2    -12.7328232 -0.180697E+00  0.873E+00    2.30       1.0  T
   3    -12.5698154  0.163008E+00  0.923E+00    0.18       1.0  T
   4    -13.0290712 -0.459256E+00  0.462E+00    0.93       1.0  T
   5    -13.0903455 -0.612744E-01  0.258E+00    0.61       1.0  T
   6    -12.3769353  0.713410E+00  0.984E+00    0.00       1.0  T
   7    -13.0719335 -0.694998E+00  0.316E+00    0.87       1.0  T
   8    -13.0816231 -0.968961E-02  0.271E+00    0.44       1.0  T
   9    -13.0903941 -0.877101E-02  0.232E+00    0.45       1.0  T
  10    -13.1192937 -0.288996E-01  0.745E-01    0.19       1.0  T
  11    -13.1033506  0.159431E-01  0.159E+00    0.45       1.0  T
  12    -13.1058343 -0.248372E-02  0.146E+00    0.38       1.0  T
  13    -13.1135813 -0.774694E-02  0.995E-01    0.26       1.0  T
  14    -13.1172985 -0.371728E-02  0.706E-01    0.22       1.0  T
  15    -13.1179038 -0.605227E-03  0.637E-01    0.22       1.0  T
  16    -13.1191379 -0.123415E-02  0.458E-01    0.20       1.0  T
  17    -13.1192633 -0.125388E-03  0.362E-01    0.19       1.0  T
  18    -13.1194615 -0.198200E-03  0.144E-01    0.18       1.0  T
  19    -13.1194770 -0.155264E-04  0.611E-02    0.18       1.0  T
  20    -13.1194812 -0.415811E-05  0.152E-02    0.18       2.7  T
  21    -13.1194815 -0.329188E-06  0.104E-02    0.18       3.9  T
  22    -13.1194820 -0.473954E-06  0.741E-03    0.18       5.5  T
  23    -13.1194821 -0.138469E-06  0.529E-03    0.18       7.7  T
  24    -13.1194823 -0.175769E-06  0.191E-03    0.18      21.4  T
     SCC iter.                  ...        0 min,  0.002 sec
     gradient                   ...        0 min,  0.008 sec
 * total energy  :   -12.6998490 Eh     change        0.3060302E+00 Eh
   gradient norm :     4.2786624 Eh/α   predicted    -0.2417777E+00 (-179.00%)
   displ. norm   :     0.1802113 α      lambda       -0.7252955E+00
   maximum displ.:     0.1761218 α      in ANC's #12, #11, #3, ...

........................................................................
.............................. CYCLE    5 ..............................
........................................................................
   1    -13.1135826 -0.131136E+02  0.132E+00    0.36       0.0  T
   2    -12.3546683  0.758914E+00  0.104E+01    0.00       1.0  T
   3    -13.1151841 -0.760516E+00  0.135E+00    0.16       1.0  T
   4    -13.1193243 -0.414023E-02  0.752E-01    0.27       1.0  T
   5    -13.1216262 -0.230194E-02  0.551E-01    0.23       1.0  T
   6    -13.1229751 -0.134881E-02  0.344E-01    0.21       1.0  T
   7    -13.1227111  0.263949E-03  0.488E-01    0.19       1.0  T
   8    -13.1232339 -0.522752E-03  0.250E-01    0.20       1.0  T
   9    -13.1232264  0.749222E-05  0.182E-01    0.20       1.0  T
  10    -13.1232446 -0.182157E-04  0.349E-02    0.20       1.2  T
  11    -13.1232468 -0.223147E-05  0.145E-02    0.20       2.8  T
  12    -13.1232472 -0.428918E-06  0.243E-02    0.20       1.7  T
  13    -13.1232474 -0.162953E-06  0.151E-02    0.20       2.7  T
  14    -13.1232474  0.550194E-07  0.734E-03    0.20       5.6  T
  15    -13.1232474 -0.850075E-07  0.217E-03    0.20      18.8  T
  16    -13.1232474 -0.236117E-08  0.155E-04    0.20     263.8  T
     SCC iter.                  ...        0 min,  0.001 sec
     gradient                   ...        0 min,  0.005 sec
 * total energy  :   -13.0747004 Eh     change       -0.3748514E+00 Eh
   gradient norm :     0.1385695 Eh/α   predicted    -0.3744252E+00 (  -0.11%)
   displ. norm   :     0.0353792 α      lambda       -0.2052773E-02
   maximum displ.:     0.0297207 α      in ANC's #3, #6, #2, ...

........................................................................
.............................. CYCLE    6 ..............................
........................................................................
   1    -13.1271757 -0.131272E+02  0.533E-02    0.20       0.0  T
   2    -13.1264302  0.745483E-03  0.375E-01    0.18       1.0  T
   3    -13.1271431 -0.712902E-03  0.985E-02    0.20       1.0  T
   4    -13.1271240  0.191467E-04  0.115E-01    0.19       1.0  T
   5    -13.1271329 -0.896768E-05  0.993E-02    0.19       1.0  T
   6    -13.1271871 -0.541528E-04  0.134E-02    0.20       3.0  T
   7    -13.1271878 -0.746533E-06  0.462E-03    0.20       8.8  T
   8    -13.1271879 -0.115184E-06  0.769E-04    0.20      53.1  T
     SCC iter.                  ...        0 min,  0.001 sec
     gradient                   ...        0 min,  0.011 sec
 * total energy  :   -13.0762040 Eh     change       -0.1503637E-02 Eh
   gradient norm :     0.0304641 Eh/α   predicted    -0.1027671E-02 ( -31.65%)
   displ. norm   :     0.1639265 α      lambda       -0.2461147E-02
   maximum displ.:     0.1396644 α      in ANC's #2, #3, #1, ...

........................................................................
.............................. CYCLE    7 ..............................
........................................................................
   1    -13.1348890 -0.131349E+02  0.221E-01    0.19       0.0  T
   2    -13.1326870  0.220205E-02  0.610E-01    0.23       1.0  T
   3    -13.1341738 -0.148682E-02  0.404E-01    0.18       1.0  T
   4    -13.1348919 -0.718060E-03  0.154E-01    0.20       1.0  T
   5    -13.1349157 -0.238046E-04  0.127E-01    0.19       1.0  T
   6    -13.1349506 -0.349188E-04  0.830E-02    0.19       1.0  T
   7    -13.1349923 -0.417275E-04  0.957E-03    0.20       4.3  T
   8    -13.1349927 -0.425821E-06  0.329E-03    0.20      12.4  T
   9    -13.1349928 -0.577859E-07  0.677E-04    0.20      60.3  T
     SCC iter.                  ...        0 min,  0.001 sec
     gradient                   ...        0 min,  0.000 sec
 * total energy  :   -13.0768756 Eh     change       -0.6716104E-03 Eh
   gradient norm :     0.1016575 Eh/α   predicted    -0.1263643E-02 (  88.15%)
   displ. norm   :     0.3574682 α      lambda       -0.6834067E-02
   maximum displ.:     0.2739752 α      in ANC's #2, #3, #1, ...

........................................................................
.............................. CYCLE    8 ..............................
........................................................................
   1    -13.1521065 -0.131521E+02  0.640E-01    0.18       0.0  T
   2    -13.1386984  0.134081E-01  0.170E+00    0.50       1.0  T
   3    -13.1523936 -0.136952E-01  0.491E-01    0.24       1.0  T
   4    -13.0834592  0.689344E-01  0.330E+00    0.10       1.0  T
   5    -13.1131932 -0.297340E-01  0.247E+00    0.11       1.0  T
   6    -13.1530598 -0.398666E-01  0.316E-01    0.22       1.0  T
   7    -13.1534835 -0.423639E-03  0.171E-01    0.21       1.0  T
   8    -13.1535709 -0.874659E-04  0.135E-01    0.21       1.0  T
   9    -13.1535178  0.531532E-04  0.165E-01    0.21       1.0  T
  10    -13.1536252 -0.107391E-03  0.104E-01    0.21       1.0  T
  11    -13.1536536 -0.283936E-04  0.811E-02    0.20       1.0  T
  12    -13.1536754 -0.218915E-04  0.584E-02    0.20       1.0  T
  13    -13.1536939 -0.184228E-04  0.273E-02    0.20       1.5  T
  14    -13.1536986 -0.473060E-05  0.527E-03    0.20       7.7  T
  15    -13.1536981  0.516877E-06  0.969E-03    0.20       4.2  T
  16    -13.1536986 -0.525110E-06  0.428E-03    0.20       9.5  T
     SCC iter.                  ...        0 min,  0.001 sec
     gradient                   ...        0 min,  0.016 sec
 * total energy  :   -13.0757602 Eh     change        0.1115393E-02 Eh
   gradient norm :     0.2671861 Eh/α   predicted    -0.3853669E-02 (-445.50%)
   displ. norm   :     0.1361737 α      lambda       -0.5421099E-02
   maximum displ.:     0.0827696 α      in ANC's #3, #2, #1, ...

........................................................................
.............................. CYCLE    9 ..............................
........................................................................
   1    -13.1440667 -0.131441E+02  0.323E-01    0.21       0.0  T
   2    -12.8816580  0.262409E+00  0.587E+00    0.05       1.0  T
   3    -13.1433273 -0.261669E+00  0.497E-01    0.22       1.0  T
   4    -13.1432316  0.957258E-04  0.453E-01    0.23       1.0  T
   5    -13.1430975  0.134090E-03  0.479E-01    0.24       1.0  T
   6    -13.1436286 -0.531158E-03  0.362E-01    0.23       1.0  T
   7    -13.1438940 -0.265401E-03  0.308E-01    0.22       1.0  T
   8    -13.1435783  0.315768E-03  0.379E-01    0.23       1.0  T
   9    -13.1445033 -0.925021E-03  0.392E-02    0.20       1.0  T
  10    -13.1445102 -0.689536E-05  0.257E-02    0.20       1.6  T
  11    -13.1445111 -0.883997E-06  0.236E-02    0.20       1.7  T
  12    -13.1445138 -0.275995E-05  0.118E-02    0.20       3.5  T
  13    -13.1445143 -0.464878E-06  0.832E-03    0.20       4.9  T
  14    -13.1445147 -0.450834E-06  0.945E-04    0.20      43.2  T
  15    -13.1445147 -0.252768E-08  0.625E-04    0.20      65.3  T
     SCC iter.                  ...        0 min,  0.002 sec
     gradient                   ...        0 min,  0.003 sec
 * total energy  :   -13.0791687 Eh     change       -0.3408428E-02 Eh
   gradient norm :     0.0895595 Eh/α   predicted    -0.2760816E-02 ( -19.00%)
   displ. norm   :     0.2051526 α      lambda       -0.1539438E-02
   maximum displ.:     0.1632285 α      in ANC's #1, #2, #6, ...

........................................................................
.............................. CYCLE   10 ..............................
........................................................................
   1    -13.1409249 -0.131409E+02  0.332E-01    0.21       0.0  T
   2    -13.0696659  0.712590E-01  0.323E+00    0.10       1.0  T
   3    -13.1397635 -0.700976E-01  0.481E-01    0.23       1.0  T
   4    -13.1406431 -0.879561E-03  0.342E-01    0.21       1.0  T
   5    -13.1407242 -0.810803E-04  0.257E-01    0.22       1.0  T
   6    -13.1411013 -0.377118E-03  0.969E-02    0.20       1.0  T
   7    -13.1410987  0.257831E-05  0.986E-02    0.20       1.0  T
   8    -13.1409763  0.122439E-03  0.162E-01    0.19       1.0  T
   9    -13.1411490 -0.172745E-03  0.405E-02    0.19       1.0  T
  10    -13.1411601 -0.110695E-04  0.823E-03    0.20       5.0  T
  11    -13.1411605 -0.409907E-06  0.266E-03    0.20      15.3  T
  12    -13.1411606 -0.482462E-07  0.432E-04    0.20      94.5  T
     SCC iter.                  ...        0 min,  0.001 sec
     gradient                   ...        0 min,  0.000 sec
 * total energy  :   -13.0783668 Eh     change        0.8018718E-03 Eh
   gradient norm :     0.0678011 Eh/α   predicted    -0.8021110E-03 (-200.03%)
   displ. norm   :     0.2219676 α      lambda       -0.4254454E-02
   maximum displ.:     0.2159031 α      in ANC's #1, #3, #6, ...

........................................................................
.............................. CYCLE   11 ..............................
........................................................................
   1    -13.1412328 -0.131412E+02  0.356E-01    0.20       0.0  T
   2    -13.1144151  0.268177E-01  0.213E+00    0.13       1.0  T
   3    -13.1390580 -0.246429E-01  0.635E-01    0.24       1.0  T
   4    -13.1413420 -0.228403E-02  0.220E-01    0.20       1.0  T
   5    -13.1414793 -0.137260E-03  0.570E-02    0.20       1.0  T
   6    -13.1413768  0.102547E-03  0.136E-01    0.19       1.0  T
   7    -13.1414826 -0.105829E-03  0.210E-02    0.20       1.9  T
   8    -13.1414859 -0.330790E-05  0.471E-03    0.20       8.7  T
   9    -13.1414859 -0.275965E-07  0.392E-03    0.20      10.4  T
     SCC iter.                  ...        0 min,  0.001 sec
     gradient                   ...        0 min,  0.001 sec
 * total energy  :   -13.0800235 Eh     change       -0.1656721E-02 Eh
   gradient norm :     0.0813482 Eh/α   predicted    -0.2232061E-02 (  34.73%)
   displ. norm   :     0.1244413 α      lambda       -0.1754577E-02
   maximum displ.:     0.1069661 α      in ANC's #2, #3, #1, ...

........................................................................
.............................. CYCLE   12 ..............................
........................................................................
   1    -13.1449498 -0.131449E+02  0.167E-01    0.20       0.0  T
   2    -13.1434481  0.150170E-02  0.496E-01    0.23       1.0  T
   3    -13.1442668 -0.818780E-03  0.375E-01    0.18       1.0  T
   4    -13.1449727 -0.705907E-03  0.111E-01    0.20       1.0  T
   5    -13.1450059 -0.331188E-04  0.569E-02    0.20       1.0  T
   6    -13.1450013  0.458288E-05  0.562E-02    0.20       1.0  T
   7    -13.1450198 -0.184856E-04  0.374E-03    0.20      10.9  T
   8    -13.1450198 -0.386798E-07  0.226E-03    0.20      18.0  T
   9    -13.1450198 -0.251228E-07  0.445E-04    0.20      91.8  T
     SCC iter.                  ...        0 min,  0.001 sec
     gradient                   ...        0 min,  0.004 sec
 * total energy  :   -13.0808569 Eh     change       -0.8334031E-03 Eh
   gradient norm :     0.0244262 Eh/α   predicted    -0.8908631E-03 (   6.89%)
   displ. norm   :     0.0647997 α      lambda       -0.7440217E-03
   maximum displ.:     0.0585762 α      in ANC's #3, #1, #6, ...

........................................................................
.............................. CYCLE   13 ..............................
........................................................................
   1    -13.1446260 -0.131446E+02  0.229E-01    0.20       0.0  T
   2    -13.1243725  0.202535E-01  0.189E+00    0.13       1.0  T
   3    -13.1425653 -0.181929E-01  0.600E-01    0.24       1.0  T
   4    -13.1447521 -0.218681E-02  0.144E-01    0.21       1.0  T
   5    -13.1448123 -0.601592E-04  0.110E-01    0.19       1.0  T
   6    -13.1448420 -0.296935E-04  0.703E-02    0.19       1.0  T
   7    -13.1448742 -0.322477E-04  0.543E-03    0.20       7.5  T
   8    -13.1448735  0.706600E-06  0.121E-02    0.20       3.4  T
   9    -13.1448743 -0.782290E-06  0.610E-04    0.20      67.0  T
  10    -13.1448743  0.975007E-09  0.669E-04    0.20      61.0  T
     SCC iter.                  ...        0 min,  0.001 sec
     gradient                   ...        0 min,  0.000 sec
 * total energy  :   -13.0814990 Eh     change       -0.6421086E-03 Eh
   gradient norm :     0.0171527 Eh/α   predicted    -0.3735731E-03 ( -41.82%)
   displ. norm   :     0.1963242 α      lambda       -0.1685129E-02
   maximum displ.:     0.1874295 α      in ANC's #3, #6, #1, ...

........................................................................
.............................. CYCLE   14 ..............................
........................................................................
   1    -13.1394575 -0.131395E+02  0.630E-01    0.21       0.0  T
   2    -13.0509504  0.885072E-01  0.402E+00    0.10       1.0  T
   3    -13.1307265 -0.797761E-01  0.133E+00    0.36       1.0  T
   4    -13.1394655 -0.873902E-02  0.563E-01    0.24       1.0  T
   5    -13.1395990 -0.133488E-03  0.581E-01    0.18       1.0  T
   6    -13.1396217 -0.226850E-04  0.577E-01    0.18       1.0  T
   7    -13.1411003 -0.147866E-02  0.169E-01    0.21       1.0  T
   8    -13.1412325 -0.132207E-03  0.233E-02    0.20       1.8  T
   9    -13.1412308  0.173963E-05  0.304E-02    0.20       1.3  T
  10    -13.1412358 -0.496094E-05  0.341E-03    0.20      12.0  T
  11    -13.1412352  0.522109E-06  0.107E-02    0.20       3.8  T
  12    -13.1412358 -0.581024E-06  0.154E-03    0.20      26.6  T
  13    -13.1412358  0.793553E-08  0.200E-03    0.20      20.4  T
     SCC iter.                  ...        0 min,  0.010 sec
     gradient                   ...        0 min,  0.000 sec
 * total energy  :   -13.0823420 Eh     change       -0.8429902E-03 Eh
   gradient norm :     0.0172948 Eh/α   predicted    -0.8749869E-03 (   3.80%)
   displ. norm   :     0.0070349 α      lambda       -0.2497871E-04
   maximum displ.:     0.0047973 α      in ANC's #1, #6, #2, ...

........................................................................
.............................. CYCLE   15 ..............................
........................................................................
   1    -13.1417622 -0.131418E+02  0.359E-02    0.20       0.0  T
   2    -13.1411868  0.575360E-03  0.327E-01    0.22       1.0  T
   3    -13.1417641 -0.577241E-03  0.270E-02    0.20       1.5  T
   4    -13.1417666 -0.257009E-05  0.180E-02    0.20       2.3  T
   5    -13.1417675 -0.860765E-06  0.108E-02    0.20       3.8  T
   6    -13.1417680 -0.518767E-06  0.205E-03    0.20      19.9  T
   7    -13.1417680 -0.141962E-07  0.899E-04    0.20      45.4  T
     SCC iter.                  ...        0 min,  0.001 sec
     gradient                   ...        0 min,  0.000 sec
 * total energy  :   -13.0823566 Eh     change       -0.1460330E-04 Eh
   gradient norm :     0.0018323 Eh/α   predicted    -0.1248952E-04 ( -14.47%)
   displ. norm   :     0.0083690 α      lambda       -0.3730574E-05
   maximum displ.:     0.0063330 α      in ANC's #3, #1, #4, ...

........................................................................
.............................. CYCLE   16 ..............................
........................................................................
   1    -13.1419807 -0.131420E+02  0.282E-02    0.20       0.0  T
   2    -13.1415937  0.387043E-03  0.262E-01    0.22       1.0  T
   3    -13.1419818 -0.388080E-03  0.240E-02    0.20       1.7  T
   4    -13.1419849 -0.310335E-05  0.831E-03    0.20       4.9  T
   5    -13.1419846  0.311016E-06  0.994E-03    0.20       4.1  T
   6    -13.1419851 -0.528224E-06  0.106E-03    0.20      38.4  T
   7    -13.1419851  0.744118E-08  0.168E-03    0.20      24.4  T
   8    -13.1419851 -0.151042E-07  0.112E-04    0.20     364.1  T
   9    -13.1419851 -0.239098E-11  0.103E-04    0.20     395.0  T
     SCC iter.                  ...        0 min,  0.001 sec
     gradient                   ...        0 min,  0.000 sec
 * total energy  :   -13.0823598 Eh     change       -0.3183050E-05 Eh
   gradient norm :     0.0037092 Eh/α   predicted    -0.1866211E-05 ( -41.37%)
   displ. norm   :     0.0021350 α      lambda       -0.1381322E-05
   maximum displ.:     0.0013193 α      in ANC's #2, #1, #4, ...

........................................................................
.............................. CYCLE   17 ..............................
........................................................................
   1    -13.1420232 -0.131420E+02  0.623E-03    0.20       0.0  T
   2    -13.1420007  0.224727E-04  0.630E-02    0.20       1.0  T
   3    -13.1420233 -0.226178E-04  0.328E-03    0.20      12.5  T
   4    -13.1420234 -0.266134E-07  0.235E-03    0.20      17.4  T
   5    -13.1420234 -0.229528E-07  0.869E-04    0.20      47.0  T
   6    -13.1420234 -0.320323E-08  0.283E-04    0.20     144.2  T
     SCC iter.                  ...        0 min,  0.000 sec
     gradient                   ...        0 min,  0.000 sec
 * total energy  :   -13.0823610 Eh     change       -0.1156366E-05 Eh
   gradient norm :     0.0018515 Eh/α   predicted    -0.6905504E-06 ( -40.28%)
   displ. norm   :     0.0106401 α      lambda       -0.3076282E-05
   maximum displ.:     0.0085825 α      in ANC's #2, #4, #3, ...

........................................................................
.............................. CYCLE   18 ..............................
........................................................................
   1    -13.1421251 -0.131421E+02  0.206E-02    0.20       0.0  T
   2    -13.1419416  0.183443E-03  0.181E-01    0.21       1.0  T
   3    -13.1421261 -0.184472E-03  0.131E-02    0.20       3.1  T
   4    -13.1421261 -0.330036E-07  0.122E-02    0.20       3.4  T
   5    -13.1421268 -0.639347E-06  0.457E-03    0.20       8.9  T
   6    -13.1421269 -0.110936E-06  0.400E-04    0.20     102.0  T
   7    -13.1421269  0.250795E-08  0.725E-04    0.20      56.3  T
     SCC iter.                  ...        0 min,  0.001 sec
     gradient                   ...        0 min,  0.000 sec
 * total energy  :   -13.0823628 Eh     change       -0.1854312E-05 Eh
   gradient norm :     0.0034757 Eh/α   predicted    -0.1538242E-05 ( -17.05%)
   displ. norm   :     0.0015066 α      lambda       -0.5883423E-06
   maximum displ.:     0.0011600 α      in ANC's #3, #1, #2, ...

........................................................................
.............................. CYCLE   19 ..............................
........................................................................
   1    -13.1420913 -0.131421E+02  0.669E-03    0.20       0.0  T
   2    -13.1420625  0.287779E-04  0.705E-02    0.20       1.0  T
   3    -13.1420914 -0.288696E-04  0.552E-03    0.20       7.4  T
   4    -13.1420915 -0.115538E-06  0.265E-03    0.20      15.4  T
   5    -13.1420916 -0.306394E-07  0.978E-04    0.20      41.7  T
   6    -13.1420916 -0.384926E-08  0.237E-04    0.20     172.2  T
     SCC iter.                  ...        0 min,  0.001 sec
     gradient                   ...        0 min,  0.001 sec
 * total energy  :   -13.0823633 Eh     change       -0.5018803E-06 Eh
   gradient norm :     0.0019280 Eh/α   predicted    -0.2958793E-06 ( -41.05%)
   displ. norm   :     0.0039663 α      lambda       -0.5818956E-06
   maximum displ.:     0.0027395 α      in ANC's #3, #2, #1, ...

........................................................................
.............................. CYCLE   20 ..............................
........................................................................
   1    -13.1419785 -0.131420E+02  0.164E-02    0.20       0.0  T
   2    -13.1417771  0.201435E-03  0.186E-01    0.19       1.0  T
   3    -13.1419795 -0.202430E-03  0.100E-02    0.20       4.1  T
   4    -13.1419800 -0.484723E-06  0.361E-03    0.20      11.3  T
   5    -13.1419800 -0.558118E-07  0.965E-04    0.20      42.3  T
   6    -13.1419800  0.199416E-08  0.921E-04    0.20      44.3  T
     SCC iter.                  ...        0 min,  0.002 sec
     gradient                   ...        0 min,  0.001 sec
 * total energy  :   -13.0823636 Eh     change       -0.3080215E-06 Eh
   gradient norm :     0.0011642 Eh/α   predicted    -0.2925811E-06 (  -5.01%)
   displ. norm   :     0.0009664 α      lambda       -0.9193045E-07
   maximum displ.:     0.0007331 α      in ANC's #1, #3, #8, ...
 * RMSD in coord.:     0.3935122 α      energy gain  -0.1598005E+02 Eh

generating ANC from model Hessian ...
Using Lindh-Hessian (1995)
 Shifting diagonal of input Hessian by   1.591670335998199E-002
 Lowest  eigenvalues of input Hessian
    0.010000    0.010002   -0.000000   -0.000000   -0.000000    0.000000
    0.000000    0.000000    0.017613    0.017615    0.019378    0.185198
    0.185346    0.453775    1.283356    1.283995   20.021538   60.023786
 Highest eigenvalues
    0.185346    0.453775    1.283356    1.283995   20.021538   60.023786
 

........................................................................
.............................. CYCLE   21 ..............................
........................................................................
   1    -13.1419952 -0.131420E+02  0.317E-03    0.20       0.0  T
   2    -13.1419902  0.493889E-05  0.292E-02    0.20       1.4  T
   3    -13.1419952 -0.490716E-05  0.412E-03    0.20       9.9  T
   4    -13.1419952 -0.346996E-07  0.294E-03    0.20      13.9  T
   5    -13.1419952 -0.415820E-07  0.481E-04    0.20      84.8  T
   6    -13.1419952 -0.968184E-09  0.992E-05    0.20     411.4  T
     SCC iter.                  ...        0 min,  0.000 sec
     gradient                   ...        0 min,  0.000 sec
 * total energy  :   -13.0823637 Eh     change       -0.5704719E-07 Eh
   gradient norm :     0.0002339 Eh/α   predicted     0.0000000E+00 (-100.00%)
   displ. norm   :     0.0057589 α      lambda       -0.2521983E-06
   maximum displ.:     0.0039790 α      in ANC's #4, #1, #3, ...

   *** GEOMETRY OPTIMIZATION CONVERGED AFTER 21 ITERATIONS ***

------------------------------------------------------------------------
 total energy gain   :       -15.9800536 Eh   -10027.6350 kcal/mol
 total RMSD          :         0.3935122 a0        0.2082 Å
 total power (kW/mol):     -1997.8868986 (step)********** (real)
------------------------------------------------------------------------

 ANCopt (total)                0 d,  0 h,  0 min,  0.133 sec
 optimizer setup                ...        0 min,  0.000 sec (  0.041%)
 model hessian                  ...        0 min,  0.000 sec (  0.124%)
 ANC generation                 ...        0 min,  0.000 sec (  0.109%)
 coordinate transformation      ...        0 min,  0.000 sec (  0.082%)
 single point calculation       ...        0 min,  0.129 sec ( 97.015%)
 optimization log               ...        0 min,  0.002 sec (  1.274%)
 hessian update                 ...        0 min,  0.000 sec (  0.086%)
 rational function              ...        0 min,  0.001 sec (  0.536%)

================
 final structure:
================
6
 xtb: 6.2.3 (830e466)
F        -3.37697932291789   -0.20299141311508    0.05354840262189
Cl        2.66680792869705    0.14374422691159   -0.06607879101361
C        -0.88281919997900   -0.04681439959978    0.02286622790392
H        -0.82270815415988   -0.62643183304659   -0.87228117799726
H        -0.80962023823550   -0.52691683080511    0.97440050820019
H        -0.91759101340420    1.01935024965520   -0.03373516971369
 
 Bond Distances (Angstroems)
 ---------------------------
C3-H4=1.0681         C3-H5=1.0683         C3-H6=1.0682         H4-C3=1.0681         H5-C3=1.0683         H6-C3=1.0682         
 C  H  Rav=1.0682 sigma=0.0001  Rmin=1.0681  Rmax=1.0683     3
 
 selected bond angles (degree)
 --------------------
H5-C3-H4=119.92                H6-C3-H4=119.94                H6-C3-H5=119.87                
 
 selected dihedral angles (degree)
 ---------------------------------

 
 CMA Distance (Angstroems)
 ---------------------------
R(CMA):  4.9980
           -------------------------------------------------
          |                Final Singlepoint                |
           -------------------------------------------------

          ...................................................
          :                      SETUP                      :
          :.................................................:
          :  # basis functions                  21          :
          :  # atomic orbitals                  20          :
          :  # shells                           10          :
          :  # electrons                        22          :
          :  max. iterations                   250          :
          :  Hamiltonian                  GFN2-xTB          :
          :  restarted?                      false          :
          :  GBSA solvation                  false          :
          :  PC potential                    false          :
          :  electronic temp.          300.0000000     K    :
          :  accuracy                    1.0000000          :
          :  -> integral cutoff          0.2500000E+02      :
          :  -> integral neglect         0.1000000E-07      :
          :  -> SCF convergence          0.1000000E-05 Eh   :
          :  -> wf. convergence          0.1000000E-03 e    :
          :  Broyden damping             0.4000000          :
          ...................................................

 iter      E             dE          RMSdq      gap      omega  full diag
   1    -13.1419952 -0.131420E+02  0.711E-05    0.20       0.0  T
   2    -13.1419952  0.228564E-09  0.188E-04    0.20     217.2  T
   3    -13.1419952  0.558435E-09  0.392E-04    0.20     104.1  T

   *** convergence criteria satisfied after 3 iterations ***

         #    Occupation            Energy/Eh            Energy/eV
      -------------------------------------------------------------
         1        2.0000           -0.8411240             -22.8881
       ...           ...                  ...                  ...
         5        2.0000           -0.3713598             -10.1052
         6        2.0000           -0.2608059              -7.0969
         7        2.0000           -0.2499343              -6.8011
         8        2.0000           -0.2499337              -6.8010
         9        1.9982           -0.2273260              -6.1859
        10        1.9719           -0.2247014              -6.1144
        11        1.9719           -0.2247001              -6.1144 (HOMO)
        12        0.0580           -0.2173254              -5.9137 (LUMO)
        13                          0.2363723               6.4320
        14                          0.2691661               7.3244
        15                          0.2693718               7.3300
        16                          0.2693732               7.3300
       ...                                ...                  ...
        20                          0.4027934              10.9606
      -------------------------------------------------------------
                  HL-Gap            0.0073746 Eh            0.2007 eV
             Fermi-level           -0.2206616 Eh           -6.0045 eV

 SCC (total)                   0 d,  0 h,  0 min,  0.001 sec
 SCC setup                      ...        0 min,  0.000 sec (  5.487%)
 Dispersion                     ...        0 min,  0.000 sec (  0.626%)
 integral evaluation            ...        0 min,  0.000 sec ( 36.697%)
 zeroth order Hamiltonian       ...        0 min,  0.000 sec (  1.547%)
 iterations                     ...        0 min,  0.000 sec ( 21.322%)
 molecular gradient             ...        0 min,  0.000 sec ( 28.448%)
 printout                       ...        0 min,  0.000 sec (  4.327%)

         :::::::::::::::::::::::::::::::::::::::::::::::::::::
         ::                     SUMMARY                     ::
         :::::::::::::::::::::::::::::::::::::::::::::::::::::
         :: total energy             -13.082363688304 Eh    ::
         :: gradient norm              0.000233572813 Eh/a0 ::
         :: HOMO-LUMO gap              0.200674385498 eV    ::
         ::.................................................::
         :: SCC energy               -13.141995232354 Eh    ::
         :: -> isotropic ES            0.163582125376 Eh    ::
         :: -> anisotropic ES         -0.000773979284 Eh    ::
         :: -> anisotropic XC          0.006019615565 Eh    ::
         :: -> dispersion             -0.001600009026 Eh    ::
         :: repulsion energy           0.059612640138 Eh    ::
         :: add. restraining           0.000021781084 Eh    ::
         :::::::::::::::::::::::::::::::::::::::::::::::::::::

           -------------------------------------------------
          |                Property Printout                |
           -------------------------------------------------

    * Orbital Energies and Occupations

         #    Occupation            Energy/Eh            Energy/eV
      -------------------------------------------------------------
         1        2.0000           -0.8411240             -22.8881
         2        2.0000           -0.5370321             -14.6134
         3        2.0000           -0.4683299             -12.7439
         4        2.0000           -0.3714369             -10.1073
         5        2.0000           -0.3713598             -10.1052
         6        2.0000           -0.2608059              -7.0969
         7        2.0000           -0.2499343              -6.8011
         8        2.0000           -0.2499337              -6.8010
         9        1.9982           -0.2273260              -6.1859
        10        1.9719           -0.2247014              -6.1144
        11        1.9719           -0.2247001              -6.1144 (HOMO)
        12        0.0580           -0.2173254              -5.9137 (LUMO)
        13                          0.2363723               6.4320
        14                          0.2691661               7.3244
        15                          0.2693718               7.3300
        16                          0.2693732               7.3300
        17                          0.2702742               7.3545
        18                          0.2702742               7.3545
        19                          0.4020571              10.9405
        20                          0.4027934              10.9606
      -------------------------------------------------------------
                  HL-Gap            0.0073746 Eh            0.2007 eV
             Fermi-level           -0.2206616 Eh           -6.0045 eV

     #   Z        covCN         q      C6AA      α(0)
     1   9 F      0.000    -0.528    15.733     4.620
     2  17 Cl     0.000    -0.712   115.767    16.375
     3   6 C      2.780    -0.044    29.072     8.831
     4   1 H      0.927     0.095     1.829     2.115
     5   1 H      0.927     0.095     1.835     2.119
     6   1 H      0.927     0.095     1.836     2.119

 Mol. C6AA /au·bohr⁶  :        578.024469
 Mol. C8AA /au·bohr⁸  :      16497.076347
 Mol. α(0) /au        :         36.177884


Wiberg/Mayer (AO) data.
largest (>0.10) Wiberg bond orders for each atom
          total WBO             WBO to atom ...
     1  F   0.586        C    3 0.586
     2  Cl  0.285        C    3 0.284
     3  C   3.839        H    5 0.990    H    6 0.990    H    4 0.989    F    1 0.586    Cl   2 0.284
     4  H   0.991        C    3 0.989
     5  H   0.991        C    3 0.990
     6  H   0.991        C    3 0.990

molecular dipole:
                 x           y           z       tot (Debye)
 q only:       -0.605      -0.012       0.045
   full:       -0.546      -0.008       0.044       1.394
molecular quadrupole (traceless):
                xx          xy          yy          xz          yz          zz
 q only:      -39.485      -3.406      19.656       1.171       0.069      19.829
  q+dip:      -40.345      -3.490      20.083       1.180       0.071      20.262
   full:      -39.395      -3.403      19.611       1.161       0.068      19.785

           -------------------------------------------------
          |                Geometry Summary                 |
           -------------------------------------------------

      molecular mass/u    :       69.4858989
   center of mass at/Å    :        0.2477551       0.0078045      -0.0141293
  moments of inertia/u·Å² :        0.3452807E+01   0.4795384E+03   0.4795451E+03
rotational constants/cm⁻¹ :        0.4882298E+01   0.3515388E-01   0.3515338E-01

 * 3 selected distances

     #   Z        #   Z                                     value/Å
     3   6 C      4   1 H                                 1.0681098 (min)
     3   6 C      5   1 H                                 1.0683042 (max)
     3   6 C      6   1 H                                 1.0682321

 * 1 distinct bonds (by element types)

   Z      Z             #   av. dist./Å        max./Å        min./Å
   1 H    6 C           3     1.0682154     1.0683042     1.0681098


optimized geometry written to: xtbopt.xyz


           -------------------------------------------------
          | TOTAL ENERGY              -13.082363688304 Eh   |
          | GRADIENT NORM               0.000233572813 Eh/α |
          | HOMO-LUMO GAP               0.200674385498 eV   |
           -------------------------------------------------

------------------------------------------------------------------------
 * finished run on 2020/04/08 at 13:05:40.142     
------------------------------------------------------------------------
 total:
 * wall-time:     0 d,  0 h,  0 min,  0.165 sec
 *  cpu-time:     0 d,  0 h,  0 min,  0.147 sec
 * ratio c/w:     0.890 speedup
 SCF:
 * wall-time:     0 d,  0 h,  0 min,  0.013 sec
 *  cpu-time:     0 d,  0 h,  0 min,  0.012 sec
 * ratio c/w:     0.881 speedup
 ANC optimizer:
 * wall-time:     0 d,  0 h,  0 min,  0.135 sec
 *  cpu-time:     0 d,  0 h,  0 min,  0.122 sec
 * ratio c/w:     0.900 speedup

