      -----------------------------------------------------------      
     |                   =====================                   |     
     |                           x T B                           |     
     |                   =====================                   |     
     |                         S. Grimme                         |     
     |          Mulliken Center for Theoretical Chemistry        |     
     |                    University of Bonn                     |     
      -----------------------------------------------------------      

   * xtb version 6.2.3 (830e466) compiled by 'ehlert@majestix' on 2020-03-16

   xtb is free software: you can redistribute it and/or modify it under
   the terms of the GNU Lesser General Public License as published by
   the Free Software Foundation, either version 3 of the License, or
   (at your option) any later version.
   
   xtb is distributed in the hope that it will be useful,
   but WITHOUT ANY WARRANTY; without even the implied warranty of
   MERCHANTABILITY or FITNESS FOR A PARTICULAR PURPOSE.  See the
   GNU Lesser General Public License for more details.
   
   Cite this work as:
   * S. Grimme, C. Bannwarth, P. Shushkov, J. Chem. Theory Comput., 2017,
     13, 1989-2009. DOI: 10.1021/acs.jctc.7b00118
   * C. Bannwarth, S. Ehlert and S. Grimme., J. Chem. Theory Comput., 2019,
     15, 1652-1671. DOI: 10.1021/acs.jctc.8b01176
   * P. Pracht, E. Caldeweyher, S. Ehlert, S. Grimme, ChemRxiv, 2019, preprint.
     DOI: 10.26434/chemrxiv.8326202.v1
   
   for DFT-D4:
   * E. Caldeweyher, C. Bannwarth and S. Grimme, J. Chem. Phys., 2017,
     147, 034112. DOI: 10.1063/1.4993215
   * E. Caldeweyher, S. Ehlert, A. Hansen, H. Neugebauer, S. Spicher,
     C. Bannwarth and S. Grimme, J. Chem. Phys., 2019, 150, 154122.
     DOI: 10.1063/1.5090222
   
   for sTDA-xTB:
   * S. Grimme and C. Bannwarth, J. Chem. Phys., 2016, 145, 054103.
     DOI: 10.1063/1.4959605
   
   in the mass-spec context:
   * V. Asgeirsson, C. Bauer and S. Grimme, Chem. Sci., 2017, 8, 4879.
     DOI: 10.1039/c7sc00601b
   
   for metadynamics refer to:
   * S. Grimme, J. Chem. Theory Comput., 2019, 155, 2847-2862
     DOI: 10.1021/acs.jctc.9b00143
   
   with help from (in alphabetical order)
   C. Bannwarth, F. Bohle, G. Brandenburg, E. Caldeweyher, M. Checinski,
   S. Dohm, S. Ehlert, S. Ehrlich, F. März, H. Neugebauer, J. Pisarek,
   P. Pracht, P. Shushkov, and S. Spicher.
   
 * started run on 2020/04/08 at 13:05:41.405     

           -------------------------------------------------
          |                Calculation Setup                |
           -------------------------------------------------

          program call               : /home/tom/.local/bin/xtb SN2_PES_scan_4-5_xtb.xyz --chrg -1 --opt --input xcontrol_SN2_PES_scan_4-5
          coordinate file            : SN2_PES_scan_4-5_xtb.xyz
          omp threads                :                     4
          number of atoms            :                     6
          number of electrons        :                    22
          charge                     :                    -1
          spin                       :                   0.0
          first test random number   :      0.29260955372444

constraining bond 1 3 to    2.0000000 Å, actual value:    2.4992334 Å
constraining bond 2 3 to    4.0000000 Å, actual value:    3.5558536 Å

molecular fragmentation (1/2 indicates fragments):
122222
# atoms in fragment 1/2:     1     5
 fragment masses (1/2) :       19.00       50.49
CMA distance (Bohr)    :   9.445
constraining FC (au)   : 10.0000
########################################################################
[WARNING] Please study the warnings concerning your input carefully
-2- prog_main: XTBPATH is not set, using XTBHOME instead
-1- prog_main: XTBHOME is not set, using HOME instead
########################################################################
           ------------------------------------------------- 
          |                 G F N 2 - x T B                 |
          | Geometry, Frequencies, Noncovalent interactions |
          |            JCTC 2019 parametrisation            |
           ------------------------------------------------- 
             k(s)              :                1.8500
             k(p)              :                2.2300
             k(d)              :                2.2300
             k(f)              :                2.0000
             kEN (H0ij)        :               -2.0000
             D4 a1             :                0.5200
             D4 a2             :                5.0000
             D4 s6             :                1.0000
             D4 s8             :                2.7000
             D4 s9             :                5.0000
             alphaj            :                2.0000

  Z AO/shell   Hii/eV     exponent
  1     Wed Apr 25 08:07:45 CEST 2018   EN: 2.200 GM2: 0.406  GM3: 0.0800  RAES: 1.40
     1s    -10.707211    1.230000
  6     Wed Apr 25 08:07:45 CEST 2018   EN: 2.550 GM2: 0.538  GM3: 0.1500  RAES: 3.00
     2s    -13.970922    2.096432
     2p    -10.063292    1.800000
  9     Mon Apr 23 13:58:50 CEST 2018   EN: 3.980 GM2: 0.532  GM3: 0.1426  RAES: 2.40
     2s    -23.458179    2.416361
     2p    -15.746583    2.308399
 17     Mon Apr 23 14:09:22 CEST 2018   EN: 3.160 GM2: 0.249  GM3: 0.1495  RAES: 2.50
     3s    -29.278781    2.485265
     3p    -12.673758    2.199650
     3d     -0.240338    2.476089

           ------------------------------------------------- 
          |        Self-Consistent Charge Iterations        |
           ------------------------------------------------- 

          ...................................................
          :                      SETUP                      :
          :.................................................:
          :  # basis functions                  21          :
          :  # atomic orbitals                  20          :
          :  # shells                           10          :
          :  # electrons                        22          :
          :  max. iterations                   250          :
          :  Hamiltonian                  GFN2-xTB          :
          :  restarted?                      false          :
          :  GBSA solvation                  false          :
          :  PC potential                    false          :
          :  electronic temp.          300.0000000     K    :
          :  accuracy                    1.0000000          :
          :  -> integral cutoff          0.2500000E+02      :
          :  -> integral neglect         0.1000000E-07      :
          :  -> SCF convergence          0.1000000E-05 Eh   :
          :  -> wf. convergence          0.1000000E-03 e    :
          :  Broyden damping             0.4000000          :
          ...................................................

 iter      E             dE          RMSdq      gap      omega  full diag
   1    -12.9719903 -0.129720E+02  0.859E+00    1.57       0.0  T
   2    -12.2897703  0.682220E+00  0.101E+01    0.08       1.0  T
   3    -13.0022840 -0.712514E+00  0.668E+00    0.41       1.0  T
   4    -12.3879365  0.614348E+00  0.107E+01    0.00       1.0  T
   5    -13.0499298 -0.661993E+00  0.465E+00    0.29       1.0  T
   6    -13.0921368 -0.422070E-01  0.327E+00    1.12       1.0  T
   7    -13.1265453 -0.344085E-01  0.157E+00    0.39       1.0  T
   8    -13.1244665  0.207878E-02  0.167E+00    0.41       1.0  T
   9    -13.1298393 -0.537283E-02  0.146E+00    0.48       1.0  T
  10    -13.1367990 -0.695968E-02  0.109E+00    0.24       1.0  T
  11    -13.1348954  0.190359E-02  0.109E+00    0.34       1.0  T
  12    -13.1387467 -0.385127E-02  0.773E-01    0.27       1.0  T
  13    -13.1382216  0.525137E-03  0.817E-01    0.27       1.0  T
  14    -13.1400309 -0.180933E-02  0.614E-01    0.25       1.0  T
  15    -13.1399228  0.108042E-03  0.587E-01    0.25       1.0  T
  16    -13.1412151 -0.129228E-02  0.366E-01    0.23       1.0  T
  17    -13.1418385 -0.623382E-03  0.167E-01    0.21       1.0  T
  18    -13.1419770 -0.138534E-03  0.612E-02    0.20       1.0  T
  19    -13.1419935 -0.164946E-04  0.253E-02    0.20       1.6  T
  20    -13.1419944 -0.847887E-06  0.179E-02    0.20       2.3  T
  21    -13.1419950 -0.669263E-06  0.106E-02    0.20       3.9  T
  22    -13.1419945  0.561493E-06  0.129E-02    0.20       3.2  T
  23    -13.1419952 -0.699296E-06  0.560E-03    0.20       7.3  T
  24    -13.1419953 -0.143066E-06  0.264E-03    0.20      15.5  T
  25    -13.1419954 -0.401608E-07  0.589E-04    0.20      69.3  T
  26    -13.1419954 -0.211672E-08  0.804E-05    0.20     507.5  T

   *** convergence criteria satisfied after 26 iterations ***

         #    Occupation            Energy/Eh            Energy/eV
      -------------------------------------------------------------
         1        2.0000           -0.8411237             -22.8881
       ...           ...                  ...                  ...
         5        2.0000           -0.3713595             -10.1052
         6        2.0000           -0.2608066              -7.0969
         7        2.0000           -0.2499351              -6.8011
         8        2.0000           -0.2499345              -6.8011
         9        1.9982           -0.2273258              -6.1859
        10        1.9719           -0.2247011              -6.1144
        11        1.9719           -0.2246998              -6.1144 (HOMO)
        12        0.0580           -0.2173260              -5.9137 (LUMO)
        13                          0.2363726               6.4320
        14                          0.2691665               7.3244
        15                          0.2693723               7.3300
        16                          0.2693736               7.3300
       ...                                ...                  ...
        20                          0.4027866              10.9604
      -------------------------------------------------------------
                  HL-Gap            0.0073739 Eh            0.2007 eV
             Fermi-level           -0.2206618 Eh           -6.0045 eV

 SCC (total)                   0 d,  0 h,  0 min,  0.004 sec
 SCC setup                      ...        0 min,  0.000 sec (  1.812%)
 Dispersion                     ...        0 min,  0.000 sec (  0.397%)
 integral evaluation            ...        0 min,  0.001 sec ( 16.464%)
 zeroth order Hamiltonian       ...        0 min,  0.000 sec (  0.426%)
 iterations                     ...        0 min,  0.002 sec ( 56.391%)
 molecular gradient             ...        0 min,  0.001 sec ( 22.468%)
 printout                       ...        0 min,  0.000 sec (  1.492%)

         :::::::::::::::::::::::::::::::::::::::::::::::::::::
         ::                     SUMMARY                     ::
         :::::::::::::::::::::::::::::::::::::::::::::::::::::
         :: total energy               2.862417562973 Eh    ::
         :: gradient norm             43.721118487208 Eh/a0 ::
         :: HOMO-LUMO gap              0.200653270095 eV    ::
         ::.................................................::
         :: SCC energy               -13.141995369069 Eh    ::
         :: -> isotropic ES            0.163579875768 Eh    ::
         :: -> anisotropic ES         -0.000773433291 Eh    ::
         :: -> anisotropic XC          0.006019505917 Eh    ::
         :: -> dispersion             -0.001600008278 Eh    ::
         :: repulsion energy           0.059612802768 Eh    ::
         :: add. restraining          15.944802995891 Eh    ::
         :::::::::::::::::::::::::::::::::::::::::::::::::::::

      ----------------------------------------------------------- 
     |                   =====================                   |
     |                        A N C O P T                        |
     |                   =====================                   |
     |               Approximate Normal Coordinate               |
     |                Rational Function Optimizer                |
      ----------------------------------------------------------- 

          ...................................................
          :                      SETUP                      :
          :.................................................:
          :   optimization level            normal          :
          :   max. optcycles                   200          :
          :   ANC micro-cycles                  20          :
          :   degrees of freedom                12          :
          :.................................................:
          :   RF solver                   davidson          :
          :   write xtbopt.log                true          :
          :   linear?                        false          :
          :   energy convergence         0.5000000E-05 Eh   :
          :   grad. convergence          0.1000000E-02 Eh/α :
          :   maximium RF displ.         1.0000000          :
          :   Hlow (freq-cutoff)         0.1000000E-01      :
          :   Hmax (freq-cutoff)         5.0000000          :
          :   S6 in model hess.         20.0000000          :
          ...................................................

generating ANC from model Hessian ...
Using Lindh-Hessian (1995)
 Shifting diagonal of input Hessian by   0.568068089399936     
 Lowest  eigenvalues of input Hessian
    0.010000    0.010375   -0.000000   -0.000000   -0.000000    0.000000
    0.000000    0.000000    0.571529    0.718804    0.718915    1.005927
    1.275653    1.276071    5.030330    5.031070   20.573949   60.576053
 Highest eigenvalues
    1.275653    1.276071    5.030330    5.031070   20.573949   60.576053
 

........................................................................
.............................. CYCLE    1 ..............................
........................................................................
   1    -13.1419954 -0.131420E+02  0.113E-04    0.20       0.0  T
   2    -13.1419954  0.938946E-08  0.129E-03    0.20      31.8  T
   3    -13.1419954 -0.943578E-08  0.722E-05    0.20     565.8  T
   4    -13.1419954 -0.278053E-10  0.330E-05    0.20    1238.1  T
     SCC iter.                  ...        0 min,  0.000 sec
     gradient                   ...        0 min,  0.000 sec
 * total energy  :     2.8624176 Eh     change        0.2812781E-08 Eh
   gradient norm :    43.7211186 Eh/α   predicted     0.0000000E+00 (-100.00%)
   displ. norm   :     0.9444530 α      lambda       -0.4129253E+02
   maximum displ.:     0.9439011 α      in ANC's #9, #12, #11, ...

........................................................................
.............................. CYCLE    2 ..............................
........................................................................
   1    -13.1243274 -0.131243E+02  0.253E+00    2.75       0.0  T
   2    -13.1379842 -0.136568E-01  0.149E+00    0.93       1.0  T
   3    -13.0984579  0.395263E-01  0.237E+00    0.09       1.0  T
   4    -13.1380302 -0.395723E-01  0.102E+00    0.82       1.0  T
   5    -13.1392657 -0.123545E-02  0.593E-01    0.47       1.0  T
   6    -13.1394315 -0.165860E-03  0.555E-01    0.41       1.0  T
   7    -13.1400107 -0.579219E-03  0.416E-01    0.16       1.0  T
   8    -13.1122805  0.277303E-01  0.178E+00    0.10       1.0  T
   9    -13.0090195  0.103261E+00  0.372E+00    0.06       1.0  T
  10    -13.1415173 -0.132498E+00  0.666E-02    0.19       1.0  T
  11    -13.1415040  0.132886E-04  0.559E-02    0.20       1.0  T
  12    -13.1408862  0.617741E-03  0.275E-01    0.24       1.0  T
  13    -13.1408762  0.100202E-04  0.277E-01    0.24       1.0  T
  14    -13.1410296 -0.153366E-03  0.242E-01    0.23       1.0  T
  15    -13.1411713 -0.141693E-03  0.204E-01    0.23       1.0  T
  16    -13.1413333 -0.161991E-03  0.149E-01    0.21       1.0  T
  17    -13.1414262 -0.929667E-04  0.105E-01    0.21       1.0  T
  18    -13.1414908 -0.646156E-04  0.579E-02    0.20       1.0  T
  19    -13.1415147 -0.238986E-04  0.231E-02    0.20       1.8  T
  20    -13.1415191 -0.439231E-05  0.462E-03    0.19       8.8  T
  21    -13.1415193 -0.182067E-06  0.214E-04    0.19     190.9  T
     SCC iter.                  ...        0 min,  0.003 sec
     gradient                   ...        0 min,  0.001 sec
 * total energy  :   -11.6929451 Eh     change       -0.1455536E+02 Eh
   gradient norm :    12.9821216 Eh/α   predicted    -0.3906256E+02 ( 168.37%)
   displ. norm   :     0.2431090 α      lambda       -0.2795813E+01
   maximum displ.:     0.2071928 α      in ANC's #9, #12, #3, ...

........................................................................
.............................. CYCLE    3 ..............................
........................................................................
   1    -12.2258023 -0.122258E+02  0.982E+00    0.00       0.0  T
   2    -12.8592176 -0.633415E+00  0.749E+00    4.54       1.0  T
   3    -13.1250344 -0.265817E+00  0.355E+00    2.60       1.0  T
   4    -13.1286799 -0.364557E-02  0.289E+00    3.09       1.0  T
   5    -13.1429716 -0.142916E-01  0.203E+00    2.80       1.0  T
   6    -13.1465202 -0.354868E-02  0.138E+00    1.37       1.0  T
   7    -13.1492494 -0.272918E-02  0.987E-01    0.76       1.0  T
   8    -13.1500349 -0.785435E-03  0.844E-01    0.52       1.0  T
   9    -13.1505994 -0.564512E-03  0.758E-01    0.40       1.0  T
  10    -12.2172313  0.933368E+00  0.102E+01    0.00       1.0  T
  11    -13.1522146 -0.934983E+00  0.600E-01    0.28       1.0  T
  12    -13.1499930  0.222157E-02  0.866E-01    0.56       1.0  T
  13    -13.1521201 -0.212706E-02  0.590E-01    0.29       1.0  T
  14    -13.1524528 -0.332764E-03  0.546E-01    0.27       1.0  T
  15    -13.1523889  0.639354E-04  0.551E-01    0.28       1.0  T
  16    -13.1545586 -0.216974E-02  0.164E-01    0.18       1.0  T
  17    -13.1514778  0.308082E-02  0.644E-01    0.33       1.0  T
  18    -13.1545993 -0.312147E-02  0.106E-01    0.18       1.0  T
  19    -13.1524865  0.211277E-02  0.520E-01    0.27       1.0  T
  20    -13.1544053 -0.191877E-02  0.168E-01    0.17       1.0  T
  21    -13.1526249  0.178036E-02  0.500E-01    0.26       1.0  T
  22    -13.1543133 -0.168841E-02  0.192E-01    0.17       1.0  T
  23    -13.1530116  0.130170E-02  0.446E-01    0.25       1.0  T
  24    -13.1543080 -0.129637E-02  0.190E-01    0.17       1.0  T
  25    -13.1534245  0.883535E-03  0.382E-01    0.23       1.0  T
  26    -13.1543702 -0.945764E-03  0.169E-01    0.17       1.0  T
  27    -13.1538202  0.550010E-03  0.311E-01    0.22       1.0  T
  28    -13.1544618 -0.641587E-03  0.132E-01    0.17       1.0  T
  29    -13.1541551  0.306686E-03  0.235E-01    0.21       1.0  T
  30    -13.1545411 -0.385990E-03  0.899E-02    0.18       1.0  T
  31    -13.1543916  0.149515E-03  0.162E-01    0.20       1.0  T
  32    -13.1545872 -0.195656E-03  0.510E-02    0.18       1.0  T
  33    -13.1545243  0.629853E-04  0.101E-01    0.19       1.0  T
  34    -13.1546049 -0.806199E-04  0.223E-02    0.18       1.8  T
  35    -13.1545824  0.225212E-04  0.566E-02    0.19       1.0  T
  36    -13.1546090 -0.265948E-04  0.249E-03    0.18      16.4  T
  37    -13.1546011  0.783488E-05  0.307E-02    0.19       1.3  T
  38    -13.1546066 -0.549080E-05  0.168E-02    0.18       2.4  T
  39    -13.1546082 -0.159380E-05  0.954E-03    0.18       4.3  T
  40    -13.1546088 -0.626733E-06  0.396E-03    0.18      10.3  T
  41    -13.1546090 -0.127526E-06  0.593E-04    0.18      68.9  T
     SCC iter.                  ...        0 min,  0.005 sec
     gradient                   ...        0 min,  0.001 sec
 * total energy  :   -13.0405462 Eh     change       -0.1347601E+01 Eh
   gradient norm :     1.7146804 Eh/α   predicted    -0.1480526E+01 (   9.86%)
   displ. norm   :     0.2742451 α      lambda       -0.4611993E+00
   maximum displ.:     0.2655472 α      in ANC's #12, #9, #3, ...

........................................................................
.............................. CYCLE    4 ..............................
........................................................................
   1    -12.2693005 -0.122693E+02  0.995E+00    0.00       0.0  T
   2    -12.8299277 -0.560627E+00  0.786E+00    3.88       1.0  T
   3    -13.1072281 -0.277300E+00  0.397E+00    1.71       1.0  T
   4    -13.1158703 -0.864224E-02  0.320E+00    2.33       1.0  T
   5    -13.1341056 -0.182353E-01  0.221E+00    2.19       1.0  T
   6    -13.1356159 -0.151022E-02  0.172E+00    1.17       1.0  T
   7    -13.1446838 -0.906791E-02  0.863E-01    0.24       1.0  T
   8    -13.1426786  0.200519E-02  0.101E+00    0.28       1.0  T
   9    -12.2859610  0.856718E+00  0.956E+00    0.00       1.0  T
  10    -13.1401883 -0.854227E+00  0.120E+00    0.46       1.0  T
  11    -13.1421151 -0.192680E-02  0.103E+00    0.31       1.0  T
  12    -13.1432864 -0.117130E-02  0.949E-01    0.27       1.0  T
  13    -13.1503171 -0.703066E-02  0.810E-02    0.15       1.0  T
  14    -13.1502951  0.220164E-04  0.694E-02    0.15       1.0  T
  15    -13.1491287  0.116632E-02  0.375E-01    0.13       1.0  T
  16    -13.1497521 -0.623334E-03  0.264E-01    0.17       1.0  T
  17    -13.1461968  0.355526E-02  0.698E-01    0.12       1.0  T
  18    -13.1481850 -0.198820E-02  0.512E-01    0.19       1.0  T
  19    -13.1481618  0.231982E-04  0.506E-01    0.13       1.0  T
  20    -13.1493965 -0.123466E-02  0.335E-01    0.17       1.0  T
  21    -13.1495649 -0.168460E-03  0.300E-01    0.14       1.0  T
  22    -13.1500914 -0.526500E-03  0.167E-01    0.16       1.0  T
  23    -13.1501300 -0.385787E-04  0.151E-01    0.14       1.0  T
  24    -13.1502886 -0.158617E-03  0.619E-02    0.15       1.0  T
  25    -13.1502887 -0.831494E-07  0.616E-02    0.15       1.0  T
  26    -13.1503186 -0.298622E-04  0.145E-02    0.15       2.8  T
  27    -13.1503170  0.151984E-05  0.198E-02    0.15       2.1  T
  28    -13.1503202 -0.310734E-05  0.424E-03    0.15       9.6  T
  29    -13.1503200  0.168016E-06  0.618E-03    0.15       6.6  T
  30    -13.1503203 -0.316173E-06  0.400E-04    0.15     102.2  T
     SCC iter.                  ...        0 min,  0.005 sec
     gradient                   ...        0 min,  0.001 sec
 * total energy  :   -12.7327750 Eh     change        0.3077712E+00 Eh
   gradient norm :     4.3154406 Eh/α   predicted    -0.2479432E+00 (-180.56%)
   displ. norm   :     0.1818762 α      lambda       -0.7344334E+00
   maximum displ.:     0.1767890 α      in ANC's #12, #9, #3, ...

........................................................................
.............................. CYCLE    5 ..............................
........................................................................
   1    -13.1532712 -0.131533E+02  0.104E+00    0.69       0.0  T
   2    -12.2382544  0.915017E+00  0.982E+00    0.00       1.0  T
   3    -13.1532540 -0.915000E+00  0.102E+00    0.56       1.0  T
   4    -13.1541245 -0.870494E-03  0.915E-01    0.48       1.0  T
   5    -13.1545815 -0.456986E-03  0.855E-01    0.37       1.0  T
   6    -13.1558159 -0.123438E-02  0.730E-01    0.29       1.0  T
   7    -13.1566296 -0.813730E-03  0.643E-01    0.26       1.0  T
   8    -12.8461866  0.310443E+00  0.582E+00    0.03       1.0  T
   9    -13.1540415 -0.307855E+00  0.911E-01    0.44       1.0  T
  10    -13.1565078 -0.246632E-02  0.647E-01    0.26       1.0  T
  11    -13.1570419 -0.534148E-03  0.592E-01    0.25       1.0  T
  12    -13.1580285 -0.986579E-03  0.472E-01    0.22       1.0  T
  13    -13.1597561 -0.172756E-02  0.901E-02    0.18       1.0  T
  14    -13.1598235 -0.674059E-04  0.557E-03    0.17       7.3  T
  15    -13.1598227  0.728084E-06  0.106E-02    0.17       3.8  T
  16    -13.1598231 -0.386535E-06  0.809E-03    0.17       5.0  T
  17    -13.1598236 -0.444185E-06  0.328E-03    0.17      12.4  T
  18    -13.1598237 -0.881077E-07  0.409E-04    0.17      99.9  T
     SCC iter.                  ...        0 min,  0.002 sec
     gradient                   ...        0 min,  0.001 sec
 * total energy  :   -13.1127747 Eh     change       -0.3799997E+00 Eh
   gradient norm :     0.1429292 Eh/α   predicted    -0.3793639E+00 (  -0.17%)
   displ. norm   :     0.0638058 α      lambda       -0.3415048E-02
   maximum displ.:     0.0591763 α      in ANC's #3, #6, #12, ...

........................................................................
.............................. CYCLE    6 ..............................
........................................................................
   1    -13.1669274 -0.131669E+02  0.144E-01    0.18       0.0  T
   2    -13.0377452  0.129182E+00  0.381E+00    0.06       1.0  T
   3    -13.1670659 -0.129321E+00  0.643E-02    0.17       1.0  T
   4    -13.1670472  0.187069E-04  0.741E-02    0.17       1.0  T
   5    -13.1669785  0.686278E-04  0.119E-01    0.16       1.0  T
   6    -13.1669479  0.306477E-04  0.129E-01    0.16       1.0  T
   7    -13.1670385 -0.906166E-04  0.747E-02    0.17       1.0  T
   8    -13.1670789 -0.403852E-04  0.247E-02    0.17       1.6  T
   9    -13.1670838 -0.495136E-05  0.960E-05    0.17     425.5  T
  10    -13.1670838  0.229750E-09  0.185E-04    0.17     220.9  T
     SCC iter.                  ...        0 min,  0.002 sec
     gradient                   ...        0 min,  0.001 sec
 * total energy  :   -13.1153571 Eh     change       -0.2582432E-02 Eh
   gradient norm :     0.0283298 Eh/α   predicted    -0.1714481E-02 ( -33.61%)
   displ. norm   :     0.1339358 α      lambda       -0.3476693E-02
   maximum displ.:     0.1203508 α      in ANC's #3, #1, #6, ...

........................................................................
.............................. CYCLE    7 ..............................
........................................................................
   1    -13.1781043 -0.131781E+02  0.164E-01    0.16       0.0  T
   2    -13.1756003  0.250391E-02  0.563E-01    0.25       1.0  T
   3    -13.1779111 -0.231075E-02  0.237E-01    0.16       1.0  T
   4    -13.1781850 -0.273881E-03  0.953E-02    0.17       1.0  T
   5    -13.1780881  0.968745E-04  0.132E-01    0.16       1.0  T
   6    -13.1781624 -0.742957E-04  0.811E-02    0.18       1.0  T
   7    -13.1782163 -0.539537E-04  0.146E-02    0.17       2.8  T
   8    -13.1782166 -0.248252E-06  0.135E-02    0.17       3.0  T
   9    -13.1782180 -0.141816E-05  0.277E-03    0.17      14.7  T
  10    -13.1782181 -0.545751E-07  0.974E-04    0.17      41.9  T
     SCC iter.                  ...        0 min,  0.002 sec
     gradient                   ...        0 min,  0.001 sec
 * total energy  :   -13.1174580 Eh     change       -0.2100858E-02 Eh
   gradient norm :     0.0721800 Eh/α   predicted    -0.1769524E-02 ( -15.77%)
   displ. norm   :     0.3856816 α      lambda       -0.3110475E-02
   maximum displ.:     0.3426408 α      in ANC's #1, #3, #2, ...

........................................................................
.............................. CYCLE    8 ..............................
........................................................................
   1    -13.1830356 -0.131830E+02  0.541E-01    0.15       0.0  T
   2    -13.1786156  0.442000E-02  0.932E-01    0.49       1.0  T
   3    -13.1834077 -0.479219E-02  0.385E-01    0.21       1.0  T
   4    -13.1717240  0.116837E-01  0.123E+00    0.11       1.0  T
   5    -13.1794699 -0.774590E-02  0.813E-01    0.37       1.0  T
   6    -13.1825397 -0.306979E-02  0.469E-01    0.23       1.0  T
   7    -13.1833201 -0.780331E-03  0.340E-01    0.21       1.0  T
   8    -13.1838302 -0.510127E-03  0.222E-01    0.16       1.0  T
   9    -13.1841868 -0.356591E-03  0.705E-02    0.18       1.0  T
  10    -13.1842210 -0.342508E-04  0.259E-02    0.17       1.6  T
  11    -13.1842263 -0.532345E-05  0.152E-03    0.17      26.9  T
  12    -13.1842263  0.266557E-08  0.157E-03    0.17      26.0  T
     SCC iter.                  ...        0 min,  0.002 sec
     gradient                   ...        0 min,  0.001 sec
 * total energy  :   -13.1146250 Eh     change        0.2833009E-02 Eh
   gradient norm :     0.1075188 Eh/α   predicted    -0.1786640E-02 (-163.07%)
   displ. norm   :     0.2462783 α      lambda       -0.6551313E-02
   maximum displ.:     0.2371970 α      in ANC's #1, #2, #6, ...

........................................................................
.............................. CYCLE    9 ..............................
........................................................................
   1    -13.1835745 -0.131836E+02  0.292E-01    0.18       0.0  T
   2    -13.0580376  0.125537E+00  0.383E+00    0.06       1.0  T
   3    -13.1836468 -0.125609E+00  0.188E-01    0.18       1.0  T
   4    -13.1836803 -0.335510E-04  0.905E-02    0.18       1.0  T
   5    -13.1837192 -0.388542E-04  0.512E-02    0.18       1.0  T
   6    -13.1837177  0.144330E-05  0.488E-02    0.18       1.0  T
   7    -13.1837324 -0.146621E-04  0.232E-02    0.17       1.8  T
   8    -13.1837363 -0.395328E-05  0.608E-03    0.17       6.7  T
   9    -13.1837366 -0.261498E-06  0.169E-03    0.17      24.1  T
  10    -13.1837366 -0.166323E-07  0.870E-04    0.17      46.9  T
     SCC iter.                  ...        0 min,  0.001 sec
     gradient                   ...        0 min,  0.001 sec
 * total energy  :   -13.1186080 Eh     change       -0.3982994E-02 Eh
   gradient norm :     0.0416979 Eh/α   predicted    -0.3474332E-02 ( -12.77%)
   displ. norm   :     0.0682348 α      lambda       -0.7248250E-03
   maximum displ.:     0.0474837 α      in ANC's #1, #2, #6, ...

........................................................................
.............................. CYCLE   10 ..............................
........................................................................
   1    -13.1809642 -0.131810E+02  0.159E-01    0.18       0.0  T
   2    -13.0889591  0.920051E-01  0.329E+00    0.07       1.0  T
   3    -13.1808413 -0.918822E-01  0.184E-01    0.19       1.0  T
   4    -13.1809893 -0.147929E-03  0.125E-01    0.18       1.0  T
   5    -13.1810057 -0.164317E-04  0.107E-01    0.18       1.0  T
   6    -13.1810668 -0.610427E-04  0.592E-02    0.18       1.0  T
   7    -13.1810917 -0.249458E-04  0.175E-02    0.17       2.3  T
   8    -13.1810941 -0.236431E-05  0.178E-03    0.17      22.9  T
   9    -13.1810941 -0.179149E-07  0.914E-04    0.17      44.7  T
     SCC iter.                  ...        0 min,  0.002 sec
     gradient                   ...        0 min,  0.000 sec
 * total energy  :   -13.1190512 Eh     change       -0.4432062E-03 Eh
   gradient norm :     0.0155658 Eh/α   predicted    -0.3641019E-03 ( -17.85%)
   displ. norm   :     0.1868930 α      lambda       -0.8008496E-03
   maximum displ.:     0.1536030 α      in ANC's #2, #1, #3, ...

........................................................................
.............................. CYCLE   11 ..............................
........................................................................
   1    -13.1765297 -0.131765E+02  0.277E-01    0.18       0.0  T
   2    -12.9483383  0.228191E+00  0.514E+00    0.04       1.0  T
   3    -13.1759053 -0.227567E+00  0.350E-01    0.21       1.0  T
   4    -13.1763529 -0.447659E-03  0.258E-01    0.19       1.0  T
   5    -13.1764218 -0.688537E-04  0.217E-01    0.19       1.0  T
   6    -13.1766358 -0.214049E-03  0.141E-01    0.18       1.0  T
   7    -13.1767599 -0.124101E-03  0.624E-02    0.18       1.0  T
   8    -13.1767886 -0.287091E-04  0.139E-02    0.17       2.9  T
   9    -13.1767901 -0.151234E-05  0.193E-03    0.17      21.2  T
  10    -13.1767901  0.351482E-07  0.285E-03    0.17      14.3  T
     SCC iter.                  ...        0 min,  0.002 sec
     gradient                   ...        0 min,  0.001 sec
 * total energy  :   -13.1184150 Eh     change        0.6361478E-03 Eh
   gradient norm :     0.0585517 Eh/α   predicted    -0.4144142E-03 (-165.14%)
   displ. norm   :     0.1500886 α      lambda       -0.1867223E-02
   maximum displ.:     0.1276488 α      in ANC's #2, #1, #3, ...

........................................................................
.............................. CYCLE   12 ..............................
........................................................................
   1    -13.1779343 -0.131779E+02  0.143E-01    0.17       0.0  T
   2    -13.1778009  0.133446E-03  0.157E-01    0.18       1.0  T
   3    -13.1734712  0.432967E-02  0.750E-01    0.13       1.0  T
   4    -13.1779343 -0.446312E-02  0.533E-02    0.17       1.0  T
   5    -13.1779422 -0.790088E-05  0.200E-02    0.17       2.0  T
   6    -13.1779423 -0.755742E-07  0.178E-02    0.17       2.3  T
   7    -13.1779448 -0.253199E-05  0.162E-03    0.17      25.2  T
   8    -13.1779448 -0.184357E-07  0.246E-04    0.17     166.2  T
     SCC iter.                  ...        0 min,  0.001 sec
     gradient                   ...        0 min,  0.001 sec
 * total energy  :   -13.1193904 Eh     change       -0.9753376E-03 Eh
   gradient norm :     0.0129198 Eh/α   predicted    -0.9546386E-03 (  -2.12%)
   displ. norm   :     0.0164797 α      lambda       -0.3276555E-04
   maximum displ.:     0.0162813 α      in ANC's #1, #2, #3, ...

........................................................................
.............................. CYCLE   13 ..............................
........................................................................
   1    -13.1780373 -0.131780E+02  0.214E-02    0.17       0.0  T
   2    -13.1777651  0.272228E-03  0.185E-01    0.16       1.0  T
   3    -13.1780391 -0.274038E-03  0.982E-03    0.17       4.2  T
   4    -13.1780386  0.539317E-06  0.931E-03    0.17       4.4  T
   5    -13.1780391 -0.586110E-06  0.157E-03    0.17      26.0  T
   6    -13.1780392 -0.810800E-08  0.341E-04    0.17     119.6  T
     SCC iter.                  ...        0 min,  0.001 sec
     gradient                   ...        0 min,  0.001 sec
 * total energy  :   -13.1194093 Eh     change       -0.1894692E-04 Eh
   gradient norm :     0.0020047 Eh/α   predicted    -0.1638758E-04 ( -13.51%)
   displ. norm   :     0.0048500 α      lambda       -0.3615251E-05
   maximum displ.:     0.0032801 α      in ANC's #3, #1, #6, ...

........................................................................
.............................. CYCLE   14 ..............................
........................................................................
   1    -13.1778432 -0.131778E+02  0.150E-02    0.17       0.0  T
   2    -13.1776930  0.150206E-03  0.138E-01    0.16       1.0  T
   3    -13.1778408 -0.147780E-03  0.214E-02    0.17       1.9  T
   4    -13.1778441 -0.337741E-05  0.607E-03    0.17       6.7  T
   5    -13.1778443 -0.208242E-06  0.480E-04    0.17      85.0  T
   6    -13.1778443  0.167114E-08  0.517E-04    0.17      78.9  T
     SCC iter.                  ...        0 min,  0.001 sec
     gradient                   ...        0 min,  0.001 sec
 * total energy  :   -13.1194114 Eh     change       -0.2057077E-05 Eh
   gradient norm :     0.0007752 Eh/α   predicted    -0.1808603E-05 ( -12.08%)
   displ. norm   :     0.0017272 α      lambda       -0.3917137E-06
   maximum displ.:     0.0011860 α      in ANC's #1, #8, #4, ...

   *** GEOMETRY OPTIMIZATION CONVERGED AFTER 14 ITERATIONS ***

------------------------------------------------------------------------
 total energy gain   :       -15.9818289 Eh   -10028.7491 kcal/mol
 total RMSD          :         0.3587072 a0        0.1898 Å
 total power (kW/mol):     -2997.1632948 (step)********** (real)
------------------------------------------------------------------------

 ANCopt (total)                0 d,  0 h,  0 min,  0.051 sec
 optimizer setup                ...        0 min,  0.000 sec (  0.114%)
 model hessian                  ...        0 min,  0.000 sec (  0.186%)
 ANC generation                 ...        0 min,  0.000 sec (  0.129%)
 coordinate transformation      ...        0 min,  0.000 sec (  0.134%)
 single point calculation       ...        0 min,  0.048 sec ( 93.843%)
 optimization log               ...        0 min,  0.000 sec (  0.670%)
 hessian update                 ...        0 min,  0.002 sec (  3.311%)
 rational function              ...        0 min,  0.000 sec (  0.777%)

================
 final structure:
================
6
 xtb: 6.2.3 (830e466)
F        -3.08709524776607   -0.18663475463718    0.04829209987835
Cl        2.90028051042982    0.15290205869606   -0.07411569245756
C        -1.09278456231935   -0.05856381326566    0.02727443177721
H        -0.92315247181084   -0.62725467980154   -0.86389727442567
H        -0.91401002011721   -0.52987718113474    0.97232719498887
H        -1.02614820841607    1.00936837014296   -0.03116075976163
 
 Bond Distances (Angstroems)
 ---------------------------
C3-H4=1.0707         C3-H5=1.0711         C3-H6=1.0716         H4-C3=1.0707         H5-C3=1.0711         H6-C3=1.0716         
 C  H  Rav=1.0711 sigma=0.0004  Rmin=1.0707  Rmax=1.0716     3
 
 selected bond angles (degree)
 --------------------
H5-C3-H4=118.31                H6-C3-H4=118.30                H6-C3-H5=118.44                
 
 selected dihedral angles (degree)
 ---------------------------------

 
 CMA Distance (Angstroems)
 ---------------------------
R(CMA):  4.8154
           -------------------------------------------------
          |                Final Singlepoint                |
           -------------------------------------------------

          ...................................................
          :                      SETUP                      :
          :.................................................:
          :  # basis functions                  21          :
          :  # atomic orbitals                  20          :
          :  # shells                           10          :
          :  # electrons                        22          :
          :  max. iterations                   250          :
          :  Hamiltonian                  GFN2-xTB          :
          :  restarted?                      false          :
          :  GBSA solvation                  false          :
          :  PC potential                    false          :
          :  electronic temp.          300.0000000     K    :
          :  accuracy                    1.0000000          :
          :  -> integral cutoff          0.2500000E+02      :
          :  -> integral neglect         0.1000000E-07      :
          :  -> SCF convergence          0.1000000E-05 Eh   :
          :  -> wf. convergence          0.1000000E-03 e    :
          :  Broyden damping             0.4000000          :
          ...................................................

 iter      E             dE          RMSdq      gap      omega  full diag
   1    -13.1778443 -0.131778E+02  0.172E-04    0.17       0.0  T
   2    -13.1778443  0.273603E-09  0.184E-04    0.17     222.0  T
   3    -13.1778443  0.575649E-08  0.903E-04    0.17      45.2  T

   *** convergence criteria satisfied after 3 iterations ***

         #    Occupation            Energy/Eh            Energy/eV
      -------------------------------------------------------------
         1        2.0000           -0.8095494             -22.0290
       ...           ...                  ...                  ...
         5        2.0000           -0.3876603             -10.5488
         6        2.0000           -0.3298568              -8.9759
         7        2.0000           -0.2995553              -8.1513
         8        2.0000           -0.2995510              -8.1512
         9        1.9789           -0.2020500              -5.4981
        10        1.9567           -0.2013548              -5.4791
        11        1.9567           -0.2013539              -5.4791 (HOMO)
        12        0.1077           -0.1950105              -5.3065 (LUMO)
        13                          0.2290046               6.2315
        14                          0.3099548               8.4343
        15                          0.3100476               8.4368
        16                          0.3100485               8.4369
       ...                                ...                  ...
        20                          0.3746900              10.1958
      -------------------------------------------------------------
                  HL-Gap            0.0063434 Eh            0.1726 eV
             Fermi-level           -0.1977339 Eh           -5.3806 eV

 SCC (total)                   0 d,  0 h,  0 min,  0.002 sec
 SCC setup                      ...        0 min,  0.000 sec (  2.149%)
 Dispersion                     ...        0 min,  0.000 sec (  0.338%)
 integral evaluation            ...        0 min,  0.001 sec ( 45.922%)
 zeroth order Hamiltonian       ...        0 min,  0.000 sec (  0.645%)
 iterations                     ...        0 min,  0.000 sec ( 11.890%)
 molecular gradient             ...        0 min,  0.001 sec ( 36.059%)
 printout                       ...        0 min,  0.000 sec (  2.098%)

         :::::::::::::::::::::::::::::::::::::::::::::::::::::
         ::                     SUMMARY                     ::
         :::::::::::::::::::::::::::::::::::::::::::::::::::::
         :: total energy             -13.119411418952 Eh    ::
         :: gradient norm              0.000766227055 Eh/a0 ::
         :: HOMO-LUMO gap              0.172612871036 eV    ::
         ::.................................................::
         :: SCC energy               -13.177844337368 Eh    ::
         :: -> isotropic ES            0.166554692005 Eh    ::
         :: -> anisotropic ES         -0.001614013160 Eh    ::
         :: -> anisotropic XC          0.005548547292 Eh    ::
         :: -> dispersion             -0.001424654547 Eh    ::
         :: repulsion energy           0.058357676825 Eh    ::
         :: add. restraining           0.000077354572 Eh    ::
         :::::::::::::::::::::::::::::::::::::::::::::::::::::

           -------------------------------------------------
          |                Property Printout                |
           -------------------------------------------------

    * Orbital Energies and Occupations

         #    Occupation            Energy/Eh            Energy/eV
      -------------------------------------------------------------
         1        2.0000           -0.8095494             -22.0290
         2        2.0000           -0.5926886             -16.1279
         3        2.0000           -0.4842593             -13.1774
         4        2.0000           -0.3879239             -10.5559
         5        2.0000           -0.3876603             -10.5488
         6        2.0000           -0.3298568              -8.9759
         7        2.0000           -0.2995553              -8.1513
         8        2.0000           -0.2995510              -8.1512
         9        1.9789           -0.2020500              -5.4981
        10        1.9567           -0.2013548              -5.4791
        11        1.9567           -0.2013539              -5.4791 (HOMO)
        12        0.1077           -0.1950105              -5.3065 (LUMO)
        13                          0.2290046               6.2315
        14                          0.3099548               8.4343
        15                          0.3100476               8.4368
        16                          0.3100485               8.4369
        17                          0.3103653               8.4455
        18                          0.3103654               8.4455
        19                          0.3740761              10.1791
        20                          0.3746900              10.1958
      -------------------------------------------------------------
                  HL-Gap            0.0063434 Eh            0.1726 eV
             Fermi-level           -0.1977339 Eh           -5.3806 eV

     #   Z        covCN         q      C6AA      α(0)
     1   9 F      0.159    -0.441    14.495     4.437
     2  17 Cl     0.000    -0.855   121.187    16.754
     3   6 C      2.939    -0.009    28.252     8.717
     4   1 H      0.926     0.102     1.764     2.077
     5   1 H      0.926     0.102     1.770     2.081
     6   1 H      0.926     0.101     1.771     2.081

 Mol. C6AA /au·bohr⁶  :        575.427342
 Mol. C8AA /au·bohr⁸  :      16576.363058
 Mol. α(0) /au        :         36.147326


Wiberg/Mayer (AO) data.
largest (>0.10) Wiberg bond orders for each atom
          total WBO             WBO to atom ...
     1  F   0.725        C    3 0.723
     2  Cl  0.048
     3  C   3.734        H    6 0.988    H    5 0.988    H    4 0.988    F    1 0.723
     4  H   0.989        C    3 0.988
     5  H   0.990        C    3 0.988
     6  H   0.990        C    3 0.988

molecular dipole:
                 x           y           z       tot (Debye)
 q only:       -2.646      -0.120       0.093
   full:       -2.509      -0.111       0.091       6.387
molecular quadrupole (traceless):
                xx          xy          yy          xz          yz          zz
 q only:      -40.275      -3.377      20.057       1.309       0.073      20.218
  q+dip:      -41.690      -3.519      20.762       1.327       0.071      20.928
   full:      -40.953      -3.444      20.395       1.318       0.071      20.558

           -------------------------------------------------
          |                Geometry Summary                 |
           -------------------------------------------------

      molecular mass/u    :       69.4858989
   center of mass at/Å    :        0.4052965       0.0147186      -0.0187761
  moments of inertia/u·Å² :        0.3417457E+01   0.4884089E+03   0.4884112E+03
rotational constants/cm⁻¹ :        0.4932800E+01   0.3451541E-01   0.3451525E-01

 * 3 selected distances

     #   Z        #   Z                                     value/Å
     3   6 C      4   1 H                                 1.0706873 (min)
     3   6 C      5   1 H                                 1.0710842
     3   6 C      6   1 H                                 1.0716036 (max)

 * 1 distinct bonds (by element types)

   Z      Z             #   av. dist./Å        max./Å        min./Å
   1 H    6 C           3     1.0711250     1.0716036     1.0706873


optimized geometry written to: xtbopt.xyz


           -------------------------------------------------
          | TOTAL ENERGY              -13.119411418952 Eh   |
          | GRADIENT NORM               0.000766227055 Eh/α |
          | HOMO-LUMO GAP               0.172612871036 eV   |
           -------------------------------------------------

------------------------------------------------------------------------
 * finished run on 2020/04/08 at 13:05:41.480     
------------------------------------------------------------------------
 total:
 * wall-time:     0 d,  0 h,  0 min,  0.074 sec
 *  cpu-time:     0 d,  0 h,  0 min,  0.182 sec
 * ratio c/w:     2.467 speedup
 SCF:
 * wall-time:     0 d,  0 h,  0 min,  0.004 sec
 *  cpu-time:     0 d,  0 h,  0 min,  0.012 sec
 * ratio c/w:     2.812 speedup
 ANC optimizer:
 * wall-time:     0 d,  0 h,  0 min,  0.054 sec
 *  cpu-time:     0 d,  0 h,  0 min,  0.128 sec
 * ratio c/w:     2.350 speedup

