      -----------------------------------------------------------      
     |                   =====================                   |     
     |                           x T B                           |     
     |                   =====================                   |     
     |                         S. Grimme                         |     
     |          Mulliken Center for Theoretical Chemistry        |     
     |                    University of Bonn                     |     
      -----------------------------------------------------------      

   * xtb version 6.2.3 (830e466) compiled by 'ehlert@majestix' on 2020-03-16

   xtb is free software: you can redistribute it and/or modify it under
   the terms of the GNU Lesser General Public License as published by
   the Free Software Foundation, either version 3 of the License, or
   (at your option) any later version.
   
   xtb is distributed in the hope that it will be useful,
   but WITHOUT ANY WARRANTY; without even the implied warranty of
   MERCHANTABILITY or FITNESS FOR A PARTICULAR PURPOSE.  See the
   GNU Lesser General Public License for more details.
   
   Cite this work as:
   * S. Grimme, C. Bannwarth, P. Shushkov, J. Chem. Theory Comput., 2017,
     13, 1989-2009. DOI: 10.1021/acs.jctc.7b00118
   * C. Bannwarth, S. Ehlert and S. Grimme., J. Chem. Theory Comput., 2019,
     15, 1652-1671. DOI: 10.1021/acs.jctc.8b01176
   * P. Pracht, E. Caldeweyher, S. Ehlert, S. Grimme, ChemRxiv, 2019, preprint.
     DOI: 10.26434/chemrxiv.8326202.v1
   
   for DFT-D4:
   * E. Caldeweyher, C. Bannwarth and S. Grimme, J. Chem. Phys., 2017,
     147, 034112. DOI: 10.1063/1.4993215
   * E. Caldeweyher, S. Ehlert, A. Hansen, H. Neugebauer, S. Spicher,
     C. Bannwarth and S. Grimme, J. Chem. Phys., 2019, 150, 154122.
     DOI: 10.1063/1.5090222
   
   for sTDA-xTB:
   * S. Grimme and C. Bannwarth, J. Chem. Phys., 2016, 145, 054103.
     DOI: 10.1063/1.4959605
   
   in the mass-spec context:
   * V. Asgeirsson, C. Bauer and S. Grimme, Chem. Sci., 2017, 8, 4879.
     DOI: 10.1039/c7sc00601b
   
   for metadynamics refer to:
   * S. Grimme, J. Chem. Theory Comput., 2019, 155, 2847-2862
     DOI: 10.1021/acs.jctc.9b00143
   
   with help from (in alphabetical order)
   C. Bannwarth, F. Bohle, G. Brandenburg, E. Caldeweyher, M. Checinski,
   S. Dohm, S. Ehlert, S. Ehrlich, F. März, H. Neugebauer, J. Pisarek,
   P. Pracht, P. Shushkov, and S. Spicher.
   
 * started run on 2020/04/08 at 13:05:29.536     

           -------------------------------------------------
          |                Calculation Setup                |
           -------------------------------------------------

          program call               : /home/tom/.local/bin/xtb SN2_PES_scan_1-0_xtb.xyz --chrg -1 --opt --input xcontrol_SN2_PES_scan_1-0
          coordinate file            : SN2_PES_scan_1-0_xtb.xyz
          omp threads                :                     4
          number of atoms            :                     6
          number of electrons        :                    22
          charge                     :                    -1
          spin                       :                   0.0
          first test random number   :      0.63896381357309

constraining bond 1 3 to    3.5000000 Å, actual value:    3.9999480 Å
constraining bond 2 3 to    1.7800000 Å, actual value:    1.7801263 Å

molecular fragmentation (1/2 indicates fragments):
122222
# atoms in fragment 1/2:     1     5
 fragment masses (1/2) :       19.00       50.49
CMA distance (Bohr)    :   9.882
constraining FC (au)   : 10.0000
########################################################################
[WARNING] Please study the warnings concerning your input carefully
-2- prog_main: XTBPATH is not set, using XTBHOME instead
-1- prog_main: XTBHOME is not set, using HOME instead
########################################################################
           ------------------------------------------------- 
          |                 G F N 2 - x T B                 |
          | Geometry, Frequencies, Noncovalent interactions |
          |            JCTC 2019 parametrisation            |
           ------------------------------------------------- 
             k(s)              :                1.8500
             k(p)              :                2.2300
             k(d)              :                2.2300
             k(f)              :                2.0000
             kEN (H0ij)        :               -2.0000
             D4 a1             :                0.5200
             D4 a2             :                5.0000
             D4 s6             :                1.0000
             D4 s8             :                2.7000
             D4 s9             :                5.0000
             alphaj            :                2.0000

  Z AO/shell   Hii/eV     exponent
  1     Wed Apr 25 08:07:45 CEST 2018   EN: 2.200 GM2: 0.406  GM3: 0.0800  RAES: 1.40
     1s    -10.707211    1.230000
  6     Wed Apr 25 08:07:45 CEST 2018   EN: 2.550 GM2: 0.538  GM3: 0.1500  RAES: 3.00
     2s    -13.970922    2.096432
     2p    -10.063292    1.800000
  9     Mon Apr 23 13:58:50 CEST 2018   EN: 3.980 GM2: 0.532  GM3: 0.1426  RAES: 2.40
     2s    -23.458179    2.416361
     2p    -15.746583    2.308399
 17     Mon Apr 23 14:09:22 CEST 2018   EN: 3.160 GM2: 0.249  GM3: 0.1495  RAES: 2.50
     3s    -29.278781    2.485265
     3p    -12.673758    2.199650
     3d     -0.240338    2.476089

           ------------------------------------------------- 
          |        Self-Consistent Charge Iterations        |
           ------------------------------------------------- 

          ...................................................
          :                      SETUP                      :
          :.................................................:
          :  # basis functions                  21          :
          :  # atomic orbitals                  20          :
          :  # shells                           10          :
          :  # electrons                        22          :
          :  max. iterations                   250          :
          :  Hamiltonian                  GFN2-xTB          :
          :  restarted?                      false          :
          :  GBSA solvation                  false          :
          :  PC potential                    false          :
          :  electronic temp.          300.0000000     K    :
          :  accuracy                    1.0000000          :
          :  -> integral cutoff          0.2500000E+02      :
          :  -> integral neglect         0.1000000E-07      :
          :  -> SCF convergence          0.1000000E-05 Eh   :
          :  -> wf. convergence          0.1000000E-03 e    :
          :  Broyden damping             0.4000000          :
          ...................................................

 iter      E             dE          RMSdq      gap      omega  full diag
   1    -13.1211223 -0.131211E+02  0.572E+00    5.37       0.0  T
   2    -13.1859078 -0.647855E-01  0.325E+00    2.14       1.0  T
   3    -13.1869926 -0.108484E-02  0.176E+00    1.10       1.0  T
   4    -11.8357173  0.135128E+01  0.100E+01    0.00       1.0  T
   5    -11.8326707  0.304665E-02  0.101E+01    0.00       1.0  T
   6    -11.8360316 -0.336089E-02  0.998E+00    0.00       1.0  T
   7    -11.8296538  0.637781E-02  0.102E+01    0.00       1.0  T
   8    -11.8296153  0.384366E-04  0.102E+01    0.00       1.0  T
   9    -11.8070285  0.225869E-01  0.109E+01    0.00       1.0  T
  10      2.8314999  0.146385E+02  0.327E+01    0.12       1.0  T
  11    -11.7892046 -0.146207E+02  0.113E+01    0.00       1.0  T
  12      2.8490781  0.146383E+02  0.328E+01    0.13       1.0  T
  13      2.8727558  0.236778E-01  0.330E+01    0.13       1.0  T
  14    -11.8127496 -0.146855E+02  0.106E+01    0.01       1.0  T
  15    -11.8160189 -0.326928E-02  0.107E+01    0.01       1.0  T
  16    -13.1833162 -0.136730E+01  0.941E-01    0.17       1.0  T
  17    -11.7879368  0.139538E+01  0.112E+01    0.03       1.0  T
  18    -11.7881833 -0.246478E-03  0.110E+01    0.02       1.0  T
  19    -13.1816680 -0.139348E+01  0.975E-01    0.15       1.0  T
  20    -13.1806836  0.984351E-03  0.126E+00    1.15       1.0  T
  21    -13.1834068 -0.272322E-02  0.971E-01    0.45       1.0  T
  22    -13.1829086  0.498229E-03  0.107E+00    0.88       1.0  T
  23    -13.1834569 -0.548248E-03  0.185E+00    1.03       1.0  T
  24    -13.1825846  0.872300E-03  0.271E+00    2.07       1.0  T
  25    -13.1827352 -0.150619E-03  0.242E+00    1.78       1.0  T
  26    -13.1831788 -0.443587E-03  0.190E+00    1.11       1.0  T
  27    -13.1835305 -0.351785E-03  0.160E+00    0.58       1.0  T
  28    -13.1859077 -0.237712E-02  0.124E+00    0.18       1.0  T
  29    -11.8725457  0.131336E+01  0.951E+00    0.02       1.0  T
  30    -13.1767433 -0.130420E+01  0.183E+00    2.21       1.0  T
  31    -13.1816707 -0.492746E-02  0.143E+00    0.53       1.0  T
  32    -11.8971116  0.128456E+01  0.937E+00    0.01       1.0  T
  33    -13.1744451 -0.127733E+01  0.190E+00    2.53       1.0  T
  34    -13.1828430 -0.839787E-02  0.123E+00    0.36       1.0  T
  35    -11.8763468  0.130650E+01  0.944E+00    0.00       1.0  T
  36    -13.1736499 -0.129730E+01  0.195E+00    2.85       1.0  T
  37    -13.1830975 -0.944752E-02  0.118E+00    0.36       1.0  T
  38    -13.1851106 -0.201316E-02  0.104E+00    0.23       1.0  T
  39    -13.1839555  0.115516E-02  0.108E+00    0.54       1.0  T
  40    -11.8660421  0.131791E+01  0.956E+00    0.00       1.0  T
  41    -13.1786071 -0.131257E+01  0.155E+00    1.60       1.0  T
  42    -13.1850527 -0.644561E-02  0.862E-01    0.46       1.0  T
  43    -11.8595981  0.132545E+01  0.961E+00    0.00       1.0  T
  44    -13.1791835 -0.131959E+01  0.151E+00    1.69       1.0  T
  45    -13.1855545 -0.637095E-02  0.771E-01    0.44       1.0  T
  46    -11.8816143  0.130394E+01  0.953E+00    0.00       1.0  T
  47    -13.1800781 -0.129846E+01  0.145E+00    1.79       1.0  T
  48    -13.1858841 -0.580593E-02  0.706E-01    0.49       1.0  T
  49    -12.4412482  0.744636E+00  0.730E+00    0.00       1.0  T
  50    -13.1829024 -0.741654E+00  0.117E+00    1.50       1.0  T
  51    -13.1868586 -0.395625E-02  0.515E-01    0.32       1.0  T
  52    -13.0457605  0.141098E+00  0.328E+00    0.07       1.0  T
  53    -13.1862328 -0.140472E+00  0.617E-01    0.69       1.0  T
  54    -12.9559408  0.230292E+00  0.417E+00    0.05       1.0  T
  55    -13.1858804 -0.229940E+00  0.702E-01    0.85       1.0  T
  56    -13.1871425 -0.126213E-02  0.310E-01    0.17       1.0  T
  57    -13.1880376 -0.895116E-03  0.155E-01    0.24       1.0  T
  58    -13.1145708  0.734668E-01  0.239E+00    0.09       1.0  T
  59    -13.1869209 -0.723501E-01  0.427E-01    0.45       1.0  T
  60    -13.1650216  0.218993E-01  0.135E+00    0.12       1.0  T
  61    -13.1871658 -0.221442E-01  0.353E-01    0.37       1.0  T
  62    -13.1683106  0.188552E-01  0.125E+00    0.12       1.0  T
  63    -13.1873150 -0.190044E-01  0.316E-01    0.34       1.0  T
  64    -13.1763635  0.109515E-01  0.969E-01    0.13       1.0  T
  65    -13.1875369 -0.111734E-01  0.265E-01    0.30       1.0  T
  66    -13.1811151  0.642183E-02  0.753E-01    0.14       1.0  T
  67    -13.1877872 -0.667216E-02  0.205E-01    0.27       1.0  T
  68    -13.1840630  0.372423E-02  0.577E-01    0.15       1.0  T
  69    -13.1880070 -0.394401E-02  0.140E-01    0.25       1.0  T
  70    -13.1859168  0.209022E-02  0.430E-01    0.16       1.0  T
  71    -13.1881518 -0.223506E-02  0.750E-02    0.23       1.0  T
  72    -13.1870018  0.115007E-02  0.313E-01    0.17       1.0  T
  73    -13.1882011 -0.119933E-02  0.248E-02    0.22       1.6  T
  74    -13.1875933  0.607845E-03  0.223E-01    0.18       1.0  T
  75    -13.1881793 -0.585998E-03  0.451E-02    0.21       1.0  T
  76    -13.1878975  0.281715E-03  0.158E-01    0.19       1.0  T
  77    -13.1881439 -0.246373E-03  0.695E-02    0.20       1.0  T
  78    -13.1880318  0.112123E-03  0.118E-01    0.20       1.0  T
  79    -13.1881291 -0.973195E-04  0.777E-02    0.20       1.0  T
  80    -13.1880941  0.349732E-04  0.944E-02    0.20       1.0  T
  81    -13.1881317 -0.375193E-04  0.764E-02    0.20       1.0  T
  82    -13.1881262  0.550254E-05  0.793E-02    0.20       1.0  T
  83    -13.1881435 -0.173231E-04  0.698E-02    0.20       1.0  T
  84    -13.1881475 -0.404436E-05  0.674E-02    0.20       1.0  T
  85    -13.1881662 -0.186741E-04  0.549E-02    0.21       1.0  T
  86    -13.1881746 -0.837753E-05  0.482E-02    0.21       1.0  T
  87    -13.1881849 -0.103300E-04  0.384E-02    0.21       1.1  T
  88    -13.1881907 -0.584387E-05  0.316E-02    0.21       1.3  T
  89    -13.1881959 -0.512457E-05  0.240E-02    0.21       1.7  T
  90    -13.1881990 -0.313157E-05  0.178E-02    0.21       2.3  T
  91    -13.1882012 -0.222553E-05  0.115E-02    0.21       3.6  T
  92    -13.1882023 -0.111606E-05  0.632E-03    0.21       6.5  T
  93    -13.1882028 -0.437647E-06  0.192E-03    0.21      21.2  T
  94    -13.1882028 -0.442888E-07  0.186E-04    0.22     219.8  T
  95    -13.1882028 -0.280229E-09  0.110E-04    0.22     371.2  T

   *** convergence criteria satisfied after 95 iterations ***

         #    Occupation            Energy/Eh            Energy/eV
      -------------------------------------------------------------
         1        2.0000           -0.9497135             -25.8430
       ...           ...                  ...                  ...
         5        2.0000           -0.3889417             -10.5836
         6        2.0000           -0.3233224              -8.7980
         7        2.0000           -0.3092806              -8.4160
         8        2.0000           -0.3092728              -8.4157
         9        1.9861           -0.0620249              -1.6878
        10        1.9816           -0.0617581              -1.6805
        11        1.9816           -0.0617579              -1.6805 (HOMO)
        12        0.0507           -0.0538450              -1.4652 (LUMO)
        13                          0.1289888               3.5100
        14                          0.1289918               3.5100
        15                          0.1333211               3.6279
        16                          0.1333240               3.6279
       ...                                ...                  ...
        20                          0.3281032               8.9281
      -------------------------------------------------------------
                  HL-Gap            0.0079129 Eh            0.2153 eV
             Fermi-level           -0.0573120 Eh           -1.5595 eV

 SCC (total)                   0 d,  0 h,  0 min,  0.043 sec
 SCC setup                      ...        0 min,  0.000 sec (  0.160%)
 Dispersion                     ...        0 min,  0.000 sec (  0.038%)
 integral evaluation            ...        0 min,  0.001 sec (  2.756%)
 zeroth order Hamiltonian       ...        0 min,  0.000 sec (  0.035%)
 iterations                     ...        0 min,  0.041 sec ( 95.945%)
 molecular gradient             ...        0 min,  0.000 sec (  0.880%)
 printout                       ...        0 min,  0.000 sec (  0.130%)

         :::::::::::::::::::::::::::::::::::::::::::::::::::::
         ::                     SUMMARY                     ::
         :::::::::::::::::::::::::::::::::::::::::::::::::::::
         :: total energy              -4.205778188475 Eh    ::
         :: gradient norm             26.725010915863 Eh/a0 ::
         :: HOMO-LUMO gap              0.215321574030 eV    ::
         ::.................................................::
         :: SCC energy               -13.188202827421 Eh    ::
         :: -> isotropic ES            0.262809331937 Eh    ::
         :: -> anisotropic ES         -0.000710953119 Eh    ::
         :: -> anisotropic XC          0.000752434573 Eh    ::
         :: -> dispersion             -0.001619313042 Eh    ::
         :: repulsion energy           0.056623028028 Eh    ::
         :: add. restraining           8.925803358144 Eh    ::
         :::::::::::::::::::::::::::::::::::::::::::::::::::::

      ----------------------------------------------------------- 
     |                   =====================                   |
     |                        A N C O P T                        |
     |                   =====================                   |
     |               Approximate Normal Coordinate               |
     |                Rational Function Optimizer                |
      ----------------------------------------------------------- 

          ...................................................
          :                      SETUP                      :
          :.................................................:
          :   optimization level            normal          :
          :   max. optcycles                   200          :
          :   ANC micro-cycles                  20          :
          :   degrees of freedom                12          :
          :.................................................:
          :   RF solver                   davidson          :
          :   write xtbopt.log                true          :
          :   linear?                        false          :
          :   energy convergence         0.5000000E-05 Eh   :
          :   grad. convergence          0.1000000E-02 Eh/α :
          :   maximium RF displ.         1.0000000          :
          :   Hlow (freq-cutoff)         0.1000000E-01      :
          :   Hmax (freq-cutoff)         5.0000000          :
          :   S6 in model hess.         20.0000000          :
          ...................................................

generating ANC from model Hessian ...
Using Lindh-Hessian (1995)
 Shifting diagonal of input Hessian by   0.000000000000000E+000
 Lowest  eigenvalues of input Hessian
   -0.000000   -0.000000   -0.000000   -0.000000    0.000000    0.000000
    0.059432    0.059434    0.102616    0.102626    0.122621    0.432769
    0.432781    0.477682    3.652239    3.652305   20.210311   60.862286
 Highest eigenvalues
    0.432781    0.477682    3.652239    3.652305   20.210311   60.862286
 

........................................................................
.............................. CYCLE    1 ..............................
........................................................................
   1    -13.1882028 -0.131882E+02  0.582E-05    0.22       0.0  T
   2    -13.1882028  0.141439E-08  0.350E-04    0.22     116.8  T
   3    -13.1882028 -0.145427E-08  0.116E-05    0.22    3523.5  T
     SCC iter.                  ...        0 min,  0.001 sec
     gradient                   ...        0 min,  0.001 sec
 * total energy  :    -4.2057782 Eh     change        0.1031422E-08 Eh
   gradient norm :    26.7250135 Eh/α   predicted     0.0000000E+00 (-100.00%)
   displ. norm   :     0.9108222 α      lambda       -0.2434173E+02
   maximum displ.:     0.7846076 α      in ANC's #11, #12, #8, ...

........................................................................
.............................. CYCLE    2 ..............................
........................................................................
   1    -12.1057042 -0.121057E+02  0.103E+01    0.00       0.0  T
   2    -12.9536103 -0.847906E+00  0.748E+00    5.99       1.0  T
   3    -13.1470446 -0.193434E+00  0.355E+00    4.13       1.0  T
   4    -13.1639734 -0.169287E-01  0.254E+00    3.57       1.0  T
   5    -12.1300179  0.103396E+01  0.932E+00    0.00       1.0  T
   6    -13.1652587 -0.103524E+01  0.220E+00    2.53       1.0  T
   7    -13.1666087 -0.135001E-02  0.225E+00    2.94       1.0  T
   8    -13.1655391  0.106966E-02  0.222E+00    2.70       1.0  T
   9    -13.1672633 -0.172427E-02  0.213E+00    2.62       1.0  T
  10    -13.1678185 -0.555181E-03  0.199E+00    2.17       1.0  T
  11    -13.1696619 -0.184342E-02  0.175E+00    1.49       1.0  T
  12    -13.1719288 -0.226687E-02  0.148E+00    0.82       1.0  T
  13    -13.1771042 -0.517534E-02  0.116E+00    0.37       1.0  T
  14    -13.1769503  0.153857E-03  0.117E+00    0.38       1.0  T
  15    -13.1769172  0.330740E-04  0.117E+00    0.38       1.0  T
  16    -12.1162447  0.106067E+01  0.947E+00    0.00       1.0  T
  17    -13.1471395 -0.103089E+01  0.400E+00    4.10       1.0  T
  18    -13.1657688 -0.186292E-01  0.231E+00    3.11       1.0  T
  19    -13.1697413 -0.397253E-02  0.174E+00    1.45       1.0  T
  20    -12.2249209  0.944820E+00  0.894E+00    0.01       1.0  T
  21    -13.1386714 -0.913750E+00  0.449E+00    4.16       1.0  T
  22    -13.1612944 -0.226230E-01  0.279E+00    4.02       1.0  T
  23    -13.1680411 -0.674670E-02  0.197E+00    2.11       1.0  T
  24    -12.7472152  0.420826E+00  0.617E+00    0.05       1.0  T
  25    -13.1498445 -0.402629E+00  0.371E+00    4.10       1.0  T
  26    -13.1673124 -0.174679E-01  0.207E+00    2.40       1.0  T
  27    -13.1885601 -0.212477E-01  0.504E-01    0.21       1.0  T
  28    -12.1111847  0.107738E+01  0.953E+00    0.00       1.0  T
  29    -13.1315264 -0.102034E+01  0.501E+00    4.18       1.0  T
  30    -13.1625365 -0.310101E-01  0.270E+00    4.01       1.0  T
  31    -13.1694226 -0.688617E-02  0.179E+00    1.59       1.0  T
  32    -12.1181846  0.105124E+01  0.946E+00    0.00       1.0  T
  33    -13.1244023 -0.100622E+01  0.537E+00    4.22       1.0  T
  34    -13.1627169 -0.383147E-01  0.268E+00    4.01       1.0  T
  35    -13.1700860 -0.736906E-02  0.170E+00    1.34       1.0  T
  36    -12.1089139  0.106117E+01  0.956E+00    0.00       1.0  T
  37    -13.1208581 -0.101194E+01  0.559E+00    4.24       1.0  T
  38    -13.1623789 -0.415208E-01  0.272E+00    4.01       1.0  T
  39    -13.1704086 -0.802969E-02  0.165E+00    1.23       1.0  T
  40    -12.1060342  0.106437E+01  0.962E+00    0.00       1.0  T
  41    -13.1184380 -0.101240E+01  0.572E+00    4.25       1.0  T
  42    -13.1625036 -0.440656E-01  0.271E+00    4.01       1.0  T
  43    -13.1709771 -0.847357E-02  0.158E+00    1.05       1.0  T
  44    -12.1037143  0.106726E+01  0.968E+00    0.00       1.0  T
  45    -13.1172821 -0.101357E+01  0.580E+00    4.25       1.0  T
  46    -13.1628081 -0.455260E-01  0.267E+00    4.01       1.0  T
  47    -13.1717108 -0.890268E-02  0.150E+00    0.87       1.0  T
  48    -12.1021097  0.106960E+01  0.973E+00    0.00       1.0  T
  49    -13.1171241 -0.101501E+01  0.581E+00    4.25       1.0  T
  50    -13.1632952 -0.461711E-01  0.262E+00    4.01       1.0  T
  51    -13.1727897 -0.949448E-02  0.141E+00    0.67       1.0  T
  52    -12.1012355  0.107155E+01  0.976E+00    0.00       1.0  T
  53    -13.1177883 -0.101655E+01  0.579E+00    4.25       1.0  T
  54    -13.1638788 -0.460905E-01  0.255E+00    3.84       1.0  T
  55    -13.1745189 -0.106401E-01  0.129E+00    0.50       1.0  T
  56    -12.1015827  0.107294E+01  0.975E+00    0.00       1.0  T
  57    -13.1189371 -0.101735E+01  0.573E+00    4.25       1.0  T
  58    -13.1643700 -0.454329E-01  0.249E+00    3.66       1.0  T
  59    -13.1764604 -0.120904E-01  0.119E+00    0.40       1.0  T
  60    -12.1035851  0.107288E+01  0.969E+00    0.00       1.0  T
  61    -13.1197785 -0.101619E+01  0.567E+00    4.24       1.0  T
  62    -13.1644667 -0.446882E-01  0.247E+00    3.61       1.0  T
  63    -13.1754450 -0.109782E-01  0.124E+00    0.44       1.0  T
  64    -12.1043901  0.107105E+01  0.966E+00    0.00       1.0  T
  65    -13.1208493 -0.101646E+01  0.561E+00    4.24       1.0  T
  66    -13.1645442 -0.436948E-01  0.246E+00    3.57       1.0  T
  67    -13.1749546 -0.104105E-01  0.127E+00    0.47       1.0  T
  68    -12.1053152  0.106964E+01  0.964E+00    0.00       1.0  T
  69    -13.1216063 -0.101629E+01  0.556E+00    4.24       1.0  T
  70    -13.1645026 -0.428963E-01  0.246E+00    3.57       1.0  T
  71    -13.1742034 -0.970075E-02  0.131E+00    0.52       1.0  T
  72    -12.1058280  0.106838E+01  0.963E+00    0.00       1.0  T
  73    -13.1222675 -0.101644E+01  0.553E+00    4.23       1.0  T
  74    -13.1644755 -0.422080E-01  0.246E+00    3.58       1.0  T
  75    -13.1737768 -0.930131E-02  0.133E+00    0.56       1.0  T
  76    -12.1064890  0.106729E+01  0.961E+00    0.00       1.0  T
  77    -13.1226471 -0.101616E+01  0.550E+00    4.23       1.0  T
  78    -13.1643670 -0.417199E-01  0.247E+00    3.61       1.0  T
  79    -13.1732668 -0.889985E-02  0.137E+00    0.61       1.0  T
  80    -12.1069740  0.106629E+01  0.960E+00    0.00       1.0  T
  81    -13.1229017 -0.101593E+01  0.548E+00    4.23       1.0  T
  82    -13.1642645 -0.413629E-01  0.248E+00    3.64       1.0  T
  83    -13.1729122 -0.864770E-02  0.139E+00    0.66       1.0  T
  84    -12.1075258  0.106539E+01  0.959E+00    0.00       1.0  T
  85    -13.1229736 -0.101545E+01  0.548E+00    4.23       1.0  T
  86    -13.1641194 -0.411458E-01  0.250E+00    3.69       1.0  T
  87    -13.1725662 -0.844684E-02  0.142E+00    0.71       1.0  T
  88    -12.1080352  0.106453E+01  0.958E+00    0.00       1.0  T
  89    -13.1229294 -0.101489E+01  0.548E+00    4.23       1.0  T
  90    -13.1639669 -0.410374E-01  0.252E+00    3.74       1.0  T
  91    -13.1722865 -0.831969E-02  0.144E+00    0.75       1.0  T
  92    -12.1085440  0.106374E+01  0.958E+00    0.00       1.0  T
  93    -13.1227839 -0.101424E+01  0.548E+00    4.23       1.0  T
  94    -13.1638025 -0.410186E-01  0.253E+00    3.80       1.0  T
  95    -13.1720475 -0.824503E-02  0.147E+00    0.80       1.0  T
  96    -12.1090250  0.106302E+01  0.957E+00    0.00       1.0  T
  97    -13.1225719 -0.101355E+01  0.549E+00    4.23       1.0  T
  98    -13.1636391 -0.410672E-01  0.255E+00    3.85       1.0  T
  99    -13.1718540 -0.821486E-02  0.148E+00    0.84       1.0  T
 100    -12.1094582  0.106240E+01  0.956E+00    0.00       1.0  T
 101    -13.1223270 -0.101287E+01  0.550E+00    4.23       1.0  T
 102    -13.1634866 -0.411597E-01  0.257E+00    3.90       1.0  T
 103    -13.1717052 -0.821861E-02  0.150E+00    0.87       1.0  T
 104    -12.1098180  0.106189E+01  0.956E+00    0.00       1.0  T
 105    -13.1220832 -0.101227E+01  0.551E+00    4.24       1.0  T
 106    -13.1633559 -0.412726E-01  0.258E+00    3.94       1.0  T
 107    -13.1716020 -0.824612E-02  0.151E+00    0.90       1.0  T
 108    -12.1100840  0.106152E+01  0.955E+00    0.00       1.0  T
 109    -13.1218710 -0.101179E+01  0.552E+00    4.24       1.0  T
 110    -13.1632550 -0.413840E-01  0.260E+00    3.98       1.0  T
 111    -13.1715431 -0.828805E-02  0.152E+00    0.91       1.0  T
 112    -12.1102508  0.106129E+01  0.955E+00    0.00       1.0  T
 113    -13.1217104 -0.101146E+01  0.553E+00    4.24       1.0  T
 114    -13.1631871 -0.414767E-01  0.260E+00    4.00       1.0  T
 115    -13.1715240 -0.833686E-02  0.152E+00    0.92       1.0  T
 116    -12.1103338  0.106119E+01  0.955E+00    0.00       1.0  T
 117    -13.1216067 -0.101127E+01  0.553E+00    4.24       1.0  T
 118    -13.1631482 -0.415415E-01  0.261E+00    4.01       1.0  T
 119    -13.1715356 -0.838741E-02  0.152E+00    0.92       1.0  T
 120    -12.1103643  0.106117E+01  0.955E+00    0.00       1.0  T
 121    -13.1215495 -0.101119E+01  0.553E+00    4.24       1.0  T
 122    -13.1631286 -0.415792E-01  0.261E+00    4.01       1.0  T
 123    -13.1715655 -0.843682E-02  0.151E+00    0.91       1.0  T
 124    -12.1103763  0.106119E+01  0.955E+00    0.00       1.0  T
 125    -13.1215199 -0.101114E+01  0.554E+00    4.24       1.0  T
 126    -13.1631171 -0.415972E-01  0.261E+00    4.01       1.0  T
 127    -13.1716009 -0.848375E-02  0.151E+00    0.90       1.0  T
 128    -12.1103922  0.106121E+01  0.955E+00    0.00       1.0  T
 129    -13.1215008 -0.101111E+01  0.554E+00    4.24       1.0  T
 130    -13.1631056 -0.416048E-01  0.261E+00    4.01       1.0  T
 131    -13.1716334 -0.852781E-02  0.151E+00    0.89       1.0  T
 132    -12.1104190  0.106121E+01  0.955E+00    0.00       1.0  T
 133    -13.1214830 -0.101106E+01  0.554E+00    4.24       1.0  T
 134    -13.1630913 -0.416083E-01  0.262E+00    4.01       1.0  T
 135    -13.1716605 -0.856917E-02  0.150E+00    0.89       1.0  T
 136    -12.1104537  0.106121E+01  0.955E+00    0.00       1.0  T
 137    -13.1214649 -0.101101E+01  0.554E+00    4.24       1.0  T
 138    -13.1630749 -0.416099E-01  0.262E+00    4.01       1.0  T
 139    -13.1716832 -0.860833E-02  0.150E+00    0.88       1.0  T
 140    -12.1104916  0.106119E+01  0.954E+00    0.00       1.0  T
 141    -13.1214482 -0.101096E+01  0.554E+00    4.24       1.0  T
 142    -13.1630579 -0.416097E-01  0.262E+00    4.01       1.0  T
 143    -13.1717037 -0.864575E-02  0.150E+00    0.88       1.0  T
 144    -12.1105295  0.106117E+01  0.954E+00    0.00       1.0  T
 145    -13.1214342 -0.101090E+01  0.554E+00    4.24       1.0  T
 146    -13.1630415 -0.416073E-01  0.262E+00    4.01       1.0  T
 147    -13.1717233 -0.868174E-02  0.150E+00    0.87       1.0  T
 148    -12.1105662  0.106116E+01  0.954E+00    0.00       1.0  T
 149    -13.1214237 -0.101086E+01  0.554E+00    4.24       1.0  T
 150    -13.1630262 -0.416025E-01  0.262E+00    4.01       1.0  T
 151    -13.1717427 -0.871647E-02  0.150E+00    0.87       1.0  T
 152    -12.1106018  0.106114E+01  0.954E+00    0.00       1.0  T
 153    -13.1214164 -0.101081E+01  0.554E+00    4.24       1.0  T
 154    -13.1630118 -0.415954E-01  0.262E+00    4.01       1.0  T
 155    -13.1717619 -0.875006E-02  0.149E+00    0.87       1.0  T
 156    -12.1106363  0.106113E+01  0.954E+00    0.00       1.0  T
 157    -13.1214120 -0.101078E+01  0.554E+00    4.24       1.0  T
 158    -13.1629984 -0.415864E-01  0.263E+00    4.01       1.0  T
 159    -13.1717809 -0.878258E-02  0.149E+00    0.86       1.0  T
 160    -12.1106700  0.106111E+01  0.954E+00    0.00       1.0  T
 161    -13.1214099 -0.101074E+01  0.554E+00    4.24       1.0  T
 162    -13.1629857 -0.415758E-01  0.263E+00    4.01       1.0  T
 163    -13.1717998 -0.881408E-02  0.149E+00    0.86       1.0  T
 164    -12.1107029  0.106110E+01  0.954E+00    0.00       1.0  T
 165    -13.1214099 -0.101071E+01  0.554E+00    4.24       1.0  T
 166    -13.1629737 -0.415639E-01  0.263E+00    4.01       1.0  T
 167    -13.1718184 -0.884463E-02  0.149E+00    0.85       1.0  T
 168    -12.1107352  0.106108E+01  0.954E+00    0.00       1.0  T
 169    -13.1214115 -0.101068E+01  0.554E+00    4.24       1.0  T
 170    -13.1629624 -0.415509E-01  0.263E+00    4.01       1.0  T
 171    -13.1718367 -0.887430E-02  0.149E+00    0.85       1.0  T
 172    -12.1107670  0.106107E+01  0.954E+00    0.00       1.0  T
 173    -13.1214146 -0.101065E+01  0.554E+00    4.24       1.0  T
 174    -13.1629516 -0.415370E-01  0.263E+00    4.01       1.0  T
 175    -13.1718547 -0.890312E-02  0.149E+00    0.85       1.0  T
 176    -12.1107982  0.106106E+01  0.954E+00    0.00       1.0  T
 177    -13.1214189 -0.101062E+01  0.554E+00    4.24       1.0  T
 178    -13.1629413 -0.415224E-01  0.263E+00    4.01       1.0  T
 179    -13.1718725 -0.893116E-02  0.148E+00    0.84       1.0  T
 180    -12.1108290  0.106104E+01  0.954E+00    0.00       1.0  T
 181    -13.1214242 -0.101060E+01  0.554E+00    4.24       1.0  T
 182    -13.1629315 -0.415074E-01  0.263E+00    4.01       1.0  T
 183    -13.1718900 -0.895846E-02  0.148E+00    0.84       1.0  T
 184    -12.1108593  0.106103E+01  0.954E+00    0.00       1.0  T
 185    -13.1214303 -0.101057E+01  0.554E+00    4.24       1.0  T
 186    -13.1629222 -0.414919E-01  0.263E+00    4.01       1.0  T
 187    -13.1719072 -0.898507E-02  0.148E+00    0.83       1.0  T
 188    -12.1108892  0.106102E+01  0.954E+00    0.00       1.0  T
 189    -13.1214371 -0.101055E+01  0.554E+00    4.24       1.0  T
 190    -13.1629132 -0.414761E-01  0.264E+00    4.01       1.0  T
 191    -13.1719242 -0.901102E-02  0.148E+00    0.83       1.0  T
 192    -12.1109188  0.106101E+01  0.954E+00    0.00       1.0  T
 193    -13.1214444 -0.101053E+01  0.554E+00    4.24       1.0  T
 194    -13.1629046 -0.414602E-01  0.264E+00    4.01       1.0  T
 195    -13.1719409 -0.903635E-02  0.148E+00    0.83       1.0  T
 196    -12.1109479  0.106099E+01  0.954E+00    0.00       1.0  T
 197    -13.1214521 -0.101050E+01  0.553E+00    4.24       1.0  T
 198    -13.1628963 -0.414442E-01  0.264E+00    4.01       1.0  T
 199    -13.1719574 -0.906109E-02  0.148E+00    0.82       1.0  T
 200    -12.1109768  0.106098E+01  0.954E+00    0.00       1.0  T
 201    -13.1214602 -0.101048E+01  0.553E+00    4.24       1.0  T
 202    -13.1628884 -0.414282E-01  0.264E+00    4.01       1.0  T
 203    -13.1719736 -0.908528E-02  0.147E+00    0.82       1.0  T
 204    -12.1110053  0.106097E+01  0.954E+00    0.00       1.0  T
 205    -13.1214685 -0.101046E+01  0.553E+00    4.24       1.0  T
 206    -13.1628807 -0.414122E-01  0.264E+00    4.01       1.0  T
 207    -13.1719896 -0.910895E-02  0.147E+00    0.82       1.0  T
 208    -12.1110334  0.106096E+01  0.954E+00    0.00       1.0  T
 209    -13.1214769 -0.101044E+01  0.553E+00    4.24       1.0  T
 210    -13.1628733 -0.413964E-01  0.264E+00    4.01       1.0  T
 211    -13.1720054 -0.913212E-02  0.147E+00    0.81       1.0  T
 212    -12.1110613  0.106094E+01  0.954E+00    0.00       1.0  T
 213    -13.1214855 -0.101042E+01  0.553E+00    4.24       1.0  T
 214    -13.1628661 -0.413807E-01  0.264E+00    4.01       1.0  T
 215    -13.1720210 -0.915482E-02  0.147E+00    0.81       1.0  T
 216    -12.1110889  0.106093E+01  0.954E+00    0.00       1.0  T
 217    -13.1214941 -0.101041E+01  0.553E+00    4.24       1.0  T
 218    -13.1628592 -0.413652E-01  0.264E+00    4.01       1.0  T
 219    -13.1720363 -0.917708E-02  0.147E+00    0.81       1.0  T
 220    -12.1111161  0.106092E+01  0.953E+00    0.00       1.0  T
 221    -13.1215026 -0.101039E+01  0.553E+00    4.24       1.0  T
 222    -13.1628525 -0.413499E-01  0.264E+00    4.01       1.0  T
 223    -13.1720514 -0.919891E-02  0.147E+00    0.81       1.0  T
 224    -12.1111431  0.106091E+01  0.953E+00    0.00       1.0  T
 225    -13.1215111 -0.101037E+01  0.553E+00    4.24       1.0  T
 226    -13.1628460 -0.413349E-01  0.264E+00    4.01       1.0  T
 227    -13.1720664 -0.922034E-02  0.147E+00    0.80       1.0  T
 228    -12.1111698  0.106090E+01  0.953E+00    0.00       1.0  T
 229    -13.1215195 -0.101035E+01  0.553E+00    4.24       1.0  T
 230    -13.1628397 -0.413202E-01  0.264E+00    4.01       1.0  T
 231    -13.1720811 -0.924139E-02  0.147E+00    0.80       1.0  T
 232    -12.1111963  0.106088E+01  0.953E+00    0.00       1.0  T
 233    -13.1215278 -0.101033E+01  0.553E+00    4.24       1.0  T
 234    -13.1628336 -0.413058E-01  0.264E+00    4.01       1.0  T
 235    -13.1720957 -0.926208E-02  0.146E+00    0.80       1.0  T
 236    -12.1112225  0.106087E+01  0.953E+00    0.00       1.0  T
 237    -13.1215359 -0.101031E+01  0.553E+00    4.24       1.0  T
 238    -13.1628277 -0.412918E-01  0.264E+00    4.01       1.0  T
 239    -13.1721101 -0.928242E-02  0.146E+00    0.79       1.0  T
 240    -12.1112484  0.106086E+01  0.953E+00    0.00       1.0  T
 241    -13.1215438 -0.101030E+01  0.553E+00    4.24       1.0  T
 242    -13.1628219 -0.412781E-01  0.265E+00    4.01       1.0  T
 243    -13.1721243 -0.930243E-02  0.146E+00    0.79       1.0  T
 244    -12.1112740  0.106085E+01  0.953E+00    0.00       1.0  T
 245    -13.1215515 -0.101028E+01  0.553E+00    4.24       1.0  T
 246    -13.1628162 -0.412647E-01  0.265E+00    4.01       1.0  T
 247    -13.1721384 -0.932213E-02  0.146E+00    0.79       1.0  T
 248    -12.1112995  0.106084E+01  0.953E+00    0.00       1.0  T
 249    -13.1215590 -0.101026E+01  0.553E+00    4.24       1.0  T
 250    -13.1628108 -0.412518E-01  0.265E+00    4.01       1.0  T
     SCC iter.                  ...        0 min,  0.267 sec
     gradient                   ...        0 min,  0.000 sec
 * total energy  :    -7.7515124 Eh     change       -0.3545734E+01 Eh
   gradient norm :    24.6571194 Eh/α   predicted    -0.2226778E+02 ( 528.02%)
   displ. norm   :     0.6004177 α      lambda       -0.1191151E+02
   maximum displ.:     0.4312799 α      in ANC's #12, #11, #8, ...

........................................................................
.............................. CYCLE    3 ..............................
........................................................................
   1    -13.1899931 -0.131900E+02  0.214E+00    5.65       0.0  T
   2    -13.1938527 -0.385955E-02  0.143E+00    3.46       1.0  T
   3    -13.1947658 -0.913080E-03  0.656E-01    1.59       1.0  T
   4    -13.1951457 -0.379958E-03  0.410E-01    0.76       1.0  T
   5    -13.1954786 -0.332852E-03  0.228E-01    0.58       1.0  T
   6    -13.1956661 -0.187549E-03  0.580E-02    0.58       1.0  T
   7    -13.1956730 -0.682244E-05  0.165E-02    0.63       2.5  T
   8    -13.1956729  0.228628E-07  0.583E-03    0.60       7.0  T
   9    -13.1956730 -0.117631E-06  0.270E-04    0.61     150.9  T
     SCC iter.                  ...        0 min,  0.002 sec
     gradient                   ...        0 min,  0.002 sec
 * total energy  :   -12.6196029 Eh     change       -0.4868091E+01 Eh
   gradient norm :     4.5350780 Eh/α   predicted    -0.8102813E+01 (  66.45%)
   displ. norm   :     0.4013989 α      lambda       -0.1737334E+01
   maximum displ.:     0.3957655 α      in ANC's #12, #11, #8, ...

........................................................................
.............................. CYCLE    4 ..............................
........................................................................
   1    -11.8803622 -0.118804E+02  0.975E+00    0.00       0.0  T
   2    -13.0827852 -0.120242E+01  0.568E+00    7.42       1.0  T
   3    -13.1795126 -0.967274E-01  0.312E+00    6.67       1.0  T
   4    -13.1865430 -0.703035E-02  0.233E+00    6.40       1.0  T
   5    -13.1910276 -0.448465E-02  0.157E+00    3.97       1.0  T
   6    -13.1915000 -0.472346E-03  0.148E+00    3.65       1.0  T
   7    -13.1934401 -0.194016E-02  0.969E-01    2.13       1.0  T
   8    -11.8826288  0.131081E+01  0.983E+00    0.00       1.0  T
   9    -13.1914269 -0.130880E+01  0.149E+00    3.83       1.0  T
  10    -13.1915822 -0.155292E-03  0.148E+00    3.86       1.0  T
  11    -13.1936246 -0.204243E-02  0.998E-01    2.40       1.0  T
  12    -13.1942407 -0.616072E-03  0.800E-01    1.82       1.0  T
  13    -13.1944291 -0.188388E-03  0.730E-01    1.62       1.0  T
  14    -13.1954416 -0.101258E-02  0.272E-01    0.39       1.0  T
  15    -13.1955883 -0.146646E-03  0.233E-01    0.34       1.0  T
  16    -13.1961281 -0.539785E-03  0.308E-02    0.23       1.3  T
  17    -11.9074855  0.128864E+01  0.971E+00    0.00       1.0  T
  18    -13.1455261 -0.123804E+01  0.534E+00    6.37       1.0  T
  19    -13.1800123 -0.344862E-01  0.304E+00    6.57       1.0  T
  20    -13.1912331 -0.112208E-01  0.159E+00    4.21       1.0  T
  21    -13.1937155 -0.248237E-02  0.100E+00    2.44       1.0  T
  22    -13.1947051 -0.989647E-03  0.629E-01    1.34       1.0  T
  23    -13.1952423 -0.537159E-03  0.346E-01    0.55       1.0  T
  24    -13.1960269 -0.784672E-03  0.989E-02    0.26       1.0  T
  25    -13.1960272 -0.301655E-06  0.984E-02    0.26       1.0  T
  26    -11.9604360  0.123559E+01  0.951E+00    0.00       1.0  T
  27    -13.1338562 -0.117342E+01  0.594E+00    6.32       1.0  T
  28    -13.1850336 -0.511774E-01  0.251E+00    6.61       1.0  T
  29    -13.1936167 -0.858312E-02  0.103E+00    2.54       1.0  T
  30    -13.1951775 -0.156075E-02  0.382E-01    0.65       1.0  T
  31    -12.3452124  0.849965E+00  0.796E+00    0.01       1.0  T
  32    -13.1514479 -0.806235E+00  0.504E+00    6.39       1.0  T
  33    -13.1886493 -0.372013E-01  0.202E+00    5.53       1.0  T
  34    -13.1944431 -0.579388E-02  0.739E-01    1.66       1.0  T
  35    -13.1958242 -0.138103E-02  0.169E-01    0.29       1.0  T
  36    -12.0487765  0.114705E+01  0.918E+00    0.00       1.0  T
  37    -13.1368724 -0.108810E+01  0.581E+00    6.33       1.0  T
  38    -13.1863287 -0.494563E-01  0.235E+00    6.58       1.0  T
  39    -13.1940403 -0.771163E-02  0.892E-01    2.11       1.0  T
  40    -13.1953453 -0.130492E-02  0.302E-01    0.45       1.0  T
  41    -12.0985731  0.109677E+01  0.898E+00    0.00       1.0  T
  42    -13.1382924 -0.103972E+01  0.574E+00    6.33       1.0  T
  43    -13.1867755 -0.484831E-01  0.229E+00    6.39       1.0  T
  44    -13.1942085 -0.743296E-02  0.831E-01    1.93       1.0  T
  45    -13.1955417 -0.133317E-02  0.244E-01    0.35       1.0  T
  46    -11.9697211  0.122582E+01  0.948E+00    0.00       1.0  T
  47    -13.1295835 -0.115986E+01  0.616E+00    6.30       1.0  T
  48    -13.1856555 -0.560721E-01  0.244E+00    6.62       1.0  T
  49    -13.1941093 -0.845381E-02  0.869E-01    2.04       1.0  T
  50    -13.1956097 -0.150038E-02  0.226E-01    0.33       1.0  T
  51    -11.9200735  0.127554E+01  0.966E+00    0.00       1.0  T
  52    -13.1241980 -0.120412E+01  0.641E+00    6.28       1.0  T
  53    -13.1853083 -0.611103E-01  0.248E+00    6.62       1.0  T
  54    -13.1941528 -0.884451E-02  0.855E-01    2.00       1.0  T
  55    -13.1960253 -0.187246E-02  0.987E-02    0.26       1.0  T
  56    -12.1711086  0.102492E+01  0.870E+00    0.00       1.0  T
  57    -13.1406711 -0.969563E+00  0.563E+00    6.34       1.0  T
  58    -13.1875799 -0.469088E-01  0.217E+00    6.02       1.0  T
  59    -13.1944365 -0.685661E-02  0.740E-01    1.66       1.0  T
  60    -13.1961053 -0.166874E-02  0.522E-02    0.22       1.0  T
  61    -13.1957850  0.320234E-03  0.172E-01    0.20       1.0  T
  62    -13.1953822  0.402842E-03  0.290E-01    0.42       1.0  T
  63    -12.3799644  0.815418E+00  0.780E+00    0.01       1.0  T
  64    -13.1542223 -0.774258E+00  0.490E+00    6.40       1.0  T
  65    -13.1890004 -0.347781E-01  0.195E+00    5.32       1.0  T
  66    -13.1945087 -0.550828E-02  0.705E-01    1.55       1.0  T
  67    -13.1957807 -0.127197E-02  0.183E-01    0.30       1.0  T
  68    -12.5219078  0.673873E+00  0.712E+00    0.01       1.0  T
  69    -13.1606148 -0.638707E+00  0.451E+00    6.43       1.0  T
  70    -13.1900268 -0.294120E-01  0.178E+00    4.79       1.0  T
  71    -13.1946527 -0.462588E-02  0.641E-01    1.36       1.0  T
  72    -13.1959689 -0.131624E-02  0.123E-01    0.27       1.0  T
  73    -13.0402268  0.155742E+00  0.351E+00    0.07       1.0  T
  74    -13.1861152 -0.145888E+00  0.234E+00    6.53       1.0  T
  75    -13.1940235 -0.790824E-02  0.878E-01    2.05       1.0  T
  76    -13.1952849 -0.126146E-02  0.324E-01    0.48       1.0  T
  77    -13.0503534  0.144932E+00  0.340E+00    0.07       1.0  T
  78    -13.1865818 -0.136228E+00  0.228E+00    6.33       1.0  T
  79    -13.1941071 -0.752525E-02  0.849E-01    1.97       1.0  T
  80    -13.1953178 -0.121070E-02  0.312E-01    0.46       1.0  T
  81    -13.0257351  0.169583E+00  0.366E+00    0.06       1.0  T
  82    -13.1853040 -0.159569E+00  0.244E+00    6.62       1.0  T
  83    -13.1939229 -0.861892E-02  0.911E-01    2.15       1.0  T
  84    -13.1952626 -0.133973E-02  0.334E-01    0.51       1.0  T
  85    -13.1153762  0.798864E-01  0.254E+00    0.09       1.0  T
  86    -13.1902610 -0.748847E-01  0.174E+00    4.64       1.0  T
  87    -13.1946509 -0.438993E-02  0.639E-01    1.35       1.0  T
  88    -13.1957567 -0.110586E-02  0.191E-01    0.30       1.0  T
  89    -12.8746884  0.321068E+00  0.499E+00    0.04       1.0  T
  90    -13.1779779 -0.303289E+00  0.320E+00    6.55       1.0  T
  91    -13.1927125 -0.147346E-01  0.125E+00    3.15       1.0  T
  92    -13.1950317 -0.231918E-02  0.452E-01    0.82       1.0  T
  93    -13.1952871 -0.255418E-03  0.268E-01    0.19       1.0  T
  94    -13.1952438  0.433178E-04  0.344E-01    0.54       1.0  T
  95    -13.1891381  0.610568E-02  0.763E-01    0.15       1.0  T
  96    -13.1947423 -0.560418E-02  0.604E-01    1.26       1.0  T
  97    -13.1956392 -0.896854E-03  0.220E-01    0.33       1.0  T
  98    -12.9708478  0.224791E+00  0.420E+00    0.05       1.0  T
  99    -13.1832350 -0.212387E+00  0.268E+00    6.60       1.0  T
 100    -13.1935464 -0.103114E-01  0.103E+00    2.49       1.0  T
 101    -13.1951482 -0.160186E-02  0.389E-01    0.65       1.0  T
 102    -13.1957771 -0.628835E-03  0.174E-01    0.20       1.0  T
 103    -13.1955082  0.268829E-03  0.254E-01    0.36       1.0  T
 104    -13.1578947  0.376136E-01  0.176E+00    0.11       1.0  T
 105    -13.1930040 -0.351094E-01  0.118E+00    2.95       1.0  T
 106    -13.1950311 -0.202709E-02  0.454E-01    0.83       1.0  T
 107    -13.1959544 -0.923225E-03  0.128E-01    0.27       1.0  T
 108    -13.0735845  0.122370E+00  0.312E+00    0.07       1.0  T
 109    -13.1885290 -0.114944E+00  0.201E+00    5.49       1.0  T
 110    -13.1943456 -0.581658E-02  0.764E-01    1.72       1.0  T
 111    -13.1953038 -0.958265E-03  0.317E-01    0.47       1.0  T
 112    -13.1945414  0.762422E-03  0.366E-01    0.18       1.0  T
 113    -13.1951989 -0.657484E-03  0.366E-01    0.59       1.0  T
 114    -13.1961158 -0.916966E-03  0.355E-02    0.24       1.2  T
 115    -13.1697875  0.263284E-01  0.147E+00    0.12       1.0  T
 116    -13.1937008 -0.239133E-01  0.987E-01    2.38       1.0  T
 117    -13.1951414 -0.144062E-02  0.395E-01    0.67       1.0  T
 118    -13.1960222 -0.880777E-03  0.997E-02    0.26       1.0  T
 119    -13.1256856  0.703366E-01  0.238E+00    0.09       1.0  T
 120    -13.1913727 -0.656870E-01  0.154E+00    4.03       1.0  T
 121    -13.1947612 -0.338853E-02  0.589E-01    1.21       1.0  T
 122    -13.1954781 -0.716926E-03  0.262E-01    0.37       1.0  T
 123    -13.1813974  0.140807E-01  0.110E+00    0.13       1.0  T
 124    -13.1943448 -0.129474E-01  0.770E-01    1.74       1.0  T
 125    -13.1952876 -0.942816E-03  0.324E-01    0.49       1.0  T
 126    -13.1959520 -0.664375E-03  0.124E-01    0.21       1.0  T
 127    -13.1959931 -0.411280E-04  0.112E-01    0.26       1.0  T
 128    -13.1493856  0.466076E-01  0.195E+00    0.10       1.0  T
 129    -13.1927172 -0.433316E-01  0.125E+00    3.16       1.0  T
 130    -13.1949579 -0.224072E-02  0.492E-01    0.94       1.0  T
 131    -13.1955560 -0.598162E-03  0.241E-01    0.35       1.0  T
 132    -13.1803522  0.152038E-01  0.114E+00    0.13       1.0  T
 133    -13.1943301 -0.139779E-01  0.775E-01    1.76       1.0  T
 134    -13.1952694 -0.939313E-03  0.332E-01    0.51       1.0  T
 135    -13.1961104 -0.840938E-03  0.422E-02    0.24       1.0  T
 136    -13.1678978  0.282126E-01  0.152E+00    0.12       1.0  T
 137    -13.1936811 -0.257833E-01  0.992E-01    2.40       1.0  T
 138    -13.1951247 -0.144366E-02  0.404E-01    0.69       1.0  T
 139    -13.1957706 -0.645825E-03  0.185E-01    0.30       1.0  T
 140    -13.1225028  0.732678E-01  0.243E+00    0.09       1.0  T
 141    -13.1914045 -0.689018E-01  0.153E+00    4.01       1.0  T
 142    -13.1947532 -0.334865E-02  0.593E-01    1.22       1.0  T
 143    -13.1954280 -0.674878E-03  0.276E-01    0.39       1.0  T
 144    -13.1937995  0.162850E-02  0.443E-01    0.17       1.0  T
 145    -13.1951551 -0.135557E-02  0.389E-01    0.65       1.0  T
 146    -13.1958879 -0.732781E-03  0.150E-01    0.28       1.0  T
 147    -13.0753117  0.120576E+00  0.310E+00    0.07       1.0  T
 148    -13.1892274 -0.113916E+00  0.190E+00    5.16       1.0  T
 149    -13.1944012 -0.517378E-02  0.743E-01    1.66       1.0  T
 150    -13.1952854 -0.884225E-03  0.324E-01    0.49       1.0  T
 151    -13.1961181 -0.832702E-03  0.342E-02    0.24       1.2  T
 152    -13.1822296  0.138885E-01  0.107E+00    0.13       1.0  T
 153    -13.1944399 -0.122103E-01  0.733E-01    1.63       1.0  T
 154    -13.1953002 -0.860288E-03  0.319E-01    0.48       1.0  T
 155    -13.1961286 -0.828354E-03  0.101E-02    0.23       4.1  T
 156    -13.1921067  0.402184E-02  0.581E-01    0.16       1.0  T
 157    -13.1950043 -0.289762E-02  0.471E-01    0.88       1.0  T
 158    -13.1957926 -0.788215E-03  0.178E-01    0.30       1.0  T
 159    -13.1314331  0.643595E-01  0.228E+00    0.09       1.0  T
 160    -13.1919595 -0.605264E-01  0.142E+00    3.67       1.0  T
 161    -13.1948263 -0.286681E-02  0.559E-01    1.12       1.0  T
 162    -13.1954691 -0.642766E-03  0.264E-01    0.37       1.0  T
 163    -13.1920392  0.342990E-02  0.585E-01    0.16       1.0  T
 164    -13.1950008 -0.296158E-02  0.472E-01    0.88       1.0  T
 165    -13.1957783 -0.777562E-03  0.182E-01    0.30       1.0  T
 166    -13.1366852  0.590931E-01  0.219E+00    0.10       1.0  T
 167    -13.1922292 -0.555440E-01  0.136E+00    3.49       1.0  T
 168    -13.1948709 -0.264163E-02  0.537E-01    1.06       1.0  T
 169    -13.1955033 -0.632464E-03  0.255E-01    0.36       1.0  T
 170    -13.1903536  0.514968E-02  0.694E-01    0.15       1.0  T
 171    -13.1948981 -0.454447E-02  0.526E-01    1.04       1.0  T
 172    -13.1956378 -0.739734E-03  0.220E-01    0.33       1.0  T
 173    -13.1660890  0.295488E-01  0.157E+00    0.11       1.0  T
 174    -13.1936640 -0.275750E-01  0.997E-01    2.41       1.0  T
 175    -13.1951254 -0.146135E-02  0.403E-01    0.69       1.0  T
 176    -13.1958268 -0.701443E-03  0.169E-01    0.29       1.0  T
 177    -13.1495668  0.462601E-01  0.194E+00    0.10       1.0  T
 178    -13.1928568 -0.432901E-01  0.121E+00    3.05       1.0  T
 179    -13.1949729 -0.211604E-02  0.484E-01    0.91       1.0  T
 180    -13.1955895 -0.616646E-03  0.233E-01    0.34       1.0  T
 181    -13.1836887  0.119008E-01  0.101E+00    0.14       1.0  T
 182    -13.1945378 -0.108492E-01  0.692E-01    1.51       1.0  T
 183    -13.1953555 -0.817713E-03  0.298E-01    0.43       1.0  T
 184    -13.1957799 -0.424355E-03  0.173E-01    0.20       1.0  T
 185    -13.1956481  0.131849E-03  0.217E-01    0.32       1.0  T
 186    -13.1711371  0.245110E-01  0.143E+00    0.12       1.0  T
 187    -13.1939571 -0.228200E-01  0.906E-01    2.14       1.0  T
 188    -13.1951806 -0.122353E-02  0.374E-01    0.61       1.0  T
 189    -13.1958701 -0.689538E-03  0.156E-01    0.28       1.0  T
 190    -13.1523114  0.435587E-01  0.189E+00    0.10       1.0  T
 191    -13.1930428 -0.407314E-01  0.117E+00    2.91       1.0  T
 192    -13.1949988 -0.195597E-02  0.471E-01    0.88       1.0  T
 193    -13.1955820 -0.583211E-03  0.234E-01    0.34       1.0  T
 194    -13.1873188  0.826324E-02  0.855E-01    0.14       1.0  T
 195    -13.1947470 -0.742823E-02  0.600E-01    1.25       1.0  T
 196    -13.1954706 -0.723616E-03  0.263E-01    0.38       1.0  T
 197    -13.1929019  0.256869E-02  0.521E-01    0.17       1.0  T
 198    -13.1950938 -0.219190E-02  0.422E-01    0.75       1.0  T
 199    -13.1958941 -0.800326E-03  0.148E-01    0.28       1.0  T
 200    -13.1348727  0.610214E-01  0.222E+00    0.09       1.0  T
 201    -13.1923022 -0.574295E-01  0.134E+00    3.44       1.0  T
 202    -13.1948653 -0.256310E-02  0.540E-01    1.07       1.0  T
 203    -13.1954582 -0.592941E-03  0.267E-01    0.38       1.0  T
 204    -13.1951455  0.312757E-03  0.289E-01    0.19       1.0  T
 205    -13.1953255 -0.180037E-03  0.309E-01    0.46       1.0  T
 206    -13.1960491 -0.723581E-03  0.833E-02    0.21       1.0  T
 207    -13.1960693 -0.202678E-04  0.721E-02    0.22       1.0  T
 208    -13.1961283 -0.589931E-04  0.783E-03    0.23       5.2  T
 209    -13.1943890  0.173934E-02  0.384E-01    0.18       1.0  T
 210    -13.1952337 -0.844678E-03  0.349E-01    0.55       1.0  T
 211    -13.1955546 -0.320887E-03  0.241E-01    0.35       1.0  T
 212    -13.1912442  0.431040E-02  0.640E-01    0.16       1.0  T
 213    -13.1950447 -0.380051E-02  0.450E-01    0.82       1.0  T
 214    -13.1955746 -0.529961E-03  0.236E-01    0.34       1.0  T
 215    -13.1849111  0.106635E-01  0.964E-01    0.14       1.0  T
 216    -13.1947160 -0.980487E-02  0.615E-01    1.29       1.0  T
 217    -13.1953922 -0.676266E-03  0.286E-01    0.41       1.0  T
 218    -13.1960671 -0.674876E-03  0.736E-02    0.22       1.0  T
 219    -13.1940178  0.204933E-02  0.422E-01    0.17       1.0  T
 220    -13.1952114 -0.119361E-02  0.360E-01    0.58       1.0  T
 221    -13.1956779 -0.466563E-03  0.209E-01    0.32       1.0  T
 222    -13.1644358  0.312421E-01  0.161E+00    0.11       1.0  T
 223    -13.1938065 -0.293707E-01  0.954E-01    2.28       1.0  T
 224    -13.1951285 -0.132200E-02  0.402E-01    0.69       1.0  T
 225    -13.1955916 -0.463088E-03  0.232E-01    0.34       1.0  T
 226    -13.1850608  0.105308E-01  0.958E-01    0.14       1.0  T
 227    -13.1947099 -0.964908E-02  0.618E-01    1.30       1.0  T
 228    -13.1953897 -0.679828E-03  0.287E-01    0.41       1.0  T
 229    -13.1960861 -0.696373E-03  0.614E-02    0.22       1.0  T
 230    -13.1937289  0.235715E-02  0.450E-01    0.17       1.0  T
 231    -13.1951826 -0.145371E-02  0.375E-01    0.62       1.0  T
 232    -13.1956606 -0.477985E-03  0.214E-01    0.32       1.0  T
 233    -13.1714599  0.242008E-01  0.142E+00    0.12       1.0  T
 234    -13.1941271 -0.226673E-01  0.849E-01    1.97       1.0  T
 235    -13.1951948 -0.106764E-02  0.367E-01    0.60       1.0  T
 236    -13.1956922 -0.497375E-03  0.206E-01    0.31       1.0  T
 237    -13.1665571  0.291350E-01  0.155E+00    0.11       1.0  T
 238    -13.1938883 -0.273312E-01  0.927E-01    2.20       1.0  T
 239    -13.1951427 -0.125433E-02  0.394E-01    0.67       1.0  T
 240    -13.1956266 -0.483897E-03  0.223E-01    0.33       1.0  T
 241    -13.1813787  0.142479E-01  0.110E+00    0.13       1.0  T
 242    -13.1945410 -0.131623E-01  0.691E-01    1.51       1.0  T
 243    -13.1953153 -0.774358E-03  0.313E-01    0.46       1.0  T
 244    -13.1960418 -0.726500E-03  0.893E-02    0.25       1.0  T
 245    -13.1409770  0.550648E-01  0.211E+00    0.10       1.0  T
 246    -13.1928007 -0.518237E-01  0.123E+00    3.09       1.0  T
 247    -13.1949163 -0.211564E-02  0.514E-01    1.00       1.0  T
 248    -13.1954123 -0.496000E-03  0.280E-01    0.40       1.0  T
 249    -13.1961230 -0.710679E-03  0.244E-02    0.23       1.7  T
 250    -13.1932902  0.283280E-02  0.489E-01    0.17       1.0  T
     SCC iter.                  ...        0 min,  1.334 sec
     gradient                   ...        0 min,  0.015 sec
 * total energy  :   -12.6759393 Eh     change       -0.5633635E-01 Eh
   gradient norm :     5.4720883 Eh/α   predicted    -0.1008628E+01 (1690.37%)
   displ. norm   :     0.1835471 α      lambda       -0.8790014E+00
   maximum displ.:     0.1627379 α      in ANC's #12, #11, #8, ...

........................................................................
.............................. CYCLE    5 ..............................
........................................................................
   1    -13.1937999 -0.131938E+02  0.409E-01    0.90       0.0  T
   2    -13.1943692 -0.569341E-03  0.221E-01    0.36       1.0  T
   3    -13.1895565  0.481267E-02  0.664E-01    0.17       1.0  T
   4    -13.1941106 -0.455405E-02  0.266E-01    0.55       1.0  T
   5    -13.1944833 -0.372687E-03  0.108E-01    0.31       1.0  T
   6    -13.1945593 -0.760802E-04  0.651E-02    0.29       1.0  T
   7    -13.1946038 -0.444530E-04  0.180E-03    0.26      22.7  T
   8    -13.1946033  0.481908E-06  0.684E-03    0.26       6.0  T
   9    -13.1946038 -0.452170E-06  0.195E-03    0.26      20.9  T
  10    -13.1946038 -0.379306E-07  0.281E-04    0.26     145.4  T
     SCC iter.                  ...        0 min,  0.002 sec
     gradient                   ...        0 min,  0.001 sec
 * total energy  :   -13.1257588 Eh     change       -0.4498195E+00 Eh
   gradient norm :     0.3506932 Eh/α   predicted    -0.4543072E+00 (   1.00%)
   displ. norm   :     0.2142049 α      lambda       -0.1203982E-01
   maximum displ.:     0.1994587 α      in ANC's #5, #8, #12, ...

........................................................................
.............................. CYCLE    6 ..............................
........................................................................
   1    -13.1947425 -0.131947E+02  0.313E-01    0.41       0.0  T
   2    -13.1943548  0.387627E-03  0.278E-01    0.22       1.0  T
   3    -13.1947692 -0.414389E-03  0.205E-01    0.39       1.0  T
   4    -13.1949164 -0.147133E-03  0.862E-02    0.32       1.0  T
   5    -13.1949566 -0.402174E-04  0.286E-02    0.28       1.4  T
   6    -13.1949551  0.142934E-05  0.288E-02    0.29       1.4  T
   7    -13.1949592 -0.406002E-05  0.517E-03    0.28       7.9  T
   8    -13.1949593 -0.121964E-06  0.123E-03    0.28      33.3  T
     SCC iter.                  ...        0 min,  0.022 sec
     gradient                   ...        0 min,  0.001 sec
 * total energy  :   -13.1331618 Eh     change       -0.7403008E-02 Eh
   gradient norm :     0.0547287 Eh/α   predicted    -0.6296125E-02 ( -14.95%)
   displ. norm   :     0.1183361 α      lambda       -0.1855593E-02
   maximum displ.:     0.1076467 α      in ANC's #5, #8, #12, ...

........................................................................
.............................. CYCLE    7 ..............................
........................................................................
   1    -13.1908480 -0.131908E+02  0.147E-01    0.29       0.0  T
   2    -13.1908591 -0.110928E-04  0.101E-01    0.29       1.0  T
   3    -13.1908362  0.228615E-04  0.602E-02    0.27       1.0  T
   4    -13.1908329  0.334673E-05  0.654E-02    0.32       1.0  T
   5    -13.1908599 -0.270358E-04  0.296E-02    0.30       1.4  T
   6    -13.1908573  0.259333E-05  0.249E-02    0.28       1.6  T
   7    -13.1908526  0.477926E-05  0.381E-02    0.31       1.1  T
   8    -13.1908649 -0.123487E-04  0.178E-03    0.29      23.0  T
   9    -13.1908649 -0.220744E-07  0.942E-04    0.29      43.3  T
  10    -13.1908649 -0.900249E-08  0.939E-06    0.29    4346.7  T
     SCC iter.                  ...        0 min,  0.017 sec
     gradient                   ...        0 min,  0.001 sec
 * total energy  :   -13.1340705 Eh     change       -0.9086668E-03 Eh
   gradient norm :     0.0224232 Eh/α   predicted    -0.9407795E-03 (   3.53%)
   displ. norm   :     0.0063438 α      lambda       -0.1890609E-04
   maximum displ.:     0.0061863 α      in ANC's #5, #8, #12, ...

........................................................................
.............................. CYCLE    8 ..............................
........................................................................
   1    -13.1909530 -0.131910E+02  0.112E-02    0.28       0.0  T
   2    -13.1909520  0.103164E-05  0.137E-02    0.29       3.0  T
   3    -13.1909537 -0.165926E-05  0.472E-03    0.29       8.6  T
   4    -13.1909537 -0.403741E-07  0.197E-03    0.29      20.8  T
     SCC iter.                  ...        0 min,  0.015 sec
     gradient                   ...        0 min,  0.010 sec
 * total energy  :   -13.1340803 Eh     change       -0.9817092E-05 Eh
   gradient norm :     0.0011263 Eh/α   predicted    -0.9453225E-05 (  -3.71%)
   displ. norm   :     0.0004762 α      lambda       -0.8780148E-07
   maximum displ.:     0.0004182 α      in ANC's #8, #5, #1, ...

........................................................................
.............................. CYCLE    9 ..............................
........................................................................
   1    -13.1908975 -0.131909E+02  0.120E-03    0.29       0.0  T
   2    -13.1908975  0.140358E-07  0.146E-03    0.29      27.9  T
   3    -13.1908975 -0.208293E-07  0.560E-04    0.29      72.9  T
   4    -13.1908975 -0.815508E-09  0.359E-04    0.29     113.6  T
     SCC iter.                  ...        0 min,  0.001 sec
     gradient                   ...        0 min,  0.001 sec
 * total energy  :   -13.1340803 Eh     change       -0.6406388E-07 Eh
   gradient norm :     0.0005897 Eh/α   predicted    -0.4203985E-07 ( -34.38%)
   displ. norm   :     0.0001235 α      lambda       -0.9542025E-08
   maximum displ.:     0.0001142 α      in ANC's #8, #1, #2, ...

   *** GEOMETRY OPTIMIZATION CONVERGED AFTER 9 ITERATIONS ***

------------------------------------------------------------------------
 total energy gain   :        -8.9283021 Eh    -5602.5942 kcal/mol
 total RMSD          :         0.3537732 a0        0.1872 Å
 total power (kW/mol):     -2604.5837852 (step)********** (real)
------------------------------------------------------------------------

 ANCopt (total)                0 d,  0 h,  0 min,  1.715 sec
 optimizer setup                ...        0 min,  0.000 sec (  0.003%)
 model hessian                  ...        0 min,  0.000 sec (  0.004%)
 ANC generation                 ...        0 min,  0.000 sec (  0.010%)
 coordinate transformation      ...        0 min,  0.000 sec (  0.002%)
 single point calculation       ...        0 min,  1.707 sec ( 99.524%)
 optimization log               ...        0 min,  0.000 sec (  0.015%)
 hessian update                 ...        0 min,  0.007 sec (  0.404%)
 rational function              ...        0 min,  0.000 sec (  0.020%)

================
 final structure:
================
6
 xtb: 6.2.3 (830e466)
F        -3.72276025048793   -0.21624753200397    0.07033081589319
Cl        1.54729414191631    0.09265877222338   -0.02361065366677
C        -0.22936226359734   -0.01343553751437    0.00394158076872
H        -0.55909700647470   -0.59358887644136   -0.85051298835174
H        -0.53764033550446   -0.49764030724537    0.92367341260760
H        -0.64134428585189    0.98819348098169   -0.04511216725100
 
 Bond Distances (Angstroems)
 ---------------------------
Cl2-C3=1.7800        C3-Cl2=1.7800        C3-H4=1.0842         C3-H5=1.0842         C3-H6=1.0842         H4-C3=1.0842         
H5-C3=1.0842         H6-C3=1.0842         
 C  H  Rav=1.0842 sigma=0.0000  Rmin=1.0842  Rmax=1.0842     3
 Cl C  Rav=1.7800 sigma=0.0000  Rmin=1.7800  Rmax=1.7800     1
 
 selected bond angles (degree)
 --------------------
H4-C3-Cl2=108.86               H5-C3-Cl2=108.88               H5-C3-H4=110.07                H6-C3-Cl2=108.88               
H6-C3-H4=110.07                H6-C3-H5=110.06                
 
 selected dihedral angles (degree)
 ---------------------------------

 
 CMA Distance (Angstroems)
 ---------------------------
R(CMA):  4.7289
           -------------------------------------------------
          |                Final Singlepoint                |
           -------------------------------------------------

          ...................................................
          :                      SETUP                      :
          :.................................................:
          :  # basis functions                  21          :
          :  # atomic orbitals                  20          :
          :  # shells                           10          :
          :  # electrons                        22          :
          :  max. iterations                   250          :
          :  Hamiltonian                  GFN2-xTB          :
          :  restarted?                      false          :
          :  GBSA solvation                  false          :
          :  PC potential                    false          :
          :  electronic temp.          300.0000000     K    :
          :  accuracy                    1.0000000          :
          :  -> integral cutoff          0.2500000E+02      :
          :  -> integral neglect         0.1000000E-07      :
          :  -> SCF convergence          0.1000000E-05 Eh   :
          :  -> wf. convergence          0.1000000E-03 e    :
          :  Broyden damping             0.4000000          :
          ...................................................

 iter      E             dE          RMSdq      gap      omega  full diag
   1    -13.1908975 -0.131909E+02  0.290E-04    0.29       0.0  T
   2    -13.1908975  0.619654E-09  0.291E-04    0.29     140.1  T
   3    -13.1908975 -0.820506E-09  0.218E-04    0.29     187.5  T

   *** convergence criteria satisfied after 3 iterations ***

         #    Occupation            Energy/Eh            Energy/eV
      -------------------------------------------------------------
         1        2.0000           -0.9439490             -25.6862
       ...           ...                  ...                  ...
         5        2.0000           -0.3802829             -10.3480
         6        2.0000           -0.3165039              -8.6125
         7        2.0000           -0.3030334              -8.2460
         8        2.0000           -0.3030241              -8.2457
         9        1.9972           -0.0574155              -1.5624
        10        1.9953           -0.0569305              -1.5492
        11        1.9953           -0.0569302              -1.5491 (HOMO)
        12        0.0122           -0.0463426              -1.2610 (LUMO)
        13                          0.1350553               3.6750
        14                          0.1350596               3.6752
        15                          0.1390298               3.7832
        16                          0.1390326               3.7833
       ...                                ...                  ...
        20                          0.3399537               9.2506
      -------------------------------------------------------------
                  HL-Gap            0.0105875 Eh            0.2881 eV
             Fermi-level           -0.0511807 Eh           -1.3927 eV

 SCC (total)                   0 d,  0 h,  0 min,  0.012 sec
 SCC setup                      ...        0 min,  0.000 sec (  0.408%)
 Dispersion                     ...        0 min,  0.000 sec (  0.063%)
 integral evaluation            ...        0 min,  0.008 sec ( 65.027%)
 zeroth order Hamiltonian       ...        0 min,  0.000 sec (  0.135%)
 iterations                     ...        0 min,  0.003 sec ( 22.199%)
 molecular gradient             ...        0 min,  0.001 sec ( 11.530%)
 printout                       ...        0 min,  0.000 sec (  0.456%)

         :::::::::::::::::::::::::::::::::::::::::::::::::::::
         ::                     SUMMARY                     ::
         :::::::::::::::::::::::::::::::::::::::::::::::::::::
         :: total energy             -13.134080330644 Eh    ::
         :: gradient norm              0.000592229300 Eh/a0 ::
         :: HOMO-LUMO gap              0.288101584875 eV    ::
         ::.................................................::
         :: SCC energy               -13.190897512575 Eh    ::
         :: -> isotropic ES            0.269475669719 Eh    ::
         :: -> anisotropic ES         -0.001123315902 Eh    ::
         :: -> anisotropic XC          0.000693808272 Eh    ::
         :: -> dispersion             -0.001762682888 Eh    ::
         :: repulsion energy           0.056817849821 Eh    ::
         :: add. restraining           0.000000332217 Eh    ::
         :::::::::::::::::::::::::::::::::::::::::::::::::::::

           -------------------------------------------------
          |                Property Printout                |
           -------------------------------------------------

    * Orbital Energies and Occupations

         #    Occupation            Energy/Eh            Energy/eV
      -------------------------------------------------------------
         1        2.0000           -0.9439490             -25.6862
         2        2.0000           -0.4852937             -13.2055
         3        2.0000           -0.3858491             -10.4995
         4        2.0000           -0.3857911             -10.4979
         5        2.0000           -0.3802829             -10.3480
         6        2.0000           -0.3165039              -8.6125
         7        2.0000           -0.3030334              -8.2460
         8        2.0000           -0.3030241              -8.2457
         9        1.9972           -0.0574155              -1.5624
        10        1.9953           -0.0569305              -1.5492
        11        1.9953           -0.0569302              -1.5491 (HOMO)
        12        0.0122           -0.0463426              -1.2610 (LUMO)
        13                          0.1350553               3.6750
        14                          0.1350596               3.6752
        15                          0.1390298               3.7832
        16                          0.1390326               3.7833
        17                          0.2513270               6.8390
        18                          0.2895068               7.8779
        19                          0.3399364               9.2501
        20                          0.3399537               9.2506
      -------------------------------------------------------------
                  HL-Gap            0.0105875 Eh            0.2881 eV
             Fermi-level           -0.0511807 Eh           -1.3927 eV

     #   Z        covCN         q      C6AA      α(0)
     1   9 F      0.000    -0.969    23.817     5.684
     2  17 Cl     0.888    -0.264   107.532    15.864
     3   6 C      3.663    -0.002    20.884     6.555
     4   1 H      0.925     0.078     1.998     2.211
     5   1 H      0.925     0.078     1.995     2.209
     6   1 H      0.925     0.078     1.995     2.209

 Mol. C6AA /au·bohr⁶  :        571.671873
 Mol. C8AA /au·bohr⁸  :      15835.698732
 Mol. α(0) /au        :         34.731836


Wiberg/Mayer (AO) data.
largest (>0.10) Wiberg bond orders for each atom
          total WBO             WBO to atom ...
     1  F   0.037
     2  Cl  0.965        C    3 0.926
     3  C   3.902        H    4 0.987    H    6 0.987    H    5 0.987    Cl   2 0.926
     4  H   0.994        C    3 0.987
     5  H   0.994        C    3 0.987
     6  H   0.994        C    3 0.987

molecular dipole:
                 x           y           z       tot (Debye)
 q only:        5.786       0.335      -0.112
   full:        5.450       0.315      -0.107      13.878
molecular quadrupole (traceless):
                xx          xy          yy          xz          yz          zz
 q only:      -50.273      -4.396      25.022       1.413       0.081      25.251
  q+dip:      -53.147      -4.653      26.452       1.481       0.085      26.695
   full:      -52.081      -4.557      25.922       1.457       0.084      26.159

           -------------------------------------------------
          |                Geometry Summary                 |
           -------------------------------------------------

      molecular mass/u    :       69.4858989
   center of mass at/Å    :       -0.2932548      -0.0156659       0.0082710
  moments of inertia/u·Å² :        0.3182618E+01   0.3467292E+03   0.3467298E+03
rotational constants/cm⁻¹ :        0.5296781E+01   0.4861901E-01   0.4861894E-01

 * 4 selected distances

     #   Z        #   Z                                     value/Å
     2  17 Cl     3   6 C                                 1.7800346 (max)
     3   6 C      4   1 H                                 1.0841566 (min)
     3   6 C      5   1 H                                 1.0841569
     3   6 C      6   1 H                                 1.0841569

 * 2 distinct bonds (by element types)

   Z      Z             #   av. dist./Å        max./Å        min./Å
   1 H    6 C           3     1.0841568     1.0841569     1.0841566
   6 C   17 Cl          1     1.7800346     1.7800346     1.7800346


optimized geometry written to: xtbopt.xyz


           -------------------------------------------------
          | TOTAL ENERGY              -13.134080330644 Eh   |
          | GRADIENT NORM               0.000592229300 Eh/α |
          | HOMO-LUMO GAP               0.288101584875 eV   |
           -------------------------------------------------
########################################################################
[WARNING] Runtime exception occurred
-2- scf: Self consistent charge iterator did not converge
-1- scf: Self consistent charge iterator did not converge
########################################################################

------------------------------------------------------------------------
 * finished run on 2020/04/08 at 13:05:31.327     
------------------------------------------------------------------------
 total:
 * wall-time:     0 d,  0 h,  0 min,  1.790 sec
 *  cpu-time:     0 d,  0 h,  0 min,  3.693 sec
 * ratio c/w:     2.063 speedup
 SCF:
 * wall-time:     0 d,  0 h,  0 min,  0.043 sec
 *  cpu-time:     0 d,  0 h,  0 min,  0.101 sec
 * ratio c/w:     2.337 speedup
 ANC optimizer:
 * wall-time:     0 d,  0 h,  0 min,  1.728 sec
 *  cpu-time:     0 d,  0 h,  0 min,  3.550 sec
 * ratio c/w:     2.054 speedup

