      -----------------------------------------------------------      
     |                   =====================                   |     
     |                           x T B                           |     
     |                   =====================                   |     
     |                         S. Grimme                         |     
     |          Mulliken Center for Theoretical Chemistry        |     
     |                    University of Bonn                     |     
      -----------------------------------------------------------      

   * xtb version 6.2.3 (830e466) compiled by 'ehlert@majestix' on 2020-03-16

   xtb is free software: you can redistribute it and/or modify it under
   the terms of the GNU Lesser General Public License as published by
   the Free Software Foundation, either version 3 of the License, or
   (at your option) any later version.
   
   xtb is distributed in the hope that it will be useful,
   but WITHOUT ANY WARRANTY; without even the implied warranty of
   MERCHANTABILITY or FITNESS FOR A PARTICULAR PURPOSE.  See the
   GNU Lesser General Public License for more details.
   
   Cite this work as:
   * S. Grimme, C. Bannwarth, P. Shushkov, J. Chem. Theory Comput., 2017,
     13, 1989-2009. DOI: 10.1021/acs.jctc.7b00118
   * C. Bannwarth, S. Ehlert and S. Grimme., J. Chem. Theory Comput., 2019,
     15, 1652-1671. DOI: 10.1021/acs.jctc.8b01176
   * P. Pracht, E. Caldeweyher, S. Ehlert, S. Grimme, ChemRxiv, 2019, preprint.
     DOI: 10.26434/chemrxiv.8326202.v1
   
   for DFT-D4:
   * E. Caldeweyher, C. Bannwarth and S. Grimme, J. Chem. Phys., 2017,
     147, 034112. DOI: 10.1063/1.4993215
   * E. Caldeweyher, S. Ehlert, A. Hansen, H. Neugebauer, S. Spicher,
     C. Bannwarth and S. Grimme, J. Chem. Phys., 2019, 150, 154122.
     DOI: 10.1063/1.5090222
   
   for sTDA-xTB:
   * S. Grimme and C. Bannwarth, J. Chem. Phys., 2016, 145, 054103.
     DOI: 10.1063/1.4959605
   
   in the mass-spec context:
   * V. Asgeirsson, C. Bauer and S. Grimme, Chem. Sci., 2017, 8, 4879.
     DOI: 10.1039/c7sc00601b
   
   for metadynamics refer to:
   * S. Grimme, J. Chem. Theory Comput., 2019, 155, 2847-2862
     DOI: 10.1021/acs.jctc.9b00143
   
   with help from (in alphabetical order)
   C. Bannwarth, F. Bohle, G. Brandenburg, E. Caldeweyher, M. Checinski,
   S. Dohm, S. Ehlert, S. Ehrlich, F. März, H. Neugebauer, J. Pisarek,
   P. Pracht, P. Shushkov, and S. Spicher.
   
 * started run on 2020/04/08 at 23:04:48.315     

           -------------------------------------------------
          |                Calculation Setup                |
           -------------------------------------------------

          program call               : /home/tom/.local/bin/xtb SN2_PES_scan_1-7_xtb.xyz --chrg -1 --opt --input xcontrol_SN2_PES_scan_1-7
          coordinate file            : SN2_PES_scan_1-7_xtb.xyz
          omp threads                :                     1
          number of atoms            :                     6
          number of electrons        :                    22
          charge                     :                    -1
          spin                       :                   0.0
          first test random number   :      0.83558337391568

constraining bond 1 3 to    3.7050000 Å, actual value:    4.0050049 Å
constraining bond 2 3 to    3.8830000 Å, actual value:    3.5828427 Å

molecular fragmentation (1/2 indicates fragments):
122222
# atoms in fragment 1/2:     1     5
 fragment masses (1/2) :       19.00       50.49
CMA distance (Bohr)    :  12.324
constraining FC (au)   : 10.0000
########################################################################
[WARNING] Please study the warnings concerning your input carefully
-2- prog_main: XTBPATH is not set, using XTBHOME instead
-1- prog_main: XTBHOME is not set, using HOME instead
########################################################################
           ------------------------------------------------- 
          |                 G F N 2 - x T B                 |
          | Geometry, Frequencies, Noncovalent interactions |
          |            JCTC 2019 parametrisation            |
           ------------------------------------------------- 
             k(s)              :                1.8500
             k(p)              :                2.2300
             k(d)              :                2.2300
             k(f)              :                2.0000
             kEN (H0ij)        :               -2.0000
             D4 a1             :                0.5200
             D4 a2             :                5.0000
             D4 s6             :                1.0000
             D4 s8             :                2.7000
             D4 s9             :                5.0000
             alphaj            :                2.0000

  Z AO/shell   Hii/eV     exponent
  1     Wed Apr 25 08:07:45 CEST 2018   EN: 2.200 GM2: 0.406  GM3: 0.0800  RAES: 1.40
     1s    -10.707211    1.230000
  6     Wed Apr 25 08:07:45 CEST 2018   EN: 2.550 GM2: 0.538  GM3: 0.1500  RAES: 3.00
     2s    -13.970922    2.096432
     2p    -10.063292    1.800000
  9     Mon Apr 23 13:58:50 CEST 2018   EN: 3.980 GM2: 0.532  GM3: 0.1426  RAES: 2.40
     2s    -23.458179    2.416361
     2p    -15.746583    2.308399
 17     Mon Apr 23 14:09:22 CEST 2018   EN: 3.160 GM2: 0.249  GM3: 0.1495  RAES: 2.50
     3s    -29.278781    2.485265
     3p    -12.673758    2.199650
     3d     -0.240338    2.476089

           ------------------------------------------------- 
          |        Self-Consistent Charge Iterations        |
           ------------------------------------------------- 

          ...................................................
          :                      SETUP                      :
          :.................................................:
          :  # basis functions                  21          :
          :  # atomic orbitals                  20          :
          :  # shells                           10          :
          :  # electrons                        22          :
          :  max. iterations                   250          :
          :  Hamiltonian                  GFN2-xTB          :
          :  restarted?                      false          :
          :  GBSA solvation                  false          :
          :  PC potential                    false          :
          :  electronic temp.          300.0000000     K    :
          :  accuracy                    1.0000000          :
          :  -> integral cutoff          0.2500000E+02      :
          :  -> integral neglect         0.1000000E-07      :
          :  -> SCF convergence          0.1000000E-05 Eh   :
          :  -> wf. convergence          0.1000000E-03 e    :
          :  Broyden damping             0.4000000          :
          ...................................................

 iter      E             dE          RMSdq      gap      omega  full diag
   1    -12.7970907 -0.127971E+02  0.105E+01    1.18       0.0  T
   2    -12.0973160  0.699775E+00  0.106E+01    0.00       1.0  T
   3    -12.6360860 -0.538770E+00  0.837E+00    0.04       1.0  T
   4    -12.8401995 -0.204113E+00  0.820E+00    1.60       1.0  T
   5    -12.4953341  0.344865E+00  0.985E+00    0.00       1.0  T
   6    -12.5139425 -0.186084E-01  0.965E+00    0.01       1.0  T
   7    -12.2157387  0.298204E+00  0.103E+01    0.00       1.0  T
   8    -12.2244138 -0.867510E-02  0.967E+00    0.00       1.0  T
   9    -12.2200047  0.440914E-02  0.101E+01    0.00       1.0  T
  10    -12.2171596  0.284508E-02  0.104E+01    0.00       1.0  T
  11    -12.2163541  0.805439E-03  0.105E+01    0.00       1.0  T
  12    -12.2232344 -0.688028E-02  0.988E+00    0.00       1.0  T
  13    -12.8776992 -0.654465E+00  0.642E+00    0.47       1.0  T
  14    -12.1959666  0.681733E+00  0.117E+01    0.00       1.0  T
  15    -12.2161200 -0.201534E-01  0.100E+01    0.00       1.0  T
  16    -12.8994274 -0.683307E+00  0.590E+00    0.51       1.0  T
  17    -12.2141625  0.685265E+00  0.976E+00    0.00       1.0  T
  18    -13.0406991 -0.826537E+00  0.404E+00    0.17       1.0  T
  19    -12.8145509  0.226148E+00  0.780E+00    0.06       1.0  T
  20    -12.2009463  0.613605E+00  0.106E+01    0.00       1.0  T
  21    -12.3407223 -0.139776E+00  0.940E+00    0.00       1.0  T
  22    -12.2092672  0.131455E+00  0.985E+00    0.00       1.0  T
  23    -13.0483375 -0.839070E+00  0.417E+00    0.15       1.0  T
  24    -12.8990438  0.149294E+00  0.613E+00    0.67       1.0  T
  25    -12.2190208  0.680023E+00  0.963E+00    0.00       1.0  T
  26    -12.9020818 -0.683061E+00  0.618E+00    0.51       1.0  T
  27    -12.9068051 -0.472330E-02  0.580E+00    0.42       1.0  T
  28    -12.9256021 -0.187970E-01  0.561E+00    0.40       1.0  T
  29    -12.9634930 -0.378909E-01  0.512E+00    0.28       1.0  T
  30    -12.9518079  0.116850E-01  0.534E+00    0.30       1.0  T
  31    -12.9529743 -0.116631E-02  0.533E+00    0.30       1.0  T
  32    -12.9921025 -0.391282E-01  0.486E+00    0.22       1.0  T
  33    -12.9707420  0.213605E-01  0.517E+00    0.25       1.0  T
  34    -12.9826003 -0.118583E-01  0.497E+00    0.23       1.0  T
  35    -12.9782468  0.435352E-02  0.500E+00    0.24       1.0  T
  36    -12.9867246 -0.847785E-02  0.481E+00    0.23       1.0  T
  37    -12.9892067 -0.248206E-02  0.463E+00    0.23       1.0  T
  38    -13.0164622 -0.272555E-01  0.378E+00    0.19       1.0  T
  39    -12.2133462  0.803116E+00  0.968E+00    0.00       1.0  T
  40    -12.9394957 -0.726149E+00  0.597E+00    0.07       1.0  T
  41    -12.2165377  0.722958E+00  0.989E+00    0.00       1.0  T
  42    -12.8884010 -0.671863E+00  0.668E+00    0.55       1.0  T
  43    -12.9533687 -0.649678E-01  0.527E+00    0.29       1.0  T
  44    -13.0417521 -0.883834E-01  0.339E+00    0.15       1.0  T
  45    -13.0345774  0.717471E-02  0.363E+00    0.15       1.0  T
  46    -13.0472593 -0.126819E-01  0.271E+00    0.11       1.0  T
  47    -12.2085709  0.838688E+00  0.102E+01    0.00       1.0  T
  48    -12.9942782 -0.785707E+00  0.468E+00    0.22       1.0  T
  49    -13.0230815 -0.288033E-01  0.363E+00    0.18       1.0  T
  50    -12.7025546  0.320527E+00  0.645E+00    0.00       1.0  T
  51    -13.0367752 -0.334221E+00  0.389E+00    0.10       1.0  T
  52    -12.3030230  0.733752E+00  0.904E+00    0.00       1.0  T
  53    -12.9327896 -0.629767E+00  0.595E+00    0.33       1.0  T
  54    -13.0377400 -0.104950E+00  0.363E+00    0.16       1.0  T
  55    -12.9946600  0.430800E-01  0.422E+00    0.22       1.0  T
  56    -13.0486623 -0.540023E-01  0.274E+00    0.14       1.0  T
  57    -12.2118067  0.836856E+00  0.983E+00    0.00       1.0  T
  58    -13.0439798 -0.832173E+00  0.371E+00    0.15       1.0  T
  59    -12.9788040  0.651758E-01  0.451E+00    0.25       1.0  T
  60    -13.0482133 -0.694092E-01  0.275E+00    0.14       1.0  T
  61    -12.2122007  0.836013E+00  0.980E+00    0.00       1.0  T
  62    -13.0447926 -0.832592E+00  0.366E+00    0.14       1.0  T
  63    -12.9821971  0.625956E-01  0.444E+00    0.24       1.0  T
  64    -13.0460711 -0.638741E-01  0.283E+00    0.14       1.0  T
  65    -12.2126806  0.833390E+00  0.975E+00    0.00       1.0  T
  66    -13.0473334 -0.834653E+00  0.359E+00    0.14       1.0  T
  67    -12.9787764  0.685570E-01  0.450E+00    0.25       1.0  T
  68    -13.0444430 -0.656666E-01  0.288E+00    0.15       1.0  T
  69    -12.2130109  0.831432E+00  0.972E+00    0.00       1.0  T
  70    -13.0482011 -0.835190E+00  0.354E+00    0.14       1.0  T
  71    -12.9789904  0.692107E-01  0.448E+00    0.25       1.0  T
  72    -13.0431944 -0.642039E-01  0.291E+00    0.15       1.0  T
  73    -12.2132288  0.829966E+00  0.970E+00    0.00       1.0  T
  74    -13.0486338 -0.835405E+00  0.350E+00    0.13       1.0  T
  75    -12.9803113  0.683226E-01  0.445E+00    0.25       1.0  T
  76    -13.0423510 -0.620397E-01  0.294E+00    0.15       1.0  T
  77    -12.2133772  0.828974E+00  0.969E+00    0.00       1.0  T
  78    -13.0488517 -0.835474E+00  0.347E+00    0.13       1.0  T
  79    -12.9824290  0.664227E-01  0.441E+00    0.24       1.0  T
  80    -13.0417622 -0.593333E-01  0.295E+00    0.15       1.0  T
  81    -12.2134826  0.828280E+00  0.968E+00    0.00       1.0  T
  82    -13.0489858 -0.835503E+00  0.344E+00    0.13       1.0  T
  83    -12.9847705  0.642152E-01  0.436E+00    0.24       1.0  T
  84    -13.0412910 -0.565205E-01  0.296E+00    0.15       1.0  T
  85    -12.2135638  0.827727E+00  0.967E+00    0.00       1.0  T
  86    -13.0490848 -0.835521E+00  0.341E+00    0.13       1.0  T
  87    -12.9870432  0.620417E-01  0.431E+00    0.24       1.0  T
  88    -13.0408691 -0.538259E-01  0.297E+00    0.15       1.0  T
  89    -12.2136317  0.827237E+00  0.967E+00    0.00       1.0  T
  90    -13.0491644 -0.835533E+00  0.339E+00    0.13       1.0  T
  91    -12.9891685  0.599959E-01  0.426E+00    0.23       1.0  T
  92    -13.0404730 -0.513046E-01  0.298E+00    0.15       1.0  T
  93    -12.2136912  0.826782E+00  0.966E+00    0.00       1.0  T
  94    -13.0492289 -0.835538E+00  0.336E+00    0.13       1.0  T
  95    -12.9911474  0.580816E-01  0.422E+00    0.23       1.0  T
  96    -13.0400962 -0.489488E-01  0.299E+00    0.16       1.0  T
  97    -12.2137444  0.826352E+00  0.966E+00    0.00       1.0  T
  98    -13.0492806 -0.835536E+00  0.334E+00    0.13       1.0  T
  99    -12.9929945  0.562861E-01  0.418E+00    0.23       1.0  T
 100    -13.0397365 -0.467420E-01  0.300E+00    0.16       1.0  T
 101    -12.2137925  0.825944E+00  0.965E+00    0.00       1.0  T
 102    -13.0493207 -0.835528E+00  0.333E+00    0.13       1.0  T
 103    -12.9947230  0.545977E-01  0.414E+00    0.22       1.0  T
 104    -13.0393933 -0.446703E-01  0.300E+00    0.16       1.0  T
 105    -12.2138359  0.825557E+00  0.965E+00    0.00       1.0  T
 106    -13.0493505 -0.835515E+00  0.331E+00    0.13       1.0  T
 107    -12.9963436  0.530069E-01  0.411E+00    0.22       1.0  T
 108    -13.0390662 -0.427225E-01  0.301E+00    0.16       1.0  T
 109    -12.2138751  0.825191E+00  0.965E+00    0.00       1.0  T
 110    -13.0493713 -0.835496E+00  0.330E+00    0.13       1.0  T
 111    -12.9978651  0.515062E-01  0.408E+00    0.22       1.0  T
 112    -13.0387548 -0.408897E-01  0.302E+00    0.16       1.0  T
 113    -12.2139104  0.824844E+00  0.964E+00    0.00       1.0  T
 114    -13.0493838 -0.835473E+00  0.328E+00    0.13       1.0  T
 115    -12.9992947  0.500890E-01  0.404E+00    0.22       1.0  T
 116    -13.0384593 -0.391646E-01  0.302E+00    0.16       1.0  T
 117    -12.2139420  0.824517E+00  0.964E+00    0.00       1.0  T
 118    -13.0493889 -0.835447E+00  0.327E+00    0.13       1.0  T
 119    -13.0006388  0.487501E-01  0.402E+00    0.21       1.0  T
 120    -13.0381797 -0.375409E-01  0.303E+00    0.16       1.0  T
 121    -12.2139701  0.824210E+00  0.964E+00    0.00       1.0  T
 122    -13.0493876 -0.835418E+00  0.326E+00    0.13       1.0  T
 123    -13.0019028  0.474848E-01  0.399E+00    0.21       1.0  T
 124    -13.0379165 -0.360137E-01  0.304E+00    0.16       1.0  T
 125    -12.2139948  0.823922E+00  0.964E+00    0.00       1.0  T
 126    -13.0493804 -0.835386E+00  0.326E+00    0.13       1.0  T
 127    -13.0030914  0.462890E-01  0.396E+00    0.21       1.0  T
 128    -13.0376701 -0.345787E-01  0.304E+00    0.16       1.0  T
 129    -12.2140161  0.823654E+00  0.964E+00    0.00       1.0  T
 130    -13.0493682 -0.835352E+00  0.325E+00    0.13       1.0  T
 131    -13.0042090  0.451592E-01  0.394E+00    0.21       1.0  T
 132    -13.0374414 -0.332324E-01  0.305E+00    0.16       1.0  T
 133    -12.2140341  0.823407E+00  0.963E+00    0.00       1.0  T
 134    -13.0493515 -0.835317E+00  0.324E+00    0.13       1.0  T
 135    -13.0052593  0.440922E-01  0.392E+00    0.21       1.0  T
 136    -13.0372314 -0.319721E-01  0.305E+00    0.16       1.0  T
 137    -12.2140488  0.823183E+00  0.963E+00    0.00       1.0  T
 138    -13.0493309 -0.835282E+00  0.324E+00    0.13       1.0  T
 139    -13.0062457  0.430852E-01  0.389E+00    0.21       1.0  T
 140    -13.0370414 -0.307957E-01  0.306E+00    0.16       1.0  T
 141    -12.2140602  0.822981E+00  0.963E+00    0.00       1.0  T
 142    -13.0493071 -0.835247E+00  0.323E+00    0.13       1.0  T
 143    -13.0071715  0.421357E-01  0.387E+00    0.20       1.0  T
 144    -13.0368730 -0.297015E-01  0.306E+00    0.16       1.0  T
 145    -12.2140682  0.822805E+00  0.963E+00    0.00       1.0  T
 146    -13.0492808 -0.835213E+00  0.323E+00    0.13       1.0  T
 147    -13.0080393  0.412415E-01  0.386E+00    0.20       1.0  T
 148    -13.0367282 -0.286889E-01  0.306E+00    0.16       1.0  T
 149    -12.2140728  0.822655E+00  0.963E+00    0.00       1.0  T
 150    -13.0492523 -0.835180E+00  0.322E+00    0.13       1.0  T
 151    -13.0088518  0.404006E-01  0.384E+00    0.20       1.0  T
 152    -13.0366094 -0.277576E-01  0.306E+00    0.16       1.0  T
 153    -12.2140739  0.822536E+00  0.963E+00    0.00       1.0  T
 154    -13.0492225 -0.835149E+00  0.322E+00    0.13       1.0  T
 155    -13.0096111  0.396114E-01  0.382E+00    0.20       1.0  T
 156    -13.0365194 -0.269083E-01  0.307E+00    0.16       1.0  T
 157    -12.2140715  0.822448E+00  0.963E+00    0.00       1.0  T
 158    -13.0491919 -0.835120E+00  0.322E+00    0.13       1.0  T
 159    -13.0103195  0.388724E-01  0.381E+00    0.20       1.0  T
 160    -13.0364616 -0.261422E-01  0.307E+00    0.16       1.0  T
 161    -12.2140654  0.822396E+00  0.963E+00    0.00       1.0  T
 162    -13.0491610 -0.835096E+00  0.322E+00    0.14       1.0  T
 163    -13.0109786  0.381825E-01  0.379E+00    0.20       1.0  T
 164    -13.0364398 -0.254612E-01  0.307E+00    0.16       1.0  T
 165    -12.2140557  0.822384E+00  0.963E+00    0.00       1.0  T
 166    -13.0491306 -0.835075E+00  0.321E+00    0.14       1.0  T
 167    -13.0115901  0.375404E-01  0.378E+00    0.20       1.0  T
 168    -13.0364579 -0.248678E-01  0.307E+00    0.16       1.0  T
 169    -12.2140421  0.822416E+00  0.963E+00    0.00       1.0  T
 170    -13.0491011 -0.835059E+00  0.321E+00    0.14       1.0  T
 171    -13.0121558  0.369453E-01  0.377E+00    0.20       1.0  T
 172    -13.0365205 -0.243647E-01  0.307E+00    0.16       1.0  T
 173    -12.2140247  0.822496E+00  0.963E+00    0.00       1.0  T
 174    -13.0490731 -0.835048E+00  0.321E+00    0.14       1.0  T
 175    -13.0126771  0.363960E-01  0.376E+00    0.20       1.0  T
 176    -13.0366316 -0.239545E-01  0.307E+00    0.16       1.0  T
 177    -12.2140033  0.822628E+00  0.963E+00    0.00       1.0  T
 178    -13.0490471 -0.835044E+00  0.321E+00    0.14       1.0  T
 179    -13.0131560  0.358910E-01  0.375E+00    0.20       1.0  T
 180    -13.0367952 -0.236392E-01  0.306E+00    0.16       1.0  T
 181    -12.2139779  0.822817E+00  0.963E+00    0.00       1.0  T
 182    -13.0490231 -0.835045E+00  0.321E+00    0.14       1.0  T
 183    -13.0135949  0.354282E-01  0.374E+00    0.19       1.0  T
 184    -13.0370140 -0.234192E-01  0.306E+00    0.16       1.0  T
 185    -12.2139486  0.823065E+00  0.964E+00    0.00       1.0  T
 186    -13.0490011 -0.835053E+00  0.321E+00    0.14       1.0  T
 187    -13.0139967  0.350044E-01  0.373E+00    0.19       1.0  T
 188    -13.0372898 -0.232931E-01  0.306E+00    0.16       1.0  T
 189    -12.2139153  0.823374E+00  0.964E+00    0.00       1.0  T
 190    -13.0489809 -0.835066E+00  0.322E+00    0.14       1.0  T
 191    -13.0143653  0.346155E-01  0.372E+00    0.19       1.0  T
 192    -13.0376223 -0.232570E-01  0.305E+00    0.16       1.0  T
 193    -12.2138784  0.823744E+00  0.964E+00    0.00       1.0  T
 194    -13.0489615 -0.835083E+00  0.322E+00    0.14       1.0  T
 195    -13.0147056  0.342559E-01  0.372E+00    0.19       1.0  T
 196    -13.0380100 -0.233043E-01  0.305E+00    0.16       1.0  T
 197    -12.2138381  0.824172E+00  0.964E+00    0.00       1.0  T
 198    -13.0489421 -0.835104E+00  0.322E+00    0.14       1.0  T
 199    -13.0150233  0.339188E-01  0.371E+00    0.19       1.0  T
 200    -13.0384497 -0.234265E-01  0.304E+00    0.16       1.0  T
 201    -12.2137946  0.824655E+00  0.964E+00    0.00       1.0  T
 202    -13.0489212 -0.835127E+00  0.322E+00    0.14       1.0  T
 203    -13.0153244  0.335968E-01  0.370E+00    0.19       1.0  T
 204    -13.0389377 -0.236133E-01  0.303E+00    0.16       1.0  T
 205    -12.2137485  0.825189E+00  0.964E+00    0.00       1.0  T
 206    -13.0488974 -0.835149E+00  0.323E+00    0.14       1.0  T
 207    -13.0156155  0.332819E-01  0.370E+00    0.19       1.0  T
 208    -13.0394699 -0.238544E-01  0.302E+00    0.16       1.0  T
 209    -12.2136999  0.825770E+00  0.965E+00    0.00       1.0  T
 210    -13.0488693 -0.835169E+00  0.323E+00    0.14       1.0  T
 211    -13.0159026  0.329667E-01  0.369E+00    0.19       1.0  T
 212    -13.0400426 -0.241400E-01  0.301E+00    0.16       1.0  T
 213    -12.2136493  0.826393E+00  0.965E+00    0.00       1.0  T
 214    -13.0488355 -0.835186E+00  0.323E+00    0.14       1.0  T
 215    -13.0161917  0.326438E-01  0.369E+00    0.19       1.0  T
 216    -13.0406531 -0.244613E-01  0.300E+00    0.16       1.0  T
 217    -12.2135969  0.827056E+00  0.965E+00    0.00       1.0  T
 218    -13.0487947 -0.835198E+00  0.324E+00    0.14       1.0  T
 219    -13.0164879  0.323068E-01  0.368E+00    0.19       1.0  T
 220    -13.0412992 -0.248113E-01  0.299E+00    0.16       1.0  T
 221    -12.2135430  0.827756E+00  0.966E+00    0.00       1.0  T
 222    -13.0487457 -0.835203E+00  0.324E+00    0.14       1.0  T
 223    -13.0167957  0.319500E-01  0.368E+00    0.19       1.0  T
 224    -13.0419799 -0.251842E-01  0.298E+00    0.16       1.0  T
 225    -12.2134878  0.828492E+00  0.966E+00    0.00       1.0  T
 226    -13.0486873 -0.835199E+00  0.325E+00    0.14       1.0  T
 227    -13.0171195  0.315679E-01  0.367E+00    0.19       1.0  T
 228    -13.0426947 -0.255752E-01  0.296E+00    0.16       1.0  T
 229    -12.2134315  0.829263E+00  0.966E+00    0.00       1.0  T
 230    -13.0486184 -0.835187E+00  0.326E+00    0.14       1.0  T
 231    -13.0174630  0.311554E-01  0.367E+00    0.19       1.0  T
 232    -13.0434435 -0.259805E-01  0.295E+00    0.16       1.0  T
 233    -12.2133743  0.830069E+00  0.966E+00    0.00       1.0  T
 234    -13.0485377 -0.835163E+00  0.326E+00    0.14       1.0  T
 235    -13.0178300  0.307076E-01  0.366E+00    0.19       1.0  T
 236    -13.0442269 -0.263969E-01  0.294E+00    0.16       1.0  T
 237    -12.2133163  0.830911E+00  0.967E+00    0.00       1.0  T
 238    -13.0484438 -0.835127E+00  0.327E+00    0.14       1.0  T
 239    -13.0182242  0.302196E-01  0.365E+00    0.19       1.0  T
 240    -13.0450454 -0.268213E-01  0.292E+00    0.16       1.0  T
 241    -12.2132579  0.831788E+00  0.967E+00    0.00       1.0  T
 242    -13.0483352 -0.835077E+00  0.328E+00    0.14       1.0  T
 243    -13.0186490  0.296862E-01  0.365E+00    0.19       1.0  T
 244    -13.0458997 -0.272507E-01  0.291E+00    0.16       1.0  T
 245    -12.2131993  0.832700E+00  0.967E+00    0.00       1.0  T
 246    -13.0482102 -0.835011E+00  0.329E+00    0.14       1.0  T
 247    -13.0191081  0.291021E-01  0.364E+00    0.19       1.0  T
 248    -13.0467903 -0.276822E-01  0.289E+00    0.16       1.0  T
 249    -12.2131408  0.833649E+00  0.968E+00    0.00       1.0  T
 250    -13.0480666 -0.834926E+00  0.330E+00    0.14       1.0  T

   *** convergence criteria cannot be satisfied within 250 iterations ***

         #    Occupation            Energy/Eh            Energy/eV
      -------------------------------------------------------------
         1        2.0000           -0.8449386             -22.9919
       ...           ...                  ...                  ...
         5        2.0000           -0.3658813              -9.9561
         6        2.0000           -0.3034779              -8.2581
         7        2.0000           -0.3034777              -8.2580
         8        2.0000           -0.3034020              -8.2560
         9        1.9970           -0.2307255              -6.2784
        10        1.9101           -0.2274560              -6.1894
        11        1.9101           -0.2274559              -6.1894 (HOMO)
        12        0.1829           -0.2223715              -6.0510 (LUMO)
        13                          0.2373387               6.4583
        14                          0.2644545               7.1962
        15                          0.2646020               7.2002
        16                          0.2646020               7.2002
       ...                                ...                  ...
        20                          0.4065521              11.0628
      -------------------------------------------------------------
                  HL-Gap            0.0050845 Eh            0.1384 eV
             Fermi-level           -0.2245529 Eh           -6.1104 eV

 SCC (total)                   0 d,  0 h,  0 min,  0.115 sec
 SCC setup                      ...        0 min,  0.000 sec (  0.059%)
 Dispersion                     ...        0 min,  0.000 sec (  0.012%)
 integral evaluation            ...        0 min,  0.001 sec (  0.618%)
 zeroth order Hamiltonian       ...        0 min,  0.000 sec (  0.012%)
 iterations                     ...        0 min,  0.114 sec ( 98.773%)
 molecular gradient             ...        0 min,  0.001 sec (  0.455%)
 printout                       ...        0 min,  0.000 sec (  0.051%)

         :::::::::::::::::::::::::::::::::::::::::::::::::::::
         ::                     SUMMARY                     ::
         :::::::::::::::::::::::::::::::::::::::::::::::::::::
         :: total energy              -6.556936275609 Eh    ::
         :: gradient norm             27.770437960204 Eh/a0 ::
         :: HOMO-LUMO gap              0.138355339978 eV    ::
         ::.................................................::
         :: SCC energy               -13.048066581349 Eh    ::
         :: -> isotropic ES            0.299116971081 Eh    ::
         :: -> anisotropic ES         -0.003027990606 Eh    ::
         :: -> anisotropic XC          0.007847377164 Eh    ::
         :: -> dispersion             -0.001360546805 Eh    ::
         :: repulsion energy           0.059790893873 Eh    ::
         :: add. restraining           6.431391114003 Eh    ::
         :::::::::::::::::::::::::::::::::::::::::::::::::::::

      ----------------------------------------------------------- 
     |                   =====================                   |
     |                        A N C O P T                        |
     |                   =====================                   |
     |               Approximate Normal Coordinate               |
     |                Rational Function Optimizer                |
      ----------------------------------------------------------- 

          ...................................................
          :                      SETUP                      :
          :.................................................:
          :   optimization level            normal          :
          :   max. optcycles                   200          :
          :   ANC micro-cycles                  20          :
          :   degrees of freedom                12          :
          :.................................................:
          :   RF solver                   davidson          :
          :   write xtbopt.log                true          :
          :   linear?                        false          :
          :   energy convergence         0.5000000E-05 Eh   :
          :   grad. convergence          0.1000000E-02 Eh/α :
          :   maximium RF displ.         1.0000000          :
          :   Hlow (freq-cutoff)         0.1000000E-01      :
          :   Hmax (freq-cutoff)         5.0000000          :
          :   S6 in model hess.         20.0000000          :
          ...................................................

generating ANC from model Hessian ...
Using Lindh-Hessian (1995)
 Shifting diagonal of input Hessian by   0.768582860380558     
 Lowest  eigenvalues of input Hessian
    0.010000    0.010027   -0.000000   -0.000000   -0.000000    0.000000
    0.000000    0.000000    0.768980    0.915279    0.915297    1.086138
    1.086149    1.206535    2.072075    2.072175   20.769334   60.769643
 Highest eigenvalues
    1.086149    1.206535    2.072075    2.072175   20.769334   60.769643
 

........................................................................
.............................. CYCLE    1 ..............................
........................................................................
   1    -13.0196050 -0.130196E+02  0.363E+00    0.19       0.0  T
   2    -12.1440821  0.875523E+00  0.110E+01    0.00       1.0  T
   3    -12.4672574 -0.323175E+00  0.106E+01    0.00       1.0  T
   4    -12.7954849 -0.328228E+00  0.793E+00    0.00       1.0  T
   5    -13.0221976 -0.226713E+00  0.339E+00    0.09       1.0  T
   6    -13.0375903 -0.153927E-01  0.311E+00    0.16       1.0  T
   7    -13.0517144 -0.141241E-01  0.268E+00    0.13       1.0  T
   8    -13.0519786 -0.264230E-03  0.268E+00    0.13       1.0  T
   9    -13.0519983 -0.196469E-04  0.267E+00    0.13       1.0  T
  10    -13.0527231 -0.724800E-03  0.257E+00    0.13       1.0  T
  11    -13.1173815 -0.646584E-01  0.755E-01    0.08       1.0  T
  12    -13.0504805  0.669010E-01  0.270E+00    0.12       1.0  T
  13    -13.0646661 -0.141856E-01  0.231E+00    0.13       1.0  T
  14    -13.0733236 -0.865750E-02  0.229E+00    0.06       1.0  T
  15    -13.0519754  0.213482E-01  0.262E+00    0.13       1.0  T
  16    -13.0986687 -0.466932E-01  0.144E+00    0.13       1.0  T
  17    -13.1103850 -0.117163E-01  0.104E+00    0.07       1.0  T
  18    -13.0535283  0.568567E-01  0.254E+00    0.13       1.0  T
  19    -12.9955656  0.579627E-01  0.358E+00    0.04       1.0  T
  20    -13.0470963 -0.515307E-01  0.277E+00    0.14       1.0  T
  21    -13.0855811 -0.384849E-01  0.188E+00    0.14       1.0  T
  22    -13.0723525  0.132287E-01  0.220E+00    0.05       1.0  T
  23    -13.0475264  0.248260E-01  0.273E+00    0.14       1.0  T
  24    -13.1019738 -0.544474E-01  0.133E+00    0.07       1.0  T
  25    -13.0508103  0.511635E-01  0.265E+00    0.14       1.0  T
  26    -12.9953571  0.554532E-01  0.356E+00    0.04       1.0  T
  27    -13.0441059 -0.487488E-01  0.284E+00    0.15       1.0  T
  28    -13.1109923 -0.668864E-01  0.982E-01    0.11       1.0  T
  29    -13.1174169 -0.642456E-02  0.483E-01    0.10       1.0  T
  30    -13.1115145  0.590238E-02  0.900E-01    0.11       1.0  T
  31    -13.1165438 -0.502933E-02  0.565E-01    0.08       1.0  T
  32    -13.0858773  0.306665E-01  0.182E+00    0.13       1.0  T
  33    -13.0018992  0.839781E-01  0.348E+00    0.04       1.0  T
  34    -13.0463127 -0.444135E-01  0.276E+00    0.14       1.0  T
  35    -13.1120691 -0.657564E-01  0.840E-01    0.07       1.0  T
  36    -13.0765440  0.355252E-01  0.211E+00    0.14       1.0  T
  37    -13.0377745  0.387694E-01  0.289E+00    0.05       1.0  T
  38    -13.0491568 -0.113823E-01  0.270E+00    0.14       1.0  T
  39    -13.0759493 -0.267926E-01  0.209E+00    0.06       1.0  T
  40    -13.0566077  0.193416E-01  0.256E+00    0.15       1.0  T
  41    -13.0593708 -0.276305E-02  0.246E+00    0.05       1.0  T
  42    -13.0544120  0.495879E-02  0.261E+00    0.15       1.0  T
  43    -13.0732834 -0.188714E-01  0.215E+00    0.06       1.0  T
  44    -13.0602318  0.130516E-01  0.249E+00    0.15       1.0  T
  45    -13.0715468 -0.113150E-01  0.219E+00    0.05       1.0  T
  46    -13.0619356  0.961123E-02  0.245E+00    0.14       1.0  T
  47    -13.0732271 -0.112916E-01  0.216E+00    0.06       1.0  T
  48    -13.0645024  0.872470E-02  0.239E+00    0.14       1.0  T
  49    -13.0767259 -0.122234E-01  0.207E+00    0.06       1.0  T
  50    -13.0679562  0.876969E-02  0.232E+00    0.14       1.0  T
  51    -13.0794794 -0.115232E-01  0.201E+00    0.06       1.0  T
  52    -13.0712773  0.820211E-02  0.224E+00    0.14       1.0  T
  53    -13.0819365 -0.106592E-01  0.194E+00    0.06       1.0  T
  54    -13.0745038  0.743272E-02  0.216E+00    0.14       1.0  T
  55    -13.0846405 -0.101368E-01  0.187E+00    0.06       1.0  T
  56    -13.0778893  0.675121E-02  0.208E+00    0.14       1.0  T
  57    -13.0875875 -0.969814E-02  0.179E+00    0.06       1.0  T
  58    -13.0814539  0.613353E-02  0.199E+00    0.14       1.0  T
  59    -13.0906246 -0.917067E-02  0.170E+00    0.06       1.0  T
  60    -13.0851053  0.551929E-02  0.189E+00    0.14       1.0  T
  61    -13.0936786 -0.857325E-02  0.161E+00    0.06       1.0  T
  62    -13.0887781  0.490043E-02  0.178E+00    0.14       1.0  T
  63    -13.0967320 -0.795386E-02  0.151E+00    0.06       1.0  T
  64    -13.0924423  0.428969E-02  0.167E+00    0.13       1.0  T
  65    -13.0997642 -0.732189E-02  0.141E+00    0.07       1.0  T
  66    -13.0960685  0.369574E-02  0.155E+00    0.13       1.0  T
  67    -13.1027345 -0.666606E-02  0.130E+00    0.07       1.0  T
  68    -13.0996120  0.312254E-02  0.143E+00    0.13       1.0  T
  69    -13.1055897 -0.597774E-02  0.118E+00    0.07       1.0  T
  70    -13.1030150  0.257467E-02  0.130E+00    0.12       1.0  T
  71    -13.1082722 -0.525717E-02  0.106E+00    0.07       1.0  T
  72    -13.1062125  0.205973E-02  0.117E+00    0.12       1.0  T
  73    -13.1107246 -0.451212E-02  0.937E-01    0.07       1.0  T
  74    -13.1091364  0.158816E-02  0.103E+00    0.11       1.0  T
  75    -13.1128937 -0.375729E-02  0.811E-01    0.08       1.0  T
  76    -13.1117219  0.117181E-02  0.887E-01    0.11       1.0  T
  77    -13.1147366 -0.301469E-02  0.686E-01    0.08       1.0  T
  78    -13.1139150  0.821600E-03  0.748E-01    0.11       1.0  T
  79    -13.1162277 -0.231273E-02  0.564E-01    0.08       1.0  T
  80    -13.1156832  0.544543E-03  0.614E-01    0.10       1.0  T
  81    -13.1173657 -0.168252E-02  0.450E-01    0.08       1.0  T
  82    -13.1170248  0.340897E-03  0.488E-01    0.10       1.0  T
  83    -13.1181763 -0.115145E-02  0.346E-01    0.08       1.0  T
  84    -13.1179732  0.203038E-03  0.375E-01    0.10       1.0  T
  85    -13.1187092 -0.735993E-03  0.255E-01    0.09       1.0  T
  86    -13.1185921  0.117108E-03  0.277E-01    0.10       1.0  T
  87    -13.1190292 -0.437046E-03  0.180E-01    0.09       1.0  T
  88    -13.1189622  0.669985E-04  0.197E-01    0.09       1.0  T
  89    -13.1192026 -0.240462E-03  0.120E-01    0.09       1.0  T
  90    -13.1191640  0.386358E-04  0.135E-01    0.09       1.0  T
  91    -13.1192866 -0.122658E-03  0.754E-02    0.09       1.0  T
  92    -13.1192643  0.223286E-04  0.885E-02    0.09       1.0  T
  93    -13.1193226 -0.582452E-04  0.442E-02    0.09       1.0  T
  94    -13.1193099  0.126246E-04  0.563E-02    0.09       1.0  T
  95    -13.1193359 -0.259415E-04  0.237E-02    0.09       1.7  T
  96    -13.1193293  0.656703E-05  0.346E-02    0.09       1.2  T
  97    -13.1193402 -0.109217E-04  0.102E-02    0.09       4.0  T
  98    -13.1193372  0.298902E-05  0.199E-02    0.09       2.1  T
  99    -13.1193412 -0.391143E-05  0.134E-03    0.09      30.4  T
 100    -13.1193395  0.163096E-05  0.128E-02    0.09       3.2  T
 101    -13.1193404 -0.920321E-06  0.847E-03    0.09       4.8  T
 102    -13.1193409 -0.475039E-06  0.494E-03    0.09       8.3  T
 103    -13.1193411 -0.214503E-06  0.175E-03    0.09      23.3  T
 104    -13.1193412 -0.241025E-07  0.850E-04    0.09      48.0  T
 105    -13.1193412 -0.725831E-08  0.198E-04    0.09     206.5  T
     SCC iter.                  ...        0 min,  0.012 sec
     gradient                   ...        0 min,  0.000 sec
 * total energy  :    -6.6281628 Eh     change       -0.7122655E-01 Eh
   gradient norm :    27.7731058 Eh/α   predicted     0.0000000E+00 (-100.00%)
   displ. norm   :     0.9140279 α      lambda       -0.2538540E+02
   maximum displ.:     0.9140279 α      in ANC's #11, #8, #1, ...

........................................................................
.............................. CYCLE    2 ..............................
........................................................................
   1    -12.2992384 -0.122992E+02  0.885E+00    0.00       0.0  T
   2    -12.5850649 -0.285827E+00  0.965E+00    2.88       1.0  T
   3    -12.4187661  0.166299E+00  0.995E+00    0.00       1.0  T
   4    -12.7784054 -0.359639E+00  0.745E+00    0.67       1.0  T
   5    -12.4386934  0.339712E+00  0.908E+00    0.00       1.0  T
   6    -12.8816018 -0.442908E+00  0.537E+00    0.23       1.0  T
   7    -12.2576184  0.623983E+00  0.969E+00    0.00       1.0  T
   8    -12.3101032 -0.524848E-01  0.865E+00    0.01       1.0  T
   9    -12.8188909 -0.508788E+00  0.620E+00    0.80       1.0  T
  10    -12.8238437 -0.495272E-02  0.608E+00    0.62       1.0  T
  11    -12.9108904 -0.870468E-01  0.485E+00    0.20       1.0  T
  12    -12.5872408  0.323650E+00  0.689E+00    0.03       1.0  T
  13    -12.8476526 -0.260412E+00  0.566E+00    0.35       1.0  T
  14    -12.8682599 -0.206073E-01  0.537E+00    0.28       1.0  T
  15    -13.0137532 -0.145493E+00  0.297E+00    0.12       1.0  T
  16    -13.0313500 -0.175969E-01  0.244E+00    0.10       1.0  T
  17    -13.0055246  0.258255E-01  0.320E+00    0.13       1.0  T
  18    -13.0227100 -0.171854E-01  0.276E+00    0.11       1.0  T
  19    -13.0174829  0.522703E-02  0.291E+00    0.12       1.0  T
  20    -13.0179656 -0.482645E-03  0.290E+00    0.12       1.0  T
  21    -13.0186298 -0.664159E-03  0.288E+00    0.12       1.0  T
  22    -13.0282121 -0.958231E-02  0.262E+00    0.11       1.0  T
  23    -13.0309979 -0.278583E-02  0.249E+00    0.10       1.0  T
  24    -13.0191550  0.118429E-01  0.254E+00    0.08       1.0  T
  25    -13.0142690  0.488598E-02  0.261E+00    0.08       1.0  T
  26    -12.9645963  0.496727E-01  0.330E+00    0.07       1.0  T
  27    -12.8621747  0.102422E+00  0.451E+00    0.05       1.0  T
  28    -13.0298717 -0.167697E+00  0.251E+00    0.11       1.0  T
  29    -12.9128974  0.116974E+00  0.391E+00    0.06       1.0  T
  30    -13.0173064 -0.104409E+00  0.289E+00    0.12       1.0  T
  31    -12.5011069  0.516199E+00  0.748E+00    0.03       1.0  T
  32    -12.4216138  0.794931E-01  0.909E+00    0.01       1.0  T
  33    -12.2623383  0.159276E+00  0.906E+00    0.01       1.0  T
  34    -12.3906001 -0.128262E+00  0.957E+00    0.00       1.0  T
  35    -12.2586786  0.131922E+00  0.928E+00    0.00       1.0  T
  36    -12.3986889 -0.140010E+00  0.940E+00    0.00       1.0  T
  37    -12.3883955  0.102933E-01  0.964E+00    0.00       1.0  T
  38    -12.2643480  0.124048E+00  0.904E+00    0.00       1.0  T
  39    -12.3969156 -0.132568E+00  0.948E+00    0.00       1.0  T
  40    -12.3897126  0.720295E-02  0.944E+00    0.00       1.0  T
  41    -12.2589270  0.130786E+00  0.917E+00    0.00       1.0  T
  42    -12.3996416 -0.140715E+00  0.942E+00    0.01       1.0  T
  43    -12.2598475  0.139794E+00  0.916E+00    0.00       1.0  T
  44    -12.4044652 -0.144618E+00  0.935E+00    0.01       1.0  T
  45    -12.2599679  0.144497E+00  0.919E+00    0.00       1.0  T
  46    -12.5524991 -0.292531E+00  0.819E+00    0.02       1.0  T
  47    -12.2608458  0.291653E+00  0.924E+00    0.00       1.0  T
  48    -13.0338657 -0.773020E+00  0.235E+00    0.09       1.0  T
  49    -12.2642285  0.769637E+00  0.926E+00    0.00       1.0  T
  50    -12.2743417 -0.101133E-01  0.896E+00    0.00       1.0  T
  51    -12.8354167 -0.561075E+00  0.485E+00    0.03       1.0  T
  52    -12.2666982  0.568719E+00  0.928E+00    0.00       1.0  T
  53    -12.2732200 -0.652186E-02  0.905E+00    0.00       1.0  T
  54    -12.2631215  0.100985E-01  0.931E+00    0.00       1.0  T
  55    -12.2456191  0.175024E-01  0.961E+00    0.01       1.0  T
  56    -12.3429530 -0.973339E-01  0.118E+01    0.00       1.0  T
  57    -12.2872354  0.557176E-01  0.140E+01    0.00       1.0  T
  58    -12.8234910 -0.536256E+00  0.599E+00    0.56       1.0  T
  59    -12.2508390  0.572652E+00  0.970E+00    0.00       1.0  T
  60    -12.2529725 -0.213354E-02  0.948E+00    0.00       1.0  T
  61    -12.2574320 -0.445949E-02  0.937E+00    0.00       1.0  T
  62    -12.2635353 -0.610325E-02  0.912E+00    0.00       1.0  T
  63    -12.3852210 -0.121686E+00  0.960E+00    0.00       1.0  T
  64    -12.9911579 -0.605937E+00  0.363E+00    0.13       1.0  T
  65    -12.3773115  0.613846E+00  0.998E+00    0.01       1.0  T
  66    -12.3792567 -0.194518E-02  0.102E+01    0.02       1.0  T
  67    -12.3803296 -0.107286E-02  0.102E+01    0.02       1.0  T
  68    -12.3823532 -0.202360E-02  0.103E+01    0.02       1.0  T
  69    -12.3884731 -0.611988E-02  0.102E+01    0.03       1.0  T
  70    -12.2555386  0.132934E+00  0.924E+00    0.01       1.0  T
  71    -12.3776267 -0.122088E+00  0.981E+00    0.00       1.0  T
  72    -12.2665822  0.111045E+00  0.923E+00    0.00       1.0  T
  73    -12.2566167  0.996550E-02  0.940E+00    0.00       1.0  T
  74    -12.2530030  0.361370E-02  0.952E+00    0.00       1.0  T
  75    -12.2574982 -0.449527E-02  0.932E+00    0.00       1.0  T
  76    -12.3935928 -0.136095E+00  0.972E+00    0.02       1.0  T
  77    -12.2515510  0.142042E+00  0.971E+00    0.00       1.0  T
  78    -12.2606573 -0.910633E-02  0.919E+00    0.01       1.0  T
  79    -12.3885999 -0.127943E+00  0.994E+00    0.02       1.0  T
  80    -12.2491465  0.139453E+00  0.971E+00    0.01       1.0  T
  81    -12.4699810 -0.220835E+00  0.841E+00    0.01       1.0  T
  82    -12.3809418  0.890392E-01  0.993E+00    0.01       1.0  T
  83    -12.2514504  0.129491E+00  0.960E+00    0.01       1.0  T
  84    -12.5795266 -0.328076E+00  0.895E+00    0.02       1.0  T
  85    -12.2464662  0.333060E+00  0.975E+00    0.01       1.0  T
  86    -12.2832307 -0.367645E-01  0.923E+00    0.01       1.0  T
  87    -12.3760936 -0.928630E-01  0.102E+01    0.02       1.0  T
  88    -12.2465145  0.129579E+00  0.975E+00    0.01       1.0  T
  89    -12.3762268 -0.129712E+00  0.101E+01    0.02       1.0  T
  90    -12.2455150  0.130712E+00  0.985E+00    0.01       1.0  T
  91    -12.2662085 -0.206934E-01  0.938E+00    0.01       1.0  T
  92    -12.3705253 -0.104317E+00  0.104E+01    0.02       1.0  T
  93    -12.2432250  0.127300E+00  0.988E+00    0.01       1.0  T
  94    -12.3698378 -0.126613E+00  0.103E+01    0.02       1.0  T
  95    -12.2425881  0.127250E+00  0.996E+00    0.01       1.0  T
  96    -12.3738931 -0.131305E+00  0.103E+01    0.02       1.0  T
  97    -12.2409029  0.132990E+00  0.100E+01    0.01       1.0  T
  98    -12.7189900 -0.478087E+00  0.812E+00    0.01       1.0  T
  99    -12.2348351  0.484155E+00  0.990E+00    0.02       1.0  T
 100    -12.3587232 -0.123888E+00  0.107E+01    0.01       1.0  T
 101    -12.2379289  0.120794E+00  0.996E+00    0.01       1.0  T
 102    -12.3596994 -0.121771E+00  0.107E+01    0.02       1.0  T
 103    -12.2351237  0.124576E+00  0.101E+01    0.02       1.0  T
 104    -12.3577759 -0.122652E+00  0.107E+01    0.01       1.0  T
 105    -12.2339748  0.123801E+00  0.101E+01    0.02       1.0  T
 106    -12.3560159 -0.122041E+00  0.108E+01    0.02       1.0  T
 107    -12.2319894  0.124027E+00  0.102E+01    0.02       1.0  T
 108    -12.3536769 -0.121688E+00  0.108E+01    0.01       1.0  T
 109    -12.2301630  0.123514E+00  0.102E+01    0.02       1.0  T
 110    -12.3512500 -0.121087E+00  0.109E+01    0.01       1.0  T
 111    -12.2281672  0.123083E+00  0.102E+01    0.02       1.0  T
 112    -12.3486963 -0.120529E+00  0.110E+01    0.01       1.0  T
 113    -12.2261186  0.122578E+00  0.103E+01    0.02       1.0  T
 114    -12.3460937 -0.119975E+00  0.111E+01    0.01       1.0  T
 115    -12.2239862  0.122107E+00  0.103E+01    0.02       1.0  T
 116    -12.3434620 -0.119476E+00  0.112E+01    0.01       1.0  T
 117    -12.2217903  0.121672E+00  0.103E+01    0.02       1.0  T
 118    -12.3408292 -0.119039E+00  0.113E+01    0.01       1.0  T
 119    -12.2195359  0.121293E+00  0.104E+01    0.02       1.0  T
 120    -12.3382170 -0.118681E+00  0.113E+01    0.01       1.0  T
 121    -12.2172356  0.120981E+00  0.104E+01    0.02       1.0  T
 122    -12.3356473 -0.118412E+00  0.114E+01    0.01       1.0  T
 123    -12.2149013  0.120746E+00  0.105E+01    0.02       1.0  T
 124    -12.3331412 -0.118240E+00  0.115E+01    0.01       1.0  T
 125    -12.2125476  0.120594E+00  0.105E+01    0.02       1.0  T
 126    -12.3307199 -0.118172E+00  0.116E+01    0.01       1.0  T
 127    -12.2101903  0.120530E+00  0.105E+01    0.02       1.0  T
 128    -12.3284045 -0.118214E+00  0.117E+01    0.01       1.0  T
 129    -12.2078470  0.120557E+00  0.106E+01    0.02       1.0  T
 130    -12.3262163 -0.118369E+00  0.118E+01    0.01       1.0  T
 131    -12.2055377  0.120679E+00  0.106E+01    0.01       1.0  T
 132    -12.3241768 -0.118639E+00  0.118E+01    0.01       1.0  T
 133    -12.2032853  0.120891E+00  0.107E+01    0.01       1.0  T
 134    -12.3223071 -0.119022E+00  0.119E+01    0.01       1.0  T
 135    -12.2011069  0.121200E+00  0.107E+01    0.01       1.0  T
 136    -12.3206284 -0.119522E+00  0.119E+01    0.01       1.0  T
 137    -12.1990141  0.121614E+00  0.108E+01    0.01       1.0  T
 138    -12.3191610 -0.120147E+00  0.120E+01    0.01       1.0  T
 139    -12.1970402  0.122121E+00  0.109E+01    0.01       1.0  T
 140    -12.3179238 -0.120884E+00  0.120E+01    0.01       1.0  T
 141    -12.1952211  0.122703E+00  0.109E+01    0.01       1.0  T
 142    -12.3169338 -0.121713E+00  0.120E+01    0.01       1.0  T
 143    -12.1935884  0.123345E+00  0.110E+01    0.00       1.0  T
 144    -12.3162061 -0.122618E+00  0.121E+01    0.01       1.0  T
 145    -12.1921859  0.124020E+00  0.110E+01    0.00       1.0  T
 146    -12.3157532 -0.123567E+00  0.120E+01    0.01       1.0  T
 147    -12.1910744  0.124679E+00  0.111E+01    0.00       1.0  T
 148    -12.3155859 -0.124512E+00  0.120E+01    0.01       1.0  T
 149    -12.1903359  0.125250E+00  0.112E+01    0.00       1.0  T
 150    -12.3157158 -0.125380E+00  0.120E+01    0.01       1.0  T
 151    -12.1900780  0.125638E+00  0.112E+01    0.00       1.0  T
 152    -12.3161593 -0.126081E+00  0.119E+01    0.01       1.0  T
 153    -12.1904321  0.125727E+00  0.113E+01    0.00       1.0  T
 154    -12.3169425 -0.126510E+00  0.118E+01    0.01       1.0  T
 155    -12.1915405  0.125402E+00  0.113E+01    0.00       1.0  T
 156    -12.3182837 -0.126743E+00  0.117E+01    0.01       1.0  T
 157    -12.1935224  0.124761E+00  0.113E+01    0.00       1.0  T
 158    -12.1993988 -0.587638E-02  0.108E+01    0.00       1.0  T
 159    -12.3155801 -0.116181E+00  0.118E+01    0.01       1.0  T
 160    -12.1924647  0.123115E+00  0.114E+01    0.00       1.0  T
 161    -12.1971612 -0.469645E-02  0.108E+01    0.00       1.0  T
 162    -12.3136976 -0.116536E+00  0.119E+01    0.01       1.0  T
 163    -12.1927588  0.120939E+00  0.114E+01    0.00       1.0  T
 164    -12.1958887 -0.312991E-02  0.109E+01    0.00       1.0  T
 165    -12.3131166 -0.117228E+00  0.118E+01    0.01       1.0  T
 166    -12.1943628  0.118754E+00  0.115E+01    0.00       1.0  T
 167    -12.1958693 -0.150647E-02  0.110E+01    0.00       1.0  T
 168    -12.1934462  0.242311E-02  0.109E+01    0.00       1.0  T
 169    -12.3068014 -0.113355E+00  0.122E+01    0.02       1.0  T
 170    -12.1890966  0.117705E+00  0.116E+01    0.00       1.0  T
 171    -12.5012262 -0.312130E+00  0.111E+01    0.01       1.0  T
 172    -12.1938991  0.307327E+00  0.115E+01    0.00       1.0  T
 173    -12.1903299  0.356920E-02  0.111E+01    0.00       1.0  T
 174    -12.3034553 -0.113125E+00  0.121E+01    0.01       1.0  T
 175    -12.1931136  0.110342E+00  0.117E+01    0.00       1.0  T
 176    -12.1898256  0.328806E-02  0.112E+01    0.00       1.0  T
 177    -12.3037204 -0.113895E+00  0.120E+01    0.01       1.0  T
 178    -12.1981080  0.105612E+00  0.117E+01    0.00       1.0  T
 179    -12.1932391  0.486891E-02  0.113E+01    0.00       1.0  T
 180    -12.1882501  0.498901E-02  0.112E+01    0.00       1.0  T
 181    -12.4039363 -0.215686E+00  0.116E+01    0.01       1.0  T
 182    -12.2003189  0.203617E+00  0.118E+01    0.00       1.0  T
 183    -12.1946881  0.563079E-02  0.114E+01    0.00       1.0  T
 184    -12.1895078  0.518032E-02  0.113E+01    0.00       1.0  T
 185    -12.1858972  0.361060E-02  0.112E+01    0.00       1.0  T
 186    -12.1832752  0.262203E-02  0.112E+01    0.00       1.0  T
 187    -12.1876309 -0.435570E-02  0.112E+01    0.00       1.0  T
 188    -12.1915580 -0.392718E-02  0.112E+01    0.00       1.0  T
 189    -12.2180958 -0.265377E-01  0.111E+01    0.00       1.0  T
 190    -12.1817457  0.363501E-01  0.112E+01    0.00       1.0  T
 191    -12.1817982 -0.525247E-04  0.112E+01    0.00       1.0  T
 192    -12.6581434 -0.476345E+00  0.104E+01    0.01       1.0  T
 193    -12.1959205  0.462223E+00  0.117E+01    0.00       1.0  T
 194    -12.1896983  0.622222E-02  0.115E+01    0.00       1.0  T
 195    -12.1854993  0.419900E-02  0.114E+01    0.00       1.0  T
 196    -12.1831909  0.230836E-02  0.114E+01    0.00       1.0  T
 197    -12.1815587  0.163224E-02  0.114E+01    0.00       1.0  T
 198    -12.1801196  0.143907E-02  0.114E+01    0.00       1.0  T
 199    -12.1788308  0.128885E-02  0.113E+01    0.00       1.0  T
 200    -12.1779365  0.894272E-03  0.113E+01    0.00       1.0  T
 201    -12.1777179  0.218577E-03  0.113E+01    0.00       1.0  T
 202    -12.1776154  0.102478E-03  0.113E+01    0.00       1.0  T
 203    -12.4100485 -0.232433E+00  0.107E+01    0.00       1.0  T
 204    -12.1825935  0.227455E+00  0.114E+01    0.00       1.0  T
 205    -12.1793895  0.320395E-02  0.114E+01    0.00       1.0  T
 206    -12.1780330  0.135649E-02  0.114E+01    0.00       1.0  T
 207    -12.1770887  0.944362E-03  0.114E+01    0.00       1.0  T
 208    -12.1813543 -0.426566E-02  0.112E+01    0.00       1.0  T
 209    -12.2101556 -0.288013E-01  0.110E+01    0.00       1.0  T
 210    -12.2270018 -0.168462E-01  0.116E+01    0.00       1.0  T
 211    -12.2442359 -0.172341E-01  0.118E+01    0.00       1.0  T
 212      2.2460151  0.144903E+02  0.315E+01    0.00       1.0  T
 213      2.2440491 -0.196599E-02  0.317E+01    0.00       1.0  T
 214      2.2444413  0.392226E-03  0.317E+01    0.00       1.0  T
 215      2.2442769 -0.164442E-03  0.317E+01    0.00       1.0  T
 216      2.2440129 -0.263950E-03  0.317E+01    0.00       1.0  T
 217      2.2450843  0.107141E-02  0.319E+01    0.00       1.0  T
 218      2.2460163  0.931942E-03  0.318E+01    0.00       1.0  T
 219      2.2482642  0.224800E-02  0.321E+01    0.00       1.0  T
 220      2.2482218 -0.424038E-04  0.321E+01    0.00       1.0  T
 221      2.2450268 -0.319508E-02  0.320E+01    0.00       1.0  T
 222      2.2420683 -0.295842E-02  0.318E+01    0.00       1.0  T
 223      2.2418109 -0.257469E-03  0.318E+01    0.00       1.0  T
 224      2.2419875  0.176583E-03  0.318E+01    0.00       1.0  T
 225      2.2420557  0.682493E-04  0.318E+01    0.00       1.0  T
 226      2.2425876  0.531851E-03  0.317E+01    0.00       1.0  T
 227      2.2421247 -0.462907E-03  0.317E+01    0.00       1.0  T
 228      2.2417097 -0.414970E-03  0.318E+01    0.00       1.0  T
 229      2.2418036  0.939339E-04  0.319E+01    0.00       1.0  T
 230      2.2401623 -0.164135E-02  0.318E+01    0.00       1.0  T
 231     11.9815991  0.974144E+01  0.383E+01    0.00       1.0  T
 232     11.9816335  0.343171E-04  0.384E+01    0.00       1.0  T
 233     11.9808690 -0.764456E-03  0.383E+01    0.00       1.0  T
 234     11.9750915 -0.577750E-02  0.381E+01    0.00       1.0  T
 235     11.9736203 -0.147117E-02  0.378E+01    0.00       1.0  T
 236     11.9742805  0.660133E-03  0.380E+01    0.00       1.0  T
 237     11.9758756  0.159510E-02  0.384E+01    0.00       1.0  T
 238     14.3889083  0.241303E+01  0.452E+01    0.00       1.0  T
 239     14.4716120  0.827036E-01  0.455E+01    0.00       1.0  T
 240     14.4950409  0.234290E-01  0.451E+01    0.00       1.0  T
 241     14.5335075  0.384665E-01  0.450E+01    0.00       1.0  T
 242     14.5384353  0.492787E-02  0.448E+01    0.00       1.0  T
 243     14.5102221 -0.282133E-01  0.450E+01    0.00       1.0  T
 244     14.4741475 -0.360746E-01  0.456E+01    0.00       1.0  T
 245     14.3763810 -0.977665E-01  0.465E+01    0.00       1.0  T
 246     14.3142156 -0.621655E-01  0.477E+01    0.00       1.0  T
 247     14.2852609 -0.289546E-01  0.484E+01    0.01       1.0  T
 248     14.2670198 -0.182412E-01  0.499E+01    0.00       1.0  T
 249     14.2579946 -0.902518E-02  0.499E+01    0.01       1.0  T
 250     16.2261156  0.196812E+01  0.587E+01    0.00       1.0  T
     SCC iter.                  ...        0 min,  0.112 sec
     gradient                   ...        0 min,  0.000 sec
 * total energy  :    22.3629493 Eh     change        0.2899111E+02 Eh
   gradient norm :    26.9244735 Eh/α   predicted    -0.2329678E+02 (-180.36%)
   displ. norm   :     0.3837286 α      lambda       -0.1033089E+02
   maximum displ.:     0.3836639 α      in ANC's #11, #12, #3, ...

........................................................................
.............................. CYCLE    3 ..............................
........................................................................
   1     14.1673575  0.141674E+02  0.527E+01    0.00       0.0  T
   2     -0.6485500 -0.148159E+02  0.288E+01    0.03       1.0  T
   3    -12.5050637 -0.118565E+02  0.197E+01    3.68       1.0  T
   4    -12.7677020 -0.262638E+00  0.156E+01    4.23       1.0  T
   5    -12.1904275  0.577275E+00  0.141E+01    0.00       1.0  T
   6    -12.1447671  0.456604E-01  0.168E+01    0.00       1.0  T
   7    -12.4154165 -0.270649E+00  0.114E+01    0.00       1.0  T
   8    -12.4193645 -0.394798E-02  0.107E+01    0.00       1.0  T
   9    -12.4204913 -0.112679E-02  0.106E+01    0.00       1.0  T
  10    -12.4193601  0.113115E-02  0.106E+01    0.00       1.0  T
  11    -12.2943155  0.125045E+00  0.959E+00    0.01       1.0  T
  12    -12.2992418 -0.492626E-02  0.944E+00    0.02       1.0  T
  13    -12.8563083 -0.557066E+00  0.658E+00    0.40       1.0  T
  14    -12.9273312 -0.710229E-01  0.525E+00    0.19       1.0  T
  15    -12.2563023  0.671029E+00  0.978E+00    0.00       1.0  T
  16    -12.8523281 -0.596026E+00  0.641E+00    0.81       1.0  T
  17    -12.4489464  0.403382E+00  0.968E+00    0.00       1.0  T
  18    -12.2537209  0.195226E+00  0.102E+01    0.00       1.0  T
  19    -12.9660398 -0.712319E+00  0.438E+00    0.15       1.0  T
  20    -12.2494472  0.716593E+00  0.967E+00    0.00       1.0  T
  21    -12.9671495 -0.717702E+00  0.419E+00    0.05       1.0  T
  22    -12.2494074  0.717742E+00  0.952E+00    0.00       1.0  T
  23    -12.4968125 -0.247405E+00  0.924E+00    0.00       1.0  T
  24    -12.2445554  0.252257E+00  0.984E+00    0.00       1.0  T
  25    -12.4308367 -0.186281E+00  0.988E+00    0.00       1.0  T
  26    -12.2389211  0.191916E+00  0.991E+00    0.00       1.0  T
  27    -12.4236062 -0.184685E+00  0.100E+01    0.00       1.0  T
  28    -12.2371652  0.186441E+00  0.978E+00    0.00       1.0  T
  29    -12.4210100 -0.183845E+00  0.102E+01    0.00       1.0  T
  30    -12.2635344  0.157476E+00  0.956E+00    0.00       1.0  T
  31    -12.4187465 -0.155212E+00  0.103E+01    0.00       1.0  T
  32    -12.4100643  0.868219E-02  0.104E+01    0.00       1.0  T
  33    -12.4137771 -0.371284E-02  0.104E+01    0.00       1.0  T
  34    -12.4266944 -0.129172E-01  0.101E+01    0.00       1.0  T
  35    -12.8551832 -0.428489E+00  0.663E+00    0.42       1.0  T
  36    -12.8358196  0.193636E-01  0.702E+00    1.15       1.0  T
  37    -12.8343438  0.147580E-02  0.711E+00    1.02       1.0  T
  38    -12.8209329  0.134109E-01  0.751E+00    1.40       1.0  T
  39    -12.8267231 -0.579020E-02  0.736E+00    1.12       1.0  T
  40    -12.8294520 -0.272885E-02  0.720E+00    1.19       1.0  T
  41    -12.8383532 -0.890123E-02  0.691E+00    0.90       1.0  T
  42    -12.8436702 -0.531697E-02  0.675E+00    0.73       1.0  T
  43    -12.8541604 -0.104903E-01  0.643E+00    0.55       1.0  T
  44    -12.8634649 -0.930447E-02  0.614E+00    0.48       1.0  T
  45    -12.3343487  0.529116E+00  0.882E+00    0.01       1.0  T
  46    -12.8098280 -0.475479E+00  0.779E+00    1.69       1.0  T
  47    -12.2468837  0.562944E+00  0.949E+00    0.00       1.0  T
  48    -12.8224246 -0.575541E+00  0.740E+00    1.34       1.0  T
  49    -12.9876446 -0.165220E+00  0.411E+00    0.14       1.0  T
  50    -12.8687370  0.118908E+00  0.606E+00    0.39       1.0  T
  51    -12.8604243  0.831276E-02  0.621E+00    0.57       1.0  T
  52    -12.2367926  0.623632E+00  0.101E+01    0.00       1.0  T
  53    -12.8344459 -0.597653E+00  0.702E+00    1.12       1.0  T
  54    -12.2527117  0.581734E+00  0.936E+00    0.00       1.0  T
  55    -12.8236034 -0.570892E+00  0.744E+00    1.07       1.0  T
  56    -13.0287578 -0.205154E+00  0.314E+00    0.09       1.0  T
  57    -12.9137130  0.115045E+00  0.529E+00    0.21       1.0  T
  58    -12.2426925  0.671021E+00  0.968E+00    0.00       1.0  T
  59    -12.8387224 -0.596030E+00  0.693E+00    0.88       1.0  T
  60    -12.8655049 -0.267825E-01  0.624E+00    0.03       1.0  T
  61    -12.8587021  0.680279E-02  0.633E+00    0.53       1.0  T
  62    -12.2466581  0.612044E+00  0.950E+00    0.00       1.0  T
  63    -12.8373722 -0.590714E+00  0.699E+00    0.86       1.0  T
  64    -12.9161780 -0.788058E-01  0.490E+00    0.05       1.0  T
  65    -12.8960415  0.201365E-01  0.555E+00    0.25       1.0  T
  66    -12.2440432  0.651998E+00  0.960E+00    0.00       1.0  T
  67    -12.8434099 -0.599367E+00  0.679E+00    0.77       1.0  T
  68    -12.9673739 -0.123964E+00  0.421E+00    0.05       1.0  T
  69    -12.9163593  0.510146E-01  0.520E+00    0.21       1.0  T
  70    -12.2440792  0.672280E+00  0.958E+00    0.00       1.0  T
  71    -12.8458808 -0.601802E+00  0.672E+00    0.72       1.0  T
  72    -13.0639255 -0.218045E+00  0.266E+00    0.06       1.0  T
  73    -12.8791086  0.184817E+00  0.598E+00    0.29       1.0  T
  74    -12.2467178  0.632391E+00  0.946E+00    0.00       1.0  T
  75    -12.8450551 -0.598337E+00  0.677E+00    0.69       1.0  T
  76    -12.9160212 -0.709661E-01  0.485E+00    0.05       1.0  T
  77    -13.0492134 -0.133192E+00  0.240E+00    0.10       1.0  T
  78    -12.8022604  0.246953E+00  0.652E+00    0.02       1.0  T
  79    -12.2472867  0.554974E+00  0.946E+00    0.00       1.0  T
  80    -12.8653582 -0.618071E+00  0.642E+00    0.32       1.0  T
  81    -12.9340297 -0.686715E-01  0.489E+00    0.19       1.0  T
  82    -12.2476842  0.686346E+00  0.943E+00    0.00       1.0  T
  83    -12.8440024 -0.596318E+00  0.678E+00    0.74       1.0  T
  84    -13.0321063 -0.188104E+00  0.277E+00    0.09       1.0  T
  85    -13.0190289  0.130774E-01  0.289E+00    0.07       1.0  T
  86    -12.3586494  0.660380E+00  0.870E+00    0.00       1.0  T
  87    -12.8558872 -0.497238E+00  0.660E+00    0.40       1.0  T
  88    -12.9963996 -0.140512E+00  0.368E+00    0.13       1.0  T
  89    -12.2527955  0.743604E+00  0.932E+00    0.00       1.0  T
  90    -12.8482380 -0.595443E+00  0.669E+00    0.59       1.0  T
  91    -13.0233270 -0.175089E+00  0.288E+00    0.07       1.0  T
  92    -12.9787973  0.445296E-01  0.372E+00    0.05       1.0  T
  93    -13.0670118 -0.882144E-01  0.245E+00    0.06       1.0  T
  94    -13.0150126  0.519992E-01  0.341E+00    0.11       1.0  T
  95    -12.2551532  0.759859E+00  0.929E+00    0.00       1.0  T
  96    -12.8512074 -0.596054E+00  0.659E+00    0.58       1.0  T
  97    -13.0036520 -0.152445E+00  0.301E+00    0.05       1.0  T
  98    -12.8673644  0.136288E+00  0.622E+00    0.36       1.0  T
  99    -12.2498522  0.617512E+00  0.936E+00    0.00       1.0  T
 100    -12.8503711 -0.600519E+00  0.659E+00    0.60       1.0  T
 101    -12.9479941 -0.976230E-01  0.434E+00    0.05       1.0  T
 102    -13.0138071 -0.658130E-01  0.309E+00    0.06       1.0  T
 103    -12.9329990  0.808081E-01  0.452E+00    0.04       1.0  T
 104    -12.2942868  0.638712E+00  0.907E+00    0.00       1.0  T
 105    -12.8792707 -0.584984E+00  0.618E+00    0.26       1.0  T
 106    -12.9757915 -0.965208E-01  0.415E+00    0.15       1.0  T
 107    -12.2587288  0.717063E+00  0.927E+00    0.00       1.0  T
 108    -12.8513695 -0.592641E+00  0.658E+00    0.57       1.0  T
 109    -13.0327139 -0.181344E+00  0.269E+00    0.09       1.0  T
 110    -12.9951965  0.375175E-01  0.340E+00    0.06       1.0  T
 111    -13.0518452 -0.566488E-01  0.216E+00    0.08       1.0  T
 112    -13.0724073 -0.205621E-01  0.196E+00    0.06       1.0  T
 113    -12.8893239  0.183083E+00  0.575E+00    0.26       1.0  T
 114    -12.2460460  0.643278E+00  0.953E+00    0.00       1.0  T
 115    -12.8575930 -0.611547E+00  0.632E+00    0.58       1.0  T
 116    -12.2509812  0.606612E+00  0.935E+00    0.00       1.0  T
 117    -12.8532912 -0.602310E+00  0.651E+00    0.55       1.0  T
 118    -12.9480405 -0.947493E-01  0.432E+00    0.05       1.0  T
 119    -13.0171424 -0.691020E-01  0.302E+00    0.07       1.0  T
 120    -12.9857841  0.313584E-01  0.361E+00    0.05       1.0  T
 121    -12.8464313  0.139353E+00  0.521E+00    0.02       1.0  T
 122    -12.9008505 -0.544193E-01  0.573E+00    0.22       1.0  T
 123    -12.6695448  0.231306E+00  0.651E+00    0.01       1.0  T
 124    -12.8573798 -0.187835E+00  0.641E+00    0.50       1.0  T
 125    -12.2757892  0.581591E+00  0.915E+00    0.00       1.0  T
 126    -12.8508229 -0.575034E+00  0.658E+00    0.61       1.0  T
 127    -13.0318120 -0.180989E+00  0.274E+00    0.09       1.0  T
 128    -13.0021315  0.296805E-01  0.332E+00    0.06       1.0  T
 129    -13.0238862 -0.217547E-01  0.280E+00    0.07       1.0  T
 130    -12.5527243  0.471162E+00  0.753E+00    0.01       1.0  T
 131    -12.8734621 -0.320738E+00  0.616E+00    0.30       1.0  T
 132    -13.0455478 -0.172086E+00  0.291E+00    0.13       1.0  T
 133    -13.0188099  0.267379E-01  0.311E+00    0.11       1.0  T
 134    -12.2486037  0.770206E+00  0.938E+00    0.00       1.0  T
 135    -12.8642621 -0.615658E+00  0.620E+00    0.42       1.0  T
 136    -12.2638063  0.600456E+00  0.923E+00    0.00       1.0  T
 137    -12.8574270 -0.593621E+00  0.641E+00    0.47       1.0  T
 138    -12.8623523 -0.492521E-02  0.556E+00    0.04       1.0  T
 139    -13.0032637 -0.140911E+00  0.334E+00    0.06       1.0  T
 140    -12.9895298  0.137340E-01  0.359E+00    0.06       1.0  T
 141    -13.0297876 -0.402579E-01  0.266E+00    0.08       1.0  T
 142    -13.0058564  0.239313E-01  0.306E+00    0.04       1.0  T
 143    -12.9001689  0.105687E+00  0.563E+00    0.23       1.0  T
 144    -12.2507334  0.649436E+00  0.935E+00    0.00       1.0  T
 145    -12.8578672 -0.607134E+00  0.634E+00    0.54       1.0  T
 146    -12.5971759  0.260691E+00  0.714E+00    0.01       1.0  T
 147    -12.8597678 -0.262592E+00  0.638E+00    0.43       1.0  T
 148    -13.0266246 -0.166857E+00  0.277E+00    0.08       1.0  T
 149    -12.9901819  0.364426E-01  0.352E+00    0.06       1.0  T
 150    -13.0252585 -0.350765E-01  0.274E+00    0.07       1.0  T
 151    -12.6952484  0.330010E+00  0.646E+00    0.01       1.0  T
 152    -12.8794119 -0.184164E+00  0.601E+00    0.28       1.0  T
 153    -12.4518175  0.427594E+00  0.806E+00    0.01       1.0  T
 154    -12.8583742 -0.406557E+00  0.637E+00    0.49       1.0  T
 155    -13.0432698 -0.184896E+00  0.246E+00    0.10       1.0  T
 156    -12.9928008  0.504690E-01  0.344E+00    0.06       1.0  T
 157    -13.0586866 -0.658858E-01  0.204E+00    0.09       1.0  T
 158    -13.0935122 -0.348256E-01  0.957E-01    0.07       1.0  T
 159    -12.9155351  0.177977E+00  0.528E+00    0.21       1.0  T
 160    -12.2464093  0.669126E+00  0.949E+00    0.00       1.0  T
 161    -12.8673624 -0.620953E+00  0.606E+00    0.43       1.0  T
 162    -12.2481011  0.619261E+00  0.940E+00    0.00       1.0  T
 163    -12.8671696 -0.619069E+00  0.613E+00    0.38       1.0  T
 164    -12.8028233  0.643463E-01  0.627E+00    0.03       1.0  T
 165    -12.9675158 -0.164693E+00  0.393E+00    0.05       1.0  T
 166    -13.0121603 -0.446445E-01  0.307E+00    0.06       1.0  T
 167    -13.0317576 -0.195973E-01  0.276E+00    0.10       1.0  T
 168    -12.2756236  0.756134E+00  0.916E+00    0.00       1.0  T
 169    -12.8625115 -0.586888E+00  0.624E+00    0.44       1.0  T
 170    -12.5191207  0.343391E+00  0.763E+00    0.01       1.0  T
 171    -12.8600982 -0.340977E+00  0.633E+00    0.46       1.0  T
 172    -13.0304424 -0.170344E+00  0.276E+00    0.10       1.0  T
 173    -13.0130549  0.173875E-01  0.303E+00    0.07       1.0  T
 174    -13.0395835 -0.265287E-01  0.243E+00    0.08       1.0  T
 175    -12.5911792  0.448404E+00  0.719E+00    0.01       1.0  T
 176    -12.8712615 -0.280082E+00  0.610E+00    0.34       1.0  T
 177    -12.2988458  0.572416E+00  0.901E+00    0.01       1.0  T
 178    -12.8594423 -0.560597E+00  0.632E+00    0.48       1.0  T
 179    -13.0335239 -0.174082E+00  0.259E+00    0.08       1.0  T
 180    -12.9842540  0.492699E-01  0.363E+00    0.05       1.0  T
 181    -13.0343738 -0.501198E-01  0.255E+00    0.08       1.0  T
 182    -12.5331683  0.501205E+00  0.759E+00    0.01       1.0  T
 183    -12.8738313 -0.340663E+00  0.606E+00    0.32       1.0  T
 184    -12.5954434  0.278388E+00  0.709E+00    0.01       1.0  T
 185    -12.8655958 -0.270152E+00  0.621E+00    0.39       1.0  T
 186    -13.0495387 -0.183943E+00  0.225E+00    0.09       1.0  T
 187    -13.0005761  0.489625E-01  0.329E+00    0.06       1.0  T
 188    -13.0434814 -0.429053E-01  0.240E+00    0.09       1.0  T
 189    -12.4432134  0.600268E+00  0.817E+00    0.01       1.0  T
 190    -12.8689387 -0.425725E+00  0.612E+00    0.37       1.0  T
 191    -12.2998917  0.569047E+00  0.900E+00    0.01       1.0  T
 192    -12.8619691 -0.562077E+00  0.626E+00    0.44       1.0  T
 193    -13.0158222 -0.153853E+00  0.298E+00    0.07       1.0  T
 194    -12.9726992  0.431231E-01  0.385E+00    0.05       1.0  T
 195    -13.0301404 -0.574412E-01  0.265E+00    0.08       1.0  T
 196    -13.0677614 -0.376210E-01  0.185E+00    0.06       1.0  T
 197    -12.9387763  0.128985E+00  0.494E+00    0.18       1.0  T
 198    -12.2545175  0.684259E+00  0.929E+00    0.00       1.0  T
 199    -12.8662577 -0.611740E+00  0.612E+00    0.42       1.0  T
 200    -12.2737041  0.592554E+00  0.917E+00    0.00       1.0  T
 201    -12.8660157 -0.592312E+00  0.617E+00    0.39       1.0  T
 202    -12.9175087 -0.514930E-01  0.477E+00    0.04       1.0  T
 203    -13.0046383 -0.871296E-01  0.326E+00    0.06       1.0  T
 204    -13.0319271 -0.272888E-01  0.268E+00    0.08       1.0  T
 205    -13.0471027 -0.151756E-01  0.238E+00    0.10       1.0  T
 206    -12.9672389  0.798639E-01  0.363E+00    0.04       1.0  T
 207    -12.8895837  0.776552E-01  0.574E+00    0.26       1.0  T
 208    -12.2511585  0.638425E+00  0.934E+00    0.00       1.0  T
 209    -12.8667618 -0.615603E+00  0.609E+00    0.42       1.0  T
 210    -12.4161885  0.450573E+00  0.836E+00    0.01       1.0  T
 211    -12.8704078 -0.454219E+00  0.612E+00    0.34       1.0  T
 212    -12.9307512 -0.603434E-01  0.458E+00    0.04       1.0  T
 213    -13.0081525 -0.774013E-01  0.319E+00    0.06       1.0  T
 214    -13.0323661 -0.242136E-01  0.267E+00    0.09       1.0  T
 215    -13.0981247 -0.657586E-01  0.659E-01    0.09       1.0  T
 216    -12.9918579  0.106267E+00  0.382E+00    0.13       1.0  T
 217    -12.2531036  0.738754E+00  0.931E+00    0.00       1.0  T
 218    -12.8709605 -0.617857E+00  0.601E+00    0.37       1.0  T
 219    -12.2615844  0.609376E+00  0.925E+00    0.00       1.0  T
 220    -12.8689338 -0.607349E+00  0.609E+00    0.37       1.0  T
 221    -12.9217470 -0.528133E-01  0.470E+00    0.04       1.0  T
 222    -13.0085737 -0.868267E-01  0.316E+00    0.06       1.0  T
 223    -13.0321290 -0.235553E-01  0.268E+00    0.09       1.0  T
 224    -13.0688250 -0.366960E-01  0.177E+00    0.06       1.0  T
 225    -12.9457356  0.123089E+00  0.480E+00    0.17       1.0  T
 226    -12.2671871  0.678548E+00  0.920E+00    0.00       1.0  T
 227    -12.8683344 -0.601147E+00  0.607E+00    0.40       1.0  T
 228    -12.5388618  0.329473E+00  0.757E+00    0.01       1.0  T
 229    -12.8739189 -0.335057E+00  0.604E+00    0.32       1.0  T
 230    -12.9769046 -0.102986E+00  0.379E+00    0.05       1.0  T
 231    -13.0075876 -0.306829E-01  0.318E+00    0.06       1.0  T
 232    -13.0332161 -0.256286E-01  0.261E+00    0.09       1.0  T
 233    -12.8065686  0.226648E+00  0.543E+00    0.02       1.0  T
 234    -12.8983731 -0.918045E-01  0.562E+00    0.24       1.0  T
 235    -12.8215463  0.768269E-01  0.521E+00    0.02       1.0  T
 236    -12.8852573 -0.637110E-01  0.582E+00    0.28       1.0  T
 237    -12.9948258 -0.109569E+00  0.342E+00    0.04       1.0  T
 238    -12.9237863  0.710396E-01  0.522E+00    0.19       1.0  T
 239    -13.0277504 -0.103964E+00  0.268E+00    0.07       1.0  T
 240    -12.5377429  0.490008E+00  0.777E+00    0.01       1.0  T
 241    -12.9058562 -0.368113E+00  0.551E+00    0.22       1.0  T
 242    -13.0290062 -0.123150E+00  0.266E+00    0.07       1.0  T
 243    -12.9843157  0.446905E-01  0.395E+00    0.05       1.0  T
 244    -13.0519139 -0.675983E-01  0.219E+00    0.09       1.0  T
 245    -13.0783065 -0.263926E-01  0.184E+00    0.11       1.0  T
 246    -12.9841887  0.941178E-01  0.399E+00    0.15       1.0  T
 247    -12.2482439  0.735945E+00  0.940E+00    0.00       1.0  T
 248    -12.8764873 -0.628243E+00  0.585E+00    0.35       1.0  T
 249    -12.2490009  0.627486E+00  0.938E+00    0.00       1.0  T
 250    -12.8841358 -0.635135E+00  0.577E+00    0.29       1.0  T
     SCC iter.                  ...        0 min,  0.110 sec
     gradient                   ...        0 min,  0.000 sec
 * total energy  :   -12.6991965 Eh     change       -0.3506215E+02 Eh
   gradient norm :     4.0886989 Eh/α   predicted    -0.5926047E+01 ( -83.10%)
   displ. norm   :     0.0833807 α      lambda       -0.2848845E+00
   maximum displ.:     0.0685705 α      in ANC's #11, #3, #12, ...

........................................................................
.............................. CYCLE    4 ..............................
........................................................................
   1    -12.5098829 -0.125099E+02  0.115E+01    0.01       0.0  T
   2    -12.6451148 -0.135232E+00  0.858E+00    2.04       1.0  T
   3    -12.2535010  0.391614E+00  0.109E+01    0.00       1.0  T
   4    -12.2671883 -0.136873E-01  0.102E+01    0.01       1.0  T
   5    -12.2682143 -0.102604E-02  0.101E+01    0.01       1.0  T
   6    -12.2546682  0.135461E-01  0.106E+01    0.05       1.0  T
   7    -12.6900969 -0.435429E+00  0.133E+01    2.38       1.0  T
   8    -12.7143830 -0.242861E-01  0.130E+01    2.04       1.0  T
   9    -12.5776474  0.136736E+00  0.149E+01    4.09       1.0  T
  10    -12.6819268 -0.104279E+00  0.149E+01    2.66       1.0  T
  11    -12.7124407 -0.305139E-01  0.143E+01    2.13       1.0  T
  12    -12.7978875 -0.854468E-01  0.114E+01    0.53       1.0  T
  13    -12.8367642 -0.388766E-01  0.101E+01    0.05       1.0  T
  14    -12.4874318  0.349332E+00  0.121E+01    0.02       1.0  T
  15    -12.4370890  0.503428E-01  0.100E+01    0.00       1.0  T
  16    -12.2554924  0.181597E+00  0.941E+00    0.00       1.0  T
  17    -12.7891794 -0.533687E+00  0.882E+00    1.78       1.0  T
  18    -12.8790861 -0.899068E-01  0.613E+00    0.39       1.0  T
  19    -12.8727214  0.636475E-02  0.622E+00    0.51       1.0  T
  20    -12.2157994  0.656922E+00  0.112E+01    0.00       1.0  T
  21    -12.7800906 -0.564291E+00  0.916E+00    1.67       1.0  T
  22    -12.8648085 -0.847179E-01  0.644E+00    0.52       1.0  T
  23    -12.2254788  0.639330E+00  0.105E+01    0.00       1.0  T
  24    -12.7772216 -0.551743E+00  0.934E+00    1.48       1.0  T
  25    -12.8830719 -0.105850E+00  0.621E+00    0.30       1.0  T
  26    -12.2330257  0.650046E+00  0.100E+01    0.00       1.0  T
  27    -12.7830316 -0.550006E+00  0.925E+00    1.23       1.0  T
  28    -13.0334298 -0.250398E+00  0.373E+00    0.10       1.0  T
  29    -12.9773793  0.560505E-01  0.430E+00    0.16       1.0  T
  30    -12.2313429  0.746036E+00  0.103E+01    0.00       1.0  T
  31    -12.7992763 -0.567933E+00  0.868E+00    1.13       1.0  T
  32    -12.9579843 -0.158708E+00  0.479E+00    0.06       1.0  T
  33    -12.2434355  0.714549E+00  0.976E+00    0.00       1.0  T
  34    -12.8027213 -0.559286E+00  0.853E+00    1.20       1.0  T
  35    -13.0379074 -0.235186E+00  0.325E+00    0.09       1.0  T
  36    -12.2637624  0.774145E+00  0.930E+00    0.00       1.0  T
  37    -12.8027628 -0.539000E+00  0.856E+00    1.14       1.0  T
  38    -12.9619053 -0.159143E+00  0.492E+00    0.17       1.0  T
  39    -13.0401196 -0.782142E-01  0.275E+00    0.09       1.0  T
  40    -12.2535896  0.786530E+00  0.937E+00    0.00       1.0  T
  41    -12.8075630 -0.553973E+00  0.838E+00    1.12       1.0  T
  42    -12.9342763 -0.126713E+00  0.532E+00    0.20       1.0  T
  43    -13.0405928 -0.106316E+00  0.271E+00    0.09       1.0  T
  44    -12.8875856  0.153007E+00  0.580E+00    0.38       1.0  T
  45    -12.2329443  0.654641E+00  0.102E+01    0.00       1.0  T
  46    -12.8155976 -0.582653E+00  0.809E+00    1.06       1.0  T
  47    -12.8901785 -0.745810E-01  0.603E+00    0.29       1.0  T
  48    -12.9127262 -0.225476E-01  0.510E+00    0.05       1.0  T
  49    -12.2994982  0.613228E+00  0.907E+00    0.00       1.0  T
  50    -12.8114984 -0.512000E+00  0.823E+00    1.13       1.0  T
  51    -12.8903115 -0.788131E-01  0.598E+00    0.29       1.0  T
  52    -13.0076165 -0.117305E+00  0.362E+00    0.14       1.0  T
  53    -12.8866580  0.120958E+00  0.588E+00    0.35       1.0  T
  54    -12.2419514  0.644707E+00  0.974E+00    0.00       1.0  T
  55    -12.8111209 -0.569170E+00  0.827E+00    1.05       1.0  T
  56    -12.8668753 -0.557543E-01  0.654E+00    0.40       1.0  T
  57    -13.0357407 -0.168865E+00  0.309E+00    0.11       1.0  T
  58    -12.8783521  0.157389E+00  0.610E+00    0.39       1.0  T
  59    -12.2474442  0.630908E+00  0.949E+00    0.00       1.0  T
  60    -12.8075584 -0.560114E+00  0.841E+00    1.04       1.0  T
  61    -12.8608095 -0.532511E-01  0.672E+00    0.44       1.0  T
  62    -12.9995282 -0.138719E+00  0.408E+00    0.14       1.0  T
  63    -12.8830710  0.116457E+00  0.610E+00    0.33       1.0  T
  64    -13.0079938 -0.124923E+00  0.371E+00    0.13       1.0  T
  65    -12.8927764  0.115217E+00  0.582E+00    0.30       1.0  T
  66    -13.0434110 -0.150635E+00  0.299E+00    0.14       1.0  T
  67    -12.8832616  0.160149E+00  0.602E+00    0.35       1.0  T
  68    -12.2984827  0.584779E+00  0.912E+00    0.00       1.0  T
  69    -12.8078682 -0.509385E+00  0.841E+00    1.03       1.0  T
  70    -12.8600553 -0.521871E-01  0.675E+00    0.44       1.0  T
  71    -12.9571372 -0.970819E-01  0.492E+00    0.18       1.0  T
  72    -12.9014714  0.556658E-01  0.583E+00    0.26       1.0  T
  73    -12.9551450 -0.536735E-01  0.489E+00    0.18       1.0  T
  74    -12.9230833  0.320617E-01  0.542E+00    0.22       1.0  T
  75    -12.9546752 -0.315919E-01  0.486E+00    0.18       1.0  T
  76    -12.9370073  0.176679E-01  0.515E+00    0.20       1.0  T
  77    -12.9525596 -0.155523E-01  0.486E+00    0.18       1.0  T
  78    -12.9453425  0.721707E-02  0.498E+00    0.19       1.0  T
  79    -12.9500682 -0.472573E-02  0.489E+00    0.19       1.0  T
  80    -12.9515169 -0.144869E-02  0.487E+00    0.18       1.0  T
  81    -12.9496878  0.182908E-02  0.491E+00    0.19       1.0  T
  82    -12.9718748 -0.221870E-01  0.452E+00    0.16       1.0  T
  83    -12.9731260 -0.125112E-02  0.450E+00    0.16       1.0  T
  84    -12.2512219  0.721904E+00  0.943E+00    0.00       1.0  T
  85    -12.8272038 -0.575982E+00  0.787E+00    0.67       1.0  T
  86    -12.9059041 -0.787004E-01  0.532E+00    0.04       1.0  T
  87    -12.2385211  0.667383E+00  0.986E+00    0.00       1.0  T
  88    -12.8266252 -0.588104E+00  0.781E+00    0.76       1.0  T
  89    -12.9907614 -0.164136E+00  0.438E+00    0.14       1.0  T
  90    -12.5149874  0.475774E+00  0.922E+00    0.00       1.0  T
  91    -12.2277714  0.287216E+00  0.106E+01    0.00       1.0  T
  92    -12.8315855 -0.603814E+00  0.750E+00    0.99       1.0  T
  93    -12.9133882 -0.818027E-01  0.553E+00    0.24       1.0  T
  94    -12.2409040  0.672484E+00  0.969E+00    0.00       1.0  T
  95    -12.8351521 -0.594248E+00  0.756E+00    0.65       1.0  T
  96    -12.8944310 -0.592789E-01  0.540E+00    0.04       1.0  T
  97    -12.2453033  0.649128E+00  0.955E+00    0.00       1.0  T
  98    -12.8267747 -0.581471E+00  0.780E+00    0.78       1.0  T
  99    -13.0220769 -0.195302E+00  0.362E+00    0.11       1.0  T
 100    -12.7628652  0.259212E+00  0.686E+00    0.02       1.0  T
 101    -12.2413624  0.521503E+00  0.983E+00    0.00       1.0  T
 102    -12.8307752 -0.589413E+00  0.758E+00    0.89       1.0  T
 103    -13.0119686 -0.181193E+00  0.364E+00    0.13       1.0  T
 104    -12.2447276  0.767241E+00  0.954E+00    0.00       1.0  T
 105    -12.8382732 -0.593546E+00  0.745E+00    0.65       1.0  T
 106    -12.9191364 -0.808632E-01  0.499E+00    0.04       1.0  T
 107    -12.9151782  0.395824E-02  0.432E+00    0.03       1.0  T
 108    -12.8619017  0.532765E-01  0.672E+00    0.44       1.0  T
 109    -12.2430956  0.618806E+00  0.957E+00    0.00       1.0  T
 110    -12.8420822 -0.598987E+00  0.735E+00    0.57       1.0  T
 111    -12.9871695 -0.145087E+00  0.399E+00    0.06       1.0  T
 112    -13.0139208 -0.267513E-01  0.353E+00    0.13       1.0  T
 113    -12.2431679  0.770753E+00  0.959E+00    0.00       1.0  T
 114    -12.8456544 -0.602486E+00  0.722E+00    0.55       1.0  T
 115    -12.8104188  0.352356E-01  0.638E+00    0.03       1.0  T
 116    -12.2486382  0.561781E+00  0.946E+00    0.00       1.0  T
 117    -12.8338833 -0.585245E+00  0.755E+00    0.74       1.0  T
 118    -13.0240666 -0.190183E+00  0.347E+00    0.11       1.0  T
 119    -13.0285094 -0.444288E-02  0.287E+00    0.07       1.0  T
 120    -12.2498168  0.778693E+00  0.942E+00    0.00       1.0  T
 121    -12.8432093 -0.593393E+00  0.726E+00    0.63       1.0  T
 122    -12.8840644 -0.408551E-01  0.542E+00    0.04       1.0  T
 123    -12.2618579  0.622206E+00  0.933E+00    0.00       1.0  T
 124    -12.8365814 -0.574723E+00  0.745E+00    0.74       1.0  T
 125    -13.0336434 -0.197062E+00  0.310E+00    0.10       1.0  T
 126    -13.0189868  0.146566E-01  0.331E+00    0.12       1.0  T
 127    -12.2433071  0.775680E+00  0.961E+00    0.00       1.0  T
 128    -12.8512086 -0.607902E+00  0.700E+00    0.55       1.0  T
 129    -12.8446813  0.652733E-02  0.592E+00    0.03       1.0  T
 130    -13.0090438 -0.164363E+00  0.306E+00    0.04       1.0  T
 131    -12.8777973  0.131246E+00  0.625E+00    0.35       1.0  T
 132    -12.2402478  0.637550E+00  0.974E+00    0.00       1.0  T
 133    -12.8528945 -0.612647E+00  0.697E+00    0.50       1.0  T
 134    -13.0011624 -0.148268E+00  0.362E+00    0.06       1.0  T
 135    -12.9791551  0.220073E-01  0.428E+00    0.16       1.0  T
 136    -12.2426052  0.736550E+00  0.962E+00    0.00       1.0  T
 137    -12.8562740 -0.613669E+00  0.689E+00    0.46       1.0  T
 138    -12.8058239  0.504501E-01  0.641E+00    0.03       1.0  T
 139    -12.2891889  0.516635E+00  0.917E+00    0.00       1.0  T
 140    -12.8427153 -0.553526E+00  0.727E+00    0.64       1.0  T
 141    -13.0395903 -0.196875E+00  0.292E+00    0.09       1.0  T
[...]
   9    -13.1173323 -0.188505E-06  0.741E-03    0.09       5.5  T
  10    -13.1173326 -0.308715E-06  0.302E-03    0.09      13.5  T
  11    -13.1173326 -0.232892E-07  0.223E-03    0.09      18.3  T
  12    -13.1173326 -0.123249E-07  0.202E-03    0.09      20.2  T
     SCC iter.                  ...        0 min,  0.001 sec
     gradient                   ...        0 min,  0.000 sec
 * total energy  :   -13.0574243 Eh     change       -0.4484226E-04 Eh
   gradient norm :     0.0059468 Eh/α   predicted    -0.4091739E-04 (  -8.75%)
   displ. norm   :     0.0063673 α      lambda       -0.4586615E-05
   maximum displ.:     0.0051945 α      in ANC's #3, #2, #1, ...

........................................................................
.............................. CYCLE   15 ..............................
........................................................................
   1    -13.1172446 -0.131172E+02  0.454E-02    0.09       0.0  T
   2    -13.0833531  0.338915E-01  0.202E+00    0.07       1.0  T
   3    -13.1172048 -0.338517E-01  0.813E-02    0.08       1.0  T
   4    -13.1141720  0.303280E-02  0.613E-01    0.10       1.0  T
   5    -13.1172565 -0.308447E-02  0.234E-02    0.09       1.7  T
   6    -13.1172586 -0.212189E-05  0.158E-02    0.09       2.6  T
   7    -13.1172606 -0.195321E-05  0.170E-03    0.09      24.1  T
   8    -13.1172606 -0.244970E-07  0.610E-04    0.09      66.9  T
     SCC iter.                  ...        0 min,  0.001 sec
     gradient                   ...        0 min,  0.001 sec
 * total energy  :   -13.0574279 Eh     change       -0.3579653E-05 Eh
   gradient norm :     0.0018312 Eh/α   predicted    -0.2293216E-05 ( -35.94%)
   displ. norm   :     0.0218542 α      lambda       -0.8223953E-05
   maximum displ.:     0.0214948 α      in ANC's #3, #1, #8, ...

........................................................................
.............................. CYCLE   16 ..............................
........................................................................
   1    -13.1167696 -0.131168E+02  0.172E-01    0.08       0.0  T
   2    -12.7799189  0.336851E+00  0.687E+00    0.02       1.0  T
   3    -13.0439479 -0.264029E+00  0.298E+00    0.12       1.0  T
   4    -13.1169394 -0.729915E-01  0.114E-01    0.09       1.0  T
   5    -13.1169062  0.332106E-04  0.105E-01    0.08       1.0  T
   6    -13.1165873  0.318861E-03  0.222E-01    0.09       1.0  T
   7    -13.1170185 -0.431192E-03  0.172E-02    0.09       2.4  T
   8    -13.1170167  0.188595E-05  0.231E-02    0.09       1.8  T
   9    -13.1170204 -0.373757E-05  0.113E-02    0.09       3.6  T
  10    -13.1170213 -0.863224E-06  0.661E-03    0.09       6.2  T
  11    -13.1170216 -0.348113E-06  0.179E-03    0.09      22.7  T
  12    -13.1170216 -0.252119E-07  0.128E-03    0.09      31.8  T
  13    -13.1170216 -0.813401E-08  0.358E-04    0.09     114.1  T
  14    -13.1170216 -0.432081E-10  0.375E-04    0.09     108.8  T
     SCC iter.                  ...        0 min,  0.001 sec
     gradient                   ...        0 min,  0.001 sec
 * total energy  :   -13.0574336 Eh     change       -0.5742050E-05 Eh
   gradient norm :     0.0046093 Eh/α   predicted    -0.4112279E-05 ( -28.38%)
   displ. norm   :     0.0038722 α      lambda       -0.1512196E-05
   maximum displ.:     0.0037288 α      in ANC's #2, #3, #1, ...

........................................................................
.............................. CYCLE   17 ..............................
........................................................................
   1    -13.1170682 -0.131171E+02  0.226E-02    0.09       0.0  T
   2    -13.1016535  0.154147E-01  0.140E+00    0.11       1.0  T
   3    -13.1170705 -0.154170E-01  0.125E-02    0.09       3.3  T
   4    -13.1164299  0.640551E-03  0.253E-01    0.09       1.0  T
   5    -13.1170720 -0.642131E-03  0.218E-03    0.09      18.7  T
   6    -13.1170720  0.273875E-08  0.206E-03    0.09      19.8  T
   7    -13.1170721 -0.280483E-07  0.682E-04    0.09      59.8  T
     SCC iter.                  ...        0 min,  0.001 sec
     gradient                   ...        0 min,  0.000 sec
 * total energy  :   -13.0574347 Eh     change       -0.1105750E-05 Eh
   gradient norm :     0.0018635 Eh/α   predicted    -0.7568368E-06 ( -31.55%)
   displ. norm   :     0.0044691 α      lambda       -0.6275128E-06
   maximum displ.:     0.0038236 α      in ANC's #2, #3, #1, ...

........................................................................
.............................. CYCLE   18 ..............................
........................................................................
   1    -13.1171594 -0.131172E+02  0.503E-02    0.08       0.0  T
   2    -13.0648321  0.523273E-01  0.262E+00    0.12       1.0  T
   3    -13.1170967 -0.522646E-01  0.942E-02    0.09       1.0  T
   4    -13.1143910  0.270569E-02  0.510E-01    0.08       1.0  T
   5    -13.1171773 -0.278635E-02  0.125E-02    0.09       3.3  T
   6    -13.1171755  0.180463E-05  0.204E-02    0.09       2.0  T
   7    -13.1171781 -0.258797E-05  0.765E-03    0.09       5.3  T
   8    -13.1171785 -0.379891E-06  0.522E-03    0.09       7.8  T
   9    -13.1171787 -0.219307E-06  0.160E-03    0.09      25.6  T
  10    -13.1171787 -0.232948E-07  0.600E-04    0.09      68.1  T
  11    -13.1171787 -0.194750E-08  0.302E-04    0.09     135.0  T
     SCC iter.                  ...        0 min,  0.001 sec
     gradient                   ...        0 min,  0.001 sec
 * total energy  :   -13.0574350 Eh     change       -0.2977435E-06 Eh
   gradient norm :     0.0014168 Eh/α   predicted    -0.3121622E-06 (   4.84%)
   displ. norm   :     0.0014580 α      lambda       -0.9385296E-07
   maximum displ.:     0.0014484 α      in ANC's #2, #1, #3, ...

........................................................................
.............................. CYCLE   19 ..............................
........................................................................
   1    -13.1171752 -0.131172E+02  0.194E-03    0.09       0.0  T
   2    -13.1170707  0.104490E-03  0.111E-01    0.08       1.0  T
   3    -13.1171750 -0.104351E-03  0.401E-03    0.09      10.2  T
   4    -13.1171687  0.628951E-05  0.272E-02    0.09       1.5  T
   5    -13.1171752 -0.641493E-05  0.219E-03    0.09      18.7  T
   6    -13.1171752 -0.325291E-07  0.325E-04    0.09     125.7  T
   7    -13.1171752 -0.630045E-09  0.471E-05    0.09     867.7  T
     SCC iter.                  ...        0 min,  0.001 sec
     gradient                   ...        0 min,  0.001 sec
 * total energy  :   -13.0574351 Eh     change       -0.6987179E-07 Eh
   gradient norm :     0.0001407 Eh/α   predicted    -0.4524041E-07 ( -35.25%)
   displ. norm   :     0.0001892 α      lambda       -0.6837363E-08
   maximum displ.:     0.0001332 α      in ANC's #2, #3, #8, ...

   *** GEOMETRY OPTIMIZATION CONVERGED AFTER 19 ITERATIONS ***

------------------------------------------------------------------------
 total energy gain   :        -6.5004988 Eh    -4079.1246 kcal/mol
 total RMSD          :         0.2742085 a0        0.1451 Å
 total power (kW/mol):      -898.2661727 (step)********** (real)
------------------------------------------------------------------------

 ANCopt (total)                0 d,  0 h,  0 min,  1.334 sec
 optimizer setup                ...        0 min,  0.000 sec (  0.004%)
 model hessian                  ...        0 min,  0.000 sec (  0.005%)
 ANC generation                 ...        0 min,  0.000 sec (  0.005%)
 coordinate transformation      ...        0 min,  0.000 sec (  0.007%)
 single point calculation       ...        0 min,  1.332 sec ( 99.842%)
 optimization log               ...        0 min,  0.001 sec (  0.040%)
 hessian update                 ...        0 min,  0.000 sec (  0.006%)
 rational function              ...        0 min,  0.001 sec (  0.049%)

================
 final structure:
================
6
 xtb: 6.2.3 (830e466)
F        -4.41931593806756   -0.26053558687700    0.07807019658206
Cl        3.15464886556478    0.17915379246079   -0.05772551078211
C        -0.72144746105926   -0.03980366431678    0.01458923689354
H        -0.70431956432699   -0.62215727167607   -0.88039992554044
H        -0.67441448620685   -0.52184804968138    0.96638264553283
H        -0.77810141590086    1.02510078009059   -0.04220664268455
 
 Bond Distances (Angstroems)
 ---------------------------
C3-H4=1.0679         C3-H5=1.0679         C3-H6=1.0679         H4-C3=1.0679         H5-C3=1.0679         H6-C3=1.0679         
 C  H  Rav=1.0679 sigma=0.0000  Rmin=1.0679  Rmax=1.0679     3
 
 selected bond angles (degree)
 --------------------
H5-C3-H4=120.01                H6-C3-H4=120.00                H6-C3-H5=119.99                
 
 selected dihedral angles (degree)
 ---------------------------------

 
 CMA Distance (Angstroems)
 ---------------------------
R(CMA):  6.4318
           -------------------------------------------------
          |                Final Singlepoint                |
           -------------------------------------------------

          ...................................................
          :                      SETUP                      :
          :.................................................:
          :  # basis functions                  21          :
          :  # atomic orbitals                  20          :
          :  # shells                           10          :
          :  # electrons                        22          :
          :  max. iterations                   250          :
          :  Hamiltonian                  GFN2-xTB          :
          :  restarted?                      false          :
          :  GBSA solvation                  false          :
          :  PC potential                    false          :
          :  electronic temp.          300.0000000     K    :
          :  accuracy                    1.0000000          :
          :  -> integral cutoff          0.2500000E+02      :
          :  -> integral neglect         0.1000000E-07      :
          :  -> SCF convergence          0.1000000E-05 Eh   :
          :  -> wf. convergence          0.1000000E-03 e    :
          :  Broyden damping             0.4000000          :
          ...................................................

 iter      E             dE          RMSdq      gap      omega  full diag
   1    -13.1171752 -0.131172E+02  0.524E-05    0.09       0.0  T
   2    -13.1171752  0.239657E-07  0.191E-03    0.09      21.4  T
   3    -13.1171752 -0.101717E-07  0.128E-03    0.09      31.9  T
   4    -13.1171752 -0.774943E-08  0.943E-04    0.09      43.3  T
   5    -13.1171752 -0.604212E-08  0.382E-05    0.09    1069.4  T

   *** convergence criteria satisfied after 5 iterations ***

         #    Occupation            Energy/Eh            Energy/eV
      -------------------------------------------------------------
         1        2.0000           -0.8652722             -23.5453
       ...           ...                  ...                  ...
         5        2.0000           -0.3802696             -10.3477
         6        1.9757           -0.2467009              -6.7131
         7        1.9030           -0.2453521              -6.6764
         8        1.9030           -0.2453521              -6.6764
         9        1.8629           -0.2450028              -6.6669
        10        1.8568           -0.2449584              -6.6657
        11        1.8567           -0.2449581              -6.6656 (HOMO)
        12        0.6419           -0.2418122              -6.5800 (LUMO)
        13                          0.2241778               6.1002
        14                          0.2396448               6.5211
        15                          0.2397365               6.5236
        16                          0.2397365               6.5236
       ...                                ...                  ...
        20                          0.3929329              10.6922
      -------------------------------------------------------------
                  HL-Gap            0.0031459 Eh            0.0856 eV
             Fermi-level           -0.2425241 Eh           -6.5994 eV

 SCC (total)                   0 d,  0 h,  0 min,  0.002 sec
 SCC setup                      ...        0 min,  0.000 sec (  4.046%)
 Dispersion                     ...        0 min,  0.000 sec (  0.482%)
 integral evaluation            ...        0 min,  0.001 sec ( 33.887%)
 zeroth order Hamiltonian       ...        0 min,  0.000 sec (  1.598%)
 iterations                     ...        0 min,  0.001 sec ( 26.963%)
 molecular gradient             ...        0 min,  0.001 sec ( 28.662%)
 printout                       ...        0 min,  0.000 sec (  2.701%)

         :::::::::::::::::::::::::::::::::::::::::::::::::::::
         ::                     SUMMARY                     ::
         :::::::::::::::::::::::::::::::::::::::::::::::::::::
         :: total energy             -13.057435080903 Eh    ::
         :: gradient norm              0.000140715181 Eh/a0 ::
         :: HOMO-LUMO gap              0.085605064386 eV    ::
         ::.................................................::
         :: SCC energy               -13.117175195375 Eh    ::
         :: -> isotropic ES            0.153818814548 Eh    ::
         :: -> anisotropic ES         -0.000858656786 Eh    ::
         :: -> anisotropic XC          0.006763120215 Eh    ::
         :: -> dispersion             -0.001278265931 Eh    ::
         :: repulsion energy           0.059743635968 Eh    ::
         :: add. restraining           0.000000093250 Eh    ::
         :::::::::::::::::::::::::::::::::::::::::::::::::::::

           -------------------------------------------------
          |                Property Printout                |
           -------------------------------------------------

    * Orbital Energies and Occupations

         #    Occupation            Energy/Eh            Energy/eV
      -------------------------------------------------------------
         1        2.0000           -0.8652722             -23.5453
         2        2.0000           -0.5317998             -14.4710
         3        2.0000           -0.4784445             -13.0191
         4        2.0000           -0.3802823             -10.3480
         5        2.0000           -0.3802696             -10.3477
         6        1.9757           -0.2467009              -6.7131
         7        1.9030           -0.2453521              -6.6764
         8        1.9030           -0.2453521              -6.6764
         9        1.8629           -0.2450028              -6.6669
        10        1.8568           -0.2449584              -6.6657
        11        1.8567           -0.2449581              -6.6656 (HOMO)
        12        0.6419           -0.2418122              -6.5800 (LUMO)
        13                          0.2241778               6.1002
        14                          0.2396448               6.5211
        15                          0.2397365               6.5236
        16                          0.2397365               6.5236
        17                          0.2401311               6.5343
        18                          0.2401311               6.5343
        19                          0.3927974              10.6886
        20                          0.3929329              10.6922
      -------------------------------------------------------------
                  HL-Gap            0.0031459 Eh            0.0856 eV
             Fermi-level           -0.2425241 Eh           -6.5994 eV

     #   Z        covCN         q      C6AA      α(0)
     1   9 F      0.000    -0.533    15.801     4.630
     2  17 Cl     0.000    -0.617   112.301    16.128
     3   6 C      2.780    -0.092    30.290     9.014
     4   1 H      0.927     0.081     1.973     2.196
     5   1 H      0.927     0.081     1.974     2.197
     6   1 H      0.927     0.080     1.974     2.197

 Mol. C6AA /au·bohr⁶  :        583.321332
 Mol. C8AA /au·bohr⁸  :      16526.988031
 Mol. α(0) /au        :         36.362606


Wiberg/Mayer (AO) data.
largest (>0.10) Wiberg bond orders for each atom
          total WBO             WBO to atom ...
     1  F   0.050
     2  Cl  0.183        C    3 0.183
     3  C   3.208        H    6 0.992    H    5 0.992    H    4 0.992    Cl   2 0.183
     4  H   0.994        C    3 0.992
     5  H   0.994        C    3 0.992
     6  H   0.994        C    3 0.992

molecular dipole:
                 x           y           z       tot (Debye)
 q only:        0.567       0.042      -0.007
   full:        0.553       0.041      -0.007       1.410
molecular quadrupole (traceless):
                xx          xy          yy          xz          yz          zz
 q only:      -59.175      -5.169      29.451       1.592       0.093      29.724
  q+dip:      -60.313      -5.264      30.017       1.624       0.095      30.295
   full:      -59.478      -5.196      29.602       1.600       0.093      29.876

           -------------------------------------------------
          |                Geometry Summary                 |
           -------------------------------------------------

      molecular mass/u    :       69.4858989
   center of mass at/Å    :        0.2452663       0.0115685      -0.0049503
  moments of inertia/u·Å² :        0.3449022E+01   0.7319019E+03   0.7319026E+03
rotational constants/cm⁻¹ :        0.4887656E+01   0.2303264E-01   0.2303262E-01

 * 3 selected distances

     #   Z        #   Z                                     value/Å
     3   6 C      4   1 H                                 1.0679114 (min)
     3   6 C      5   1 H                                 1.0679371 (max)
     3   6 C      6   1 H                                 1.0679218

 * 1 distinct bonds (by element types)

   Z      Z             #   av. dist./Å        max./Å        min./Å
   1 H    6 C           3     1.0679234     1.0679371     1.0679114


optimized geometry written to: xtbopt.xyz


           -------------------------------------------------
          | TOTAL ENERGY              -13.057435080903 Eh   |
          | GRADIENT NORM               0.000140715181 Eh/α |
          | HOMO-LUMO GAP               0.085605064386 eV   |
           -------------------------------------------------
########################################################################
[WARNING] Runtime exception occurred
-12- scf: Self consistent charge iterator did not converge
-11- scf: Self consistent charge iterator did not converge
-10- scf: Self consistent charge iterator did not converge
-9- scf: Self consistent charge iterator did not converge
-8- scf: Self consistent charge iterator did not converge
-7- scf: Self consistent charge iterator did not converge
-6- scf: Self consistent charge iterator did not converge
-5- scf: Self consistent charge iterator did not converge
-4- scf: Self consistent charge iterator did not converge
-3- scf: Self consistent charge iterator did not converge
-2- scf: Self consistent charge iterator did not converge
-1- scf: Self consistent charge iterator did not converge
########################################################################

------------------------------------------------------------------------
 * finished run on 2020/04/08 at 23:04:49.773     
------------------------------------------------------------------------
 total:
 * wall-time:     0 d,  0 h,  0 min,  1.458 sec
 *  cpu-time:     0 d,  0 h,  0 min,  1.454 sec
 * ratio c/w:     0.997 speedup
 SCF:
 * wall-time:     0 d,  0 h,  0 min,  0.115 sec
 *  cpu-time:     0 d,  0 h,  0 min,  0.115 sec
 * ratio c/w:     0.999 speedup
 ANC optimizer:
 * wall-time:     0 d,  0 h,  0 min,  1.336 sec
 *  cpu-time:     0 d,  0 h,  0 min,  1.332 sec
 * ratio c/w:     0.997 speedup

