      -----------------------------------------------------------      
     |                   =====================                   |     
     |                           x T B                           |     
     |                   =====================                   |     
     |                         S. Grimme                         |     
     |          Mulliken Center for Theoretical Chemistry        |     
     |                    University of Bonn                     |     
      -----------------------------------------------------------      

   * xtb version 6.2.3 (830e466) compiled by 'ehlert@majestix' on 2020-03-16

   xtb is free software: you can redistribute it and/or modify it under
   the terms of the GNU Lesser General Public License as published by
   the Free Software Foundation, either version 3 of the License, or
   (at your option) any later version.
   
   xtb is distributed in the hope that it will be useful,
   but WITHOUT ANY WARRANTY; without even the implied warranty of
   MERCHANTABILITY or FITNESS FOR A PARTICULAR PURPOSE.  See the
   GNU Lesser General Public License for more details.
   
   Cite this work as:
   * S. Grimme, C. Bannwarth, P. Shushkov, J. Chem. Theory Comput., 2017,
     13, 1989-2009. DOI: 10.1021/acs.jctc.7b00118
   * C. Bannwarth, S. Ehlert and S. Grimme., J. Chem. Theory Comput., 2019,
     15, 1652-1671. DOI: 10.1021/acs.jctc.8b01176
   * P. Pracht, E. Caldeweyher, S. Ehlert, S. Grimme, ChemRxiv, 2019, preprint.
     DOI: 10.26434/chemrxiv.8326202.v1
   
   for DFT-D4:
   * E. Caldeweyher, C. Bannwarth and S. Grimme, J. Chem. Phys., 2017,
     147, 034112. DOI: 10.1063/1.4993215
   * E. Caldeweyher, S. Ehlert, A. Hansen, H. Neugebauer, S. Spicher,
     C. Bannwarth and S. Grimme, J. Chem. Phys., 2019, 150, 154122.
     DOI: 10.1063/1.5090222
   
   for sTDA-xTB:
   * S. Grimme and C. Bannwarth, J. Chem. Phys., 2016, 145, 054103.
     DOI: 10.1063/1.4959605
   
   in the mass-spec context:
   * V. Asgeirsson, C. Bauer and S. Grimme, Chem. Sci., 2017, 8, 4879.
     DOI: 10.1039/c7sc00601b
   
   for metadynamics refer to:
   * S. Grimme, J. Chem. Theory Comput., 2019, 155, 2847-2862
     DOI: 10.1021/acs.jctc.9b00143
   
   with help from (in alphabetical order)
   C. Bannwarth, F. Bohle, G. Brandenburg, E. Caldeweyher, M. Checinski,
   S. Dohm, S. Ehlert, S. Ehrlich, F. März, H. Neugebauer, J. Pisarek,
   P. Pracht, P. Shushkov, and S. Spicher.
   
 * started run on 2020/04/08 at 13:05:40.884     

           -------------------------------------------------
          |                Calculation Setup                |
           -------------------------------------------------

          program call               : /home/tom/.local/bin/xtb SN2_PES_scan_5-3_xtb.xyz --chrg -1 --opt --input xcontrol_SN2_PES_scan_5-3
          coordinate file            : SN2_PES_scan_5-3_xtb.xyz
          omp threads                :                     2
          number of atoms            :                     6
          number of electrons        :                    22
          charge                     :                    -1
          spin                       :                   0.0
          first test random number   :      0.25809670516207

constraining bond 1 3 to    1.5000000 Å, actual value:    1.9988293 Å
constraining bond 2 3 to    3.1120000 Å, actual value:    2.6675845 Å

molecular fragmentation (1/2 indicates fragments):
122222
# atoms in fragment 1/2:     1     5
 fragment masses (1/2) :       19.00       50.49
CMA distance (Bohr)    :   7.328
constraining FC (au)   : 10.0000
########################################################################
[WARNING] Please study the warnings concerning your input carefully
-2- prog_main: XTBPATH is not set, using XTBHOME instead
-1- prog_main: XTBHOME is not set, using HOME instead
########################################################################
           ------------------------------------------------- 
          |                 G F N 2 - x T B                 |
          | Geometry, Frequencies, Noncovalent interactions |
          |            JCTC 2019 parametrisation            |
           ------------------------------------------------- 
             k(s)              :                1.8500
             k(p)              :                2.2300
             k(d)              :                2.2300
             k(f)              :                2.0000
             kEN (H0ij)        :               -2.0000
             D4 a1             :                0.5200
             D4 a2             :                5.0000
             D4 s6             :                1.0000
             D4 s8             :                2.7000
             D4 s9             :                5.0000
             alphaj            :                2.0000

  Z AO/shell   Hii/eV     exponent
  1     Wed Apr 25 08:07:45 CEST 2018   EN: 2.200 GM2: 0.406  GM3: 0.0800  RAES: 1.40
     1s    -10.707211    1.230000
  6     Wed Apr 25 08:07:45 CEST 2018   EN: 2.550 GM2: 0.538  GM3: 0.1500  RAES: 3.00
     2s    -13.970922    2.096432
     2p    -10.063292    1.800000
  9     Mon Apr 23 13:58:50 CEST 2018   EN: 3.980 GM2: 0.532  GM3: 0.1426  RAES: 2.40
     2s    -23.458179    2.416361
     2p    -15.746583    2.308399
 17     Mon Apr 23 14:09:22 CEST 2018   EN: 3.160 GM2: 0.249  GM3: 0.1495  RAES: 2.50
     3s    -29.278781    2.485265
     3p    -12.673758    2.199650
     3d     -0.240338    2.476089

           ------------------------------------------------- 
          |        Self-Consistent Charge Iterations        |
           ------------------------------------------------- 

          ...................................................
          :                      SETUP                      :
          :.................................................:
          :  # basis functions                  21          :
          :  # atomic orbitals                  20          :
          :  # shells                           10          :
          :  # electrons                        22          :
          :  max. iterations                   250          :
          :  Hamiltonian                  GFN2-xTB          :
          :  restarted?                      false          :
          :  GBSA solvation                  false          :
          :  PC potential                    false          :
          :  electronic temp.          300.0000000     K    :
          :  accuracy                    1.0000000          :
          :  -> integral cutoff          0.2500000E+02      :
          :  -> integral neglect         0.1000000E-07      :
          :  -> SCF convergence          0.1000000E-05 Eh   :
          :  -> wf. convergence          0.1000000E-03 e    :
          :  Broyden damping             0.4000000          :
          ...................................................

 iter      E             dE          RMSdq      gap      omega  full diag
   1    -13.0936462 -0.130936E+02  0.697E+00    4.00       0.0  T
   2    -13.1138472 -0.202010E-01  0.360E+00    1.90       1.0  T
   3    -13.1783948 -0.645476E-01  0.321E+00    2.41       1.0  T
   4    -13.1970364 -0.186416E-01  0.113E+00    1.83       1.0  T
   5    -13.1983086 -0.127224E-02  0.936E-01    2.46       1.0  T
   6    -13.2004272 -0.211851E-02  0.160E-01    2.13       1.0  T
   7    -13.2004621 -0.349681E-04  0.762E-02    2.08       1.0  T
   8    -13.2004698 -0.769962E-05  0.636E-02    2.07       1.0  T
   9    -13.2004804 -0.105535E-04  0.342E-02    2.10       1.2  T
  10    -13.2004840 -0.358682E-05  0.179E-02    2.09       2.3  T
  11    -13.2004848 -0.791902E-06  0.268E-03    2.09      15.2  T
  12    -13.2004848 -0.190665E-08  0.223E-03    2.09      18.3  T
  13    -13.2004848 -0.126559E-07  0.132E-04    2.09     309.5  T
  14    -13.2004848 -0.650218E-10  0.686E-05    2.09     595.4  T

   *** convergence criteria satisfied after 14 iterations ***

         #    Occupation            Energy/Eh            Energy/eV
      -------------------------------------------------------------
         1        2.0000           -0.8259946             -22.4765
       ...           ...                  ...                  ...
         5        2.0000           -0.3472217              -9.4484
         6        2.0000           -0.2807272              -7.6390
         7        2.0000           -0.2484110              -6.7596
         8        2.0000           -0.2484099              -6.7596
         9        2.0000           -0.2173821              -5.9153
        10        2.0000           -0.2129932              -5.7958
        11        2.0000           -0.2129930              -5.7958 (HOMO)
        12                         -0.1363008              -3.7089 (LUMO)
        13                          0.2677594               7.2861
        14                          0.2873878               7.8202
        15                          0.2873885               7.8202
        16                          0.2885733               7.8525
       ...                                ...                  ...
        20                          0.4242899              11.5455
      -------------------------------------------------------------
                  HL-Gap            0.0766922 Eh            2.0869 eV
             Fermi-level           -0.1746469 Eh           -4.7524 eV

 SCC (total)                   0 d,  0 h,  0 min,  0.002 sec
 SCC setup                      ...        0 min,  0.000 sec (  2.493%)
 Dispersion                     ...        0 min,  0.000 sec (  0.772%)
 integral evaluation            ...        0 min,  0.000 sec ( 15.083%)
 zeroth order Hamiltonian       ...        0 min,  0.000 sec (  0.694%)
 iterations                     ...        0 min,  0.001 sec ( 60.479%)
 molecular gradient             ...        0 min,  0.000 sec ( 16.979%)
 printout                       ...        0 min,  0.000 sec (  2.581%)

         :::::::::::::::::::::::::::::::::::::::::::::::::::::
         ::                     SUMMARY                     ::
         :::::::::::::::::::::::::::::::::::::::::::::::::::::
         :: total energy               2.798028386536 Eh    ::
         :: gradient norm             43.722098099837 Eh/a0 ::
         :: HOMO-LUMO gap              2.086902325873 eV    ::
         ::.................................................::
         :: SCC energy               -13.200484775927 Eh    ::
         :: -> isotropic ES            0.168049594454 Eh    ::
         :: -> anisotropic ES         -0.000162674845 Eh    ::
         :: -> anisotropic XC          0.005081571994 Eh    ::
         :: -> dispersion             -0.001944754012 Eh    ::
         :: repulsion energy           0.059573068477 Eh    ::
         :: add. restraining          15.938940472075 Eh    ::
         :::::::::::::::::::::::::::::::::::::::::::::::::::::

      ----------------------------------------------------------- 
     |                   =====================                   |
     |                        A N C O P T                        |
     |                   =====================                   |
     |               Approximate Normal Coordinate               |
     |                Rational Function Optimizer                |
      ----------------------------------------------------------- 

          ...................................................
          :                      SETUP                      :
          :.................................................:
          :   optimization level            normal          :
          :   max. optcycles                   200          :
          :   ANC micro-cycles                  20          :
          :   degrees of freedom                12          :
          :.................................................:
          :   RF solver                   davidson          :
          :   write xtbopt.log                true          :
          :   linear?                        false          :
          :   energy convergence         0.5000000E-05 Eh   :
          :   grad. convergence          0.1000000E-02 Eh/α :
          :   maximium RF displ.         1.0000000          :
          :   Hlow (freq-cutoff)         0.1000000E-01      :
          :   Hmax (freq-cutoff)         5.0000000          :
          :   S6 in model hess.         20.0000000          :
          ...................................................

generating ANC from model Hessian ...
Using Lindh-Hessian (1995)
 Shifting diagonal of input Hessian by    1.21205254457199     
 Lowest  eigenvalues of input Hessian
    0.010000    0.010039   -0.000000   -0.000000   -0.000000    0.000000
    0.000000    0.000000    1.236267    1.360500    1.360586    1.653751
    1.918294    1.918541    6.618840    6.619001   21.254865   61.368048
 Highest eigenvalues
    1.918294    1.918541    6.618840    6.619001   21.254865   61.368048
 

........................................................................
.............................. CYCLE    1 ..............................
........................................................................
   1    -13.2004848 -0.132005E+02  0.273E-06    2.09       0.0  T
   2    -13.2004848 -0.248690E-13  0.198E-06    2.09   20599.7  T
   3    -13.2004848 -0.532907E-14  0.545E-07    2.09   74921.5  T
     SCC iter.                  ...        0 min,  0.001 sec
     gradient                   ...        0 min,  0.000 sec
 * total energy  :     2.7980284 Eh     change        0.2815455E-09 Eh
   gradient norm :    43.7220977 Eh/α   predicted     0.0000000E+00 (-100.00%)
   displ. norm   :     0.9444540 α      lambda       -0.4129351E+02
   maximum displ.:     0.9439457 α      in ANC's #9, #12, #6, ...

........................................................................
.............................. CYCLE    2 ..............................
........................................................................
   1    -13.1900030 -0.131900E+02  0.276E+00   10.96       0.0  T
   2    -13.2063165 -0.163135E-01  0.146E+00    9.74       1.0  T
   3    -13.2081565 -0.183999E-02  0.799E-01    9.27       1.0  T
   4    -13.2082850 -0.128449E-03  0.327E-01    8.89       1.0  T
   5    -13.2083204 -0.354241E-04  0.297E-02    8.84       1.4  T
   6    -13.2083212 -0.860999E-06  0.176E-02    8.84       2.3  T
   7    -13.2083215 -0.298369E-06  0.842E-03    8.84       4.9  T
   8    -13.2083217 -0.113212E-06  0.904E-04    8.84      45.2  T
   9    -13.2083217 -0.231584E-08  0.334E-04    8.84     122.4  T
     SCC iter.                  ...        0 min,  0.002 sec
     gradient                   ...        0 min,  0.000 sec
 * total energy  :   -11.7559824 Eh     change       -0.1455401E+02 Eh
   gradient norm :    13.0521245 Eh/α   predicted    -0.3906353E+02 ( 168.40%)
   displ. norm   :     0.2406478 α      lambda       -0.2811023E+01
   maximum displ.:     0.2079872 α      in ANC's #9, #12, #3, ...

........................................................................
.............................. CYCLE    3 ..............................
........................................................................
   1    -13.2210813 -0.132211E+02  0.425E-01    6.78       0.0  T
   2    -13.2213696 -0.288261E-03  0.232E-01    6.93       1.0  T
   3    -13.2214193 -0.497726E-04  0.118E-01    7.05       1.0  T
   4    -13.2214204 -0.103817E-05  0.313E-02    7.07       1.3  T
   5    -13.2214211 -0.692519E-06  0.884E-03    7.07       4.6  T
   6    -13.2214212 -0.910874E-07  0.321E-03    7.07      12.7  T
   7    -13.2214212 -0.164951E-07  0.147E-03    7.07      27.7  T
     SCC iter.                  ...        0 min,  0.001 sec
     gradient                   ...        0 min,  0.000 sec
 * total energy  :   -13.1179173 Eh     change       -0.1361935E+01 Eh
   gradient norm :     1.6217552 Eh/α   predicted    -0.1486907E+01 (   9.18%)
   displ. norm   :     0.2620948 α      lambda       -0.4196219E+00
   maximum displ.:     0.2564184 α      in ANC's #12, #9, #6, ...

........................................................................
.............................. CYCLE    4 ..............................
........................................................................
   1    -13.2127992 -0.132128E+02  0.518E-01    3.81       0.0  T
   2    -13.2130083 -0.209050E-03  0.301E-01    3.96       1.0  T
   3    -13.2130498 -0.415306E-04  0.110E-01    4.10       1.0  T
   4    -13.2130539 -0.406212E-05  0.359E-02    4.10       1.1  T
   5    -13.2130555 -0.162614E-05  0.234E-02    4.10       1.7  T
   6    -13.2130562 -0.689573E-06  0.755E-03    4.10       5.4  T
   7    -13.2130563 -0.889760E-07  0.302E-03    4.11      13.5  T
   8    -13.2130563 -0.134207E-07  0.255E-04    4.11     160.0  T
     SCC iter.                  ...        0 min,  0.003 sec
     gradient                   ...        0 min,  0.000 sec
 * total energy  :   -12.8226202 Eh     change        0.2952971E+00 Eh
   gradient norm :     4.1618196 Eh/α   predicted    -0.2242235E+00 (-175.93%)
   displ. norm   :     0.1766469 α      lambda       -0.6941491E+00
   maximum displ.:     0.1729064 α      in ANC's #12, #9, #3, ...

........................................................................
.............................. CYCLE    5 ..............................
........................................................................
   1    -13.2237405 -0.132237E+02  0.362E-01    6.27       0.0  T
   2    -13.2238084 -0.679211E-04  0.212E-01    6.17       1.0  T
   3    -13.2238250 -0.165356E-04  0.588E-02    6.07       1.0  T
   4    -13.2238267 -0.176258E-05  0.175E-02    6.07       2.3  T
   5    -13.2238269 -0.198056E-06  0.125E-02    6.07       3.3  T
   6    -13.2238271 -0.215224E-06  0.421E-03    6.07       9.7  T
   7    -13.2238272 -0.246618E-07  0.144E-03    6.07      28.4  T
     SCC iter.                  ...        0 min,  0.001 sec
     gradient                   ...        0 min,  0.000 sec
 * total energy  :   -13.1815974 Eh     change       -0.3589771E+00 Eh
   gradient norm :     0.1392210 Eh/α   predicted    -0.3579047E+00 (  -0.30%)
   displ. norm   :     0.0350729 α      lambda       -0.2491958E-02
   maximum displ.:     0.0250356 α      in ANC's #3, #6, #12, ...

........................................................................
.............................. CYCLE    6 ..............................
........................................................................
   1    -13.2287408 -0.132287E+02  0.365E-02    6.15       0.0  T
   2    -13.2287414 -0.560391E-06  0.218E-02    6.16       1.9  T
   3    -13.2287414 -0.793769E-07  0.804E-03    6.16       5.1  T
   4    -13.2287414 -0.113892E-07  0.200E-03    6.16      20.5  T
   5    -13.2287414 -0.555364E-08  0.391E-04    6.16     104.4  T
     SCC iter.                  ...        0 min,  0.000 sec
     gradient                   ...        0 min,  0.000 sec
 * total energy  :   -13.1835022 Eh     change       -0.1904846E-02 Eh
   gradient norm :     0.0392846 Eh/α   predicted    -0.1247513E-02 ( -34.51%)
   displ. norm   :     0.0960303 α      lambda       -0.3148120E-02
   maximum displ.:     0.0603366 α      in ANC's #3, #6, #2, ...

........................................................................
.............................. CYCLE    7 ..............................
........................................................................
   1    -13.2391194 -0.132391E+02  0.941E-02    6.20       0.0  T
   2    -13.2391232 -0.380426E-05  0.583E-02    6.22       1.0  T
   3    -13.2391239 -0.701336E-06  0.185E-02    6.23       2.2  T
   4    -13.2391240 -0.618668E-07  0.456E-03    6.22       9.0  T
   5    -13.2391240 -0.284354E-07  0.181E-03    6.22      22.6  T
     SCC iter.                  ...        0 min,  0.000 sec
     gradient                   ...        0 min,  0.000 sec
 * total energy  :   -13.1853716 Eh     change       -0.1869350E-02 Eh
   gradient norm :     0.0917281 Eh/α   predicted    -0.1588583E-02 ( -15.02%)
   displ. norm   :     0.4432466 α      lambda       -0.4021642E-02
   maximum displ.:     0.4175340 α      in ANC's #2, #3, #1, ...

........................................................................
.............................. CYCLE    8 ..............................
........................................................................
   1    -13.2486741 -0.132487E+02  0.468E-01    6.10       0.0  T
   2    -13.2487013 -0.272145E-04  0.290E-01    6.13       1.0  T
   3    -13.2487096 -0.835978E-05  0.401E-02    6.17       1.0  T
   4    -13.2487105 -0.828514E-06  0.822E-03    6.16       5.0  T
   5    -13.2487105 -0.518338E-07  0.562E-03    6.16       7.3  T
   6    -13.2487106 -0.435089E-07  0.270E-03    6.16      15.1  T
     SCC iter.                  ...        0 min,  0.000 sec
     gradient                   ...        0 min,  0.000 sec
 * total energy  :   -13.1757582 Eh     change        0.9613387E-02 Eh
   gradient norm :     0.1837457 Eh/α   predicted    -0.2405861E-02 (-125.03%)
   displ. norm   :     0.3330062 α      lambda       -0.1951513E-01
   maximum displ.:     0.3229606 α      in ANC's #2, #6, #3, ...

........................................................................
.............................. CYCLE    9 ..............................
........................................................................
   1    -13.2444279 -0.132444E+02  0.360E-01    6.23       0.0  T
   2    -13.2444470 -0.191417E-04  0.221E-01    6.21       1.0  T
   3    -13.2444520 -0.501480E-05  0.339E-02    6.19       1.2  T
   4    -13.2444526 -0.524361E-06  0.934E-03    6.19       4.4  T
   5    -13.2444526 -0.840682E-07  0.398E-03    6.19      10.3  T
   6    -13.2444527 -0.192839E-07  0.202E-03    6.19      20.2  T
     SCC iter.                  ...        0 min,  0.008 sec
     gradient                   ...        0 min,  0.000 sec
 * total energy  :   -13.1858857 Eh     change       -0.1012750E-01 Eh
   gradient norm :     0.0601952 Eh/α   predicted    -0.1083966E-01 (   7.03%)
   displ. norm   :     0.3929346 α      lambda       -0.2239629E-02
   maximum displ.:     0.3921192 α      in ANC's #1, #2, #6, ...

........................................................................
.............................. CYCLE   10 ..............................
........................................................................
   1    -13.2392466 -0.132392E+02  0.551E-01    6.10       0.0  T
   2    -13.2392663 -0.197140E-04  0.344E-01    6.10       1.0  T
   3    -13.2392722 -0.584405E-05  0.317E-02    6.12       1.3  T
   4    -13.2392729 -0.736145E-06  0.115E-02    6.11       3.6  T
   5    -13.2392730 -0.119577E-06  0.555E-03    6.11       7.4  T
   6    -13.2392731 -0.432321E-07  0.235E-03    6.11      17.4  T
     SCC iter.                  ...        0 min,  0.000 sec
     gradient                   ...        0 min,  0.002 sec
 * total energy  :   -13.1785829 Eh     change        0.7302798E-02 Eh
   gradient norm :     0.1758251 Eh/α   predicted    -0.1292720E-02 (-117.70%)
   displ. norm   :     0.3148095 α      lambda       -0.1423493E-01
   maximum displ.:     0.3143375 α      in ANC's #1, #3, #2, ...

........................................................................
.............................. CYCLE   11 ..............................
........................................................................
   1    -13.2440302 -0.132440E+02  0.450E-01    6.19       0.0  T
   2    -13.2440436 -0.133390E-04  0.280E-01    6.18       1.0  T
   3    -13.2440476 -0.408001E-05  0.261E-02    6.18       1.6  T
   4    -13.2440481 -0.478272E-06  0.581E-03    6.18       7.0  T
   5    -13.2440482 -0.286197E-07  0.386E-03    6.18      10.6  T
     SCC iter.                  ...        0 min,  0.000 sec
     gradient                   ...        0 min,  0.000 sec
 * total energy  :   -13.1861183 Eh     change       -0.7535455E-02 Eh
   gradient norm :     0.0258251 Eh/α   predicted    -0.7822830E-02 (   3.81%)
   displ. norm   :     0.0356420 α      lambda       -0.1943071E-03
   maximum displ.:     0.0332307 α      in ANC's #1, #2, #3, ...

........................................................................
.............................. CYCLE   12 ..............................
........................................................................
   1    -13.2444297 -0.132444E+02  0.498E-02    6.17       0.0  T
   2    -13.2444299 -0.224878E-06  0.311E-02    6.17       1.3  T
   3    -13.2444299 -0.596418E-07  0.350E-03    6.17      11.7  T
   4    -13.2444300 -0.969021E-08  0.180E-03    6.17      22.7  T
     SCC iter.                  ...        0 min,  0.000 sec
     gradient                   ...        0 min,  0.000 sec
 * total energy  :   -13.1862143 Eh     change       -0.9596941E-04 Eh
   gradient norm :     0.0121937 Eh/α   predicted    -0.9727907E-04 (   1.36%)
   displ. norm   :     0.0081707 α      lambda       -0.3705844E-04
   maximum displ.:     0.0061073 α      in ANC's #2, #3, #6, ...

........................................................................
.............................. CYCLE   13 ..............................
........................................................................
   1    -13.2443078 -0.132443E+02  0.993E-03    6.17       0.0  T
   2    -13.2443078 -0.740955E-07  0.580E-03    6.17       7.0  T
   3    -13.2443078 -0.393194E-08  0.251E-03    6.17      16.3  T
   4    -13.2443078 -0.152091E-08  0.575E-04    6.17      71.0  T
     SCC iter.                  ...        0 min,  0.000 sec
     gradient                   ...        0 min,  0.000 sec
 * total energy  :   -13.1862462 Eh     change       -0.3191841E-04 Eh
   gradient norm :     0.0059943 Eh/α   predicted    -0.1853017E-04 ( -41.95%)
   displ. norm   :     0.0274278 α      lambda       -0.1286678E-03
   maximum displ.:     0.0237279 α      in ANC's #3, #6, #2, ...

........................................................................
.............................. CYCLE   14 ..............................
........................................................................
   1    -13.2438024 -0.132438E+02  0.345E-02    6.16       0.0  T
   2    -13.2438039 -0.149401E-05  0.190E-02    6.16       2.1  T
   3    -13.2438039 -0.512079E-07  0.978E-03    6.16       4.2  T
   4    -13.2438039 -0.163901E-07  0.188E-03    6.16      21.7  T
   5    -13.2438039 -0.340984E-08  0.104E-03    6.16      39.1  T
     SCC iter.                  ...        0 min,  0.000 sec
     gradient                   ...        0 min,  0.001 sec
 * total energy  :   -13.1863278 Eh     change       -0.8153852E-04 Eh
   gradient norm :     0.0135209 Eh/α   predicted    -0.6438171E-04 ( -21.04%)
   displ. norm   :     0.0144439 α      lambda       -0.3276527E-04
   maximum displ.:     0.0120852 α      in ANC's #3, #6, #2, ...

........................................................................
.............................. CYCLE   15 ..............................
........................................................................
   1    -13.2434654 -0.132435E+02  0.179E-02    6.16       0.0  T
   2    -13.2434657 -0.381856E-06  0.978E-03    6.15       4.2  T
   3    -13.2434658 -0.129621E-07  0.501E-03    6.16       8.2  T
   4    -13.2434658 -0.575789E-08  0.111E-03    6.16      36.8  T
   5    -13.2434658 -0.138507E-08  0.636E-04    6.16      64.2  T
     SCC iter.                  ...        0 min,  0.000 sec
     gradient                   ...        0 min,  0.000 sec
 * total energy  :   -13.1863489 Eh     change       -0.2115043E-04 Eh
   gradient norm :     0.0084392 Eh/α   predicted    -0.1638621E-04 ( -22.53%)
   displ. norm   :     0.0071663 α      lambda       -0.7653132E-05
   maximum displ.:     0.0058553 α      in ANC's #2, #3, #6, ...

........................................................................
.............................. CYCLE   16 ..............................
........................................................................
   1    -13.2433267 -0.132433E+02  0.806E-03    6.16       0.0  T
   2    -13.2433267 -0.383841E-07  0.471E-03    6.16       8.7  T
   3    -13.2433267 -0.199218E-08  0.186E-03    6.16      22.0  T
   4    -13.2433267 -0.117601E-08  0.479E-04    6.16      85.2  T
     SCC iter.                  ...        0 min,  0.000 sec
     gradient                   ...        0 min,  0.000 sec
 * total energy  :   -13.1863533 Eh     change       -0.4412342E-05 Eh
   gradient norm :     0.0022008 Eh/α   predicted    -0.3825748E-05 ( -13.29%)
   displ. norm   :     0.0017058 α      lambda       -0.5249401E-06
   maximum displ.:     0.0016327 α      in ANC's #2, #3, #1, ...

........................................................................
.............................. CYCLE   17 ..............................
........................................................................
   1    -13.2433086 -0.132433E+02  0.169E-03    6.16       0.0  T
   2    -13.2433086 -0.490092E-09  0.107E-03    6.16      38.3  T
   3    -13.2433086 -0.162750E-09  0.196E-04    6.16     207.9  T
   4    -13.2433086 -0.277680E-10  0.114E-04    6.16     359.0  T
     SCC iter.                  ...        0 min,  0.000 sec
     gradient                   ...        0 min,  0.000 sec
 * total energy  :   -13.1863536 Eh     change       -0.3099773E-06 Eh
   gradient norm :     0.0006895 Eh/α   predicted    -0.2628974E-06 ( -15.19%)
   displ. norm   :     0.0007352 α      lambda       -0.5237467E-07
   maximum displ.:     0.0004702 α      in ANC's #2, #3, #1, ...

   *** GEOMETRY OPTIMIZATION CONVERGED AFTER 17 ITERATIONS ***

------------------------------------------------------------------------
 total energy gain   :       -15.9843820 Eh   -10030.3512 kcal/mol
 total RMSD          :         0.3172093 a0        0.1679 Å
 total power (kW/mol):     -2468.6464270 (step)********** (real)
------------------------------------------------------------------------

 ANCopt (total)                0 d,  0 h,  0 min,  0.041 sec
 optimizer setup                ...        0 min,  0.000 sec (  0.140%)
 model hessian                  ...        0 min,  0.000 sec (  0.227%)
 ANC generation                 ...        0 min,  0.000 sec (  0.160%)
 coordinate transformation      ...        0 min,  0.000 sec (  0.199%)
 single point calculation       ...        0 min,  0.039 sec ( 94.856%)
 optimization log               ...        0 min,  0.000 sec (  0.994%)
 hessian update                 ...        0 min,  0.000 sec (  0.162%)
 rational function              ...        0 min,  0.000 sec (  1.120%)

================
 final structure:
================
6
 xtb: 6.2.3 (830e466)
F        -2.60816590809228   -0.15192822229557    0.04762273388214
Cl        1.99389526405784    0.12080413764224   -0.02994910394595
C        -1.11210199908117   -0.06528821546677    0.01978989086087
H        -0.79014489532458   -0.61311518087548   -0.85471615394145
H        -0.76095703996140   -0.51592599729301    0.93738295377739
H        -0.86543542159839    0.98536347828859   -0.04142032063300
 
 Bond Distances (Angstroems)
 ---------------------------
F1-C3=1.4988         C3-F1=1.4988         C3-H4=1.0810         C3-H5=1.0809         C3-H6=1.0810         H4-C3=1.0810         
H5-C3=1.0809         H6-C3=1.0810         
 C  H  Rav=1.0809 sigma=0.0000  Rmin=1.0809  Rmax=1.0810     3
 F  C  Rav=1.4988 sigma=0.0000  Rmin=1.4988  Rmax=1.4988     1
 
 selected bond angles (degree)
 --------------------
H4-C3-F1=106.44                H5-C3-F1=106.52                H5-C3-H4=112.25                H6-C3-F1=106.56                
H6-C3-H4=112.26                H6-C3-H5=112.28                
 
 selected dihedral angles (degree)
 ---------------------------------

 
 CMA Distance (Angstroems)
 ---------------------------
R(CMA):  3.7025
           -------------------------------------------------
          |                Final Singlepoint                |
           -------------------------------------------------

          ...................................................
          :                      SETUP                      :
          :.................................................:
          :  # basis functions                  21          :
          :  # atomic orbitals                  20          :
          :  # shells                           10          :
          :  # electrons                        22          :
          :  max. iterations                   250          :
          :  Hamiltonian                  GFN2-xTB          :
          :  restarted?                      false          :
          :  GBSA solvation                  false          :
          :  PC potential                    false          :
          :  electronic temp.          300.0000000     K    :
          :  accuracy                    1.0000000          :
          :  -> integral cutoff          0.2500000E+02      :
          :  -> integral neglect         0.1000000E-07      :
          :  -> SCF convergence          0.1000000E-05 Eh   :
          :  -> wf. convergence          0.1000000E-03 e    :
          :  Broyden damping             0.4000000          :
          ...................................................

 iter      E             dE          RMSdq      gap      omega  full diag
   1    -13.2433086 -0.132433E+02  0.586E-05    6.16       0.0  T
   2    -13.2433086 -0.206057E-11  0.473E-05    6.16     862.2  T
   3    -13.2433086 -0.403055E-11  0.135E-05    6.16    3017.8  T

   *** convergence criteria satisfied after 3 iterations ***

         #    Occupation            Energy/Eh            Energy/eV
      -------------------------------------------------------------
         1        2.0000           -0.7824552             -21.2917
       ...           ...                  ...                  ...
         5        2.0000           -0.3853298             -10.4854
         6        2.0000           -0.3852968             -10.4845
         7        2.0000           -0.3231496              -8.7933
         8        2.0000           -0.3231448              -8.7932
         9        2.0000           -0.1862897              -5.0692
        10        2.0000           -0.1850297              -5.0349
        11        2.0000           -0.1850285              -5.0349 (HOMO)
        12                          0.0412727               1.1231 (LUMO)
        13                          0.2793882               7.6025
        14                          0.3427293               9.3261
        15                          0.3427517               9.3267
        16                          0.3449913               9.3877
       ...                                ...                  ...
        20                          0.3594582               9.7814
      -------------------------------------------------------------
                  HL-Gap            0.2263012 Eh            6.1580 eV
             Fermi-level           -0.0718779 Eh           -1.9559 eV

 SCC (total)                   0 d,  0 h,  0 min,  0.001 sec
 SCC setup                      ...        0 min,  0.000 sec (  4.868%)
 Dispersion                     ...        0 min,  0.000 sec (  0.711%)
 integral evaluation            ...        0 min,  0.000 sec ( 29.894%)
 zeroth order Hamiltonian       ...        0 min,  0.000 sec (  1.163%)
 iterations                     ...        0 min,  0.000 sec ( 22.765%)
 molecular gradient             ...        0 min,  0.000 sec ( 34.224%)
 printout                       ...        0 min,  0.000 sec (  4.351%)

         :::::::::::::::::::::::::::::::::::::::::::::::::::::
         ::                     SUMMARY                     ::
         :::::::::::::::::::::::::::::::::::::::::::::::::::::
         :: total energy             -13.186353639330 Eh    ::
         :: gradient norm              0.000689648203 Eh/a0 ::
         :: HOMO-LUMO gap              6.157969899048 eV    ::
         ::.................................................::
         :: SCC energy               -13.243308617444 Eh    ::
         :: -> isotropic ES            0.168479135031 Eh    ::
         :: -> anisotropic ES         -0.001110781957 Eh    ::
         :: -> anisotropic XC          0.000965832706 Eh    ::
         :: -> dispersion             -0.001781806504 Eh    ::
         :: repulsion energy           0.056906182746 Eh    ::
         :: add. restraining           0.000049012604 Eh    ::
         :::::::::::::::::::::::::::::::::::::::::::::::::::::

           -------------------------------------------------
          |                Property Printout                |
           -------------------------------------------------

    * Orbital Energies and Occupations

         #    Occupation            Energy/Eh            Energy/eV
      -------------------------------------------------------------
         1        2.0000           -0.7824552             -21.2917
         2        2.0000           -0.6551157             -17.8266
         3        2.0000           -0.4684237             -12.7465
         4        2.0000           -0.3882511             -10.5649
         5        2.0000           -0.3853298             -10.4854
         6        2.0000           -0.3852968             -10.4845
         7        2.0000           -0.3231496              -8.7933
         8        2.0000           -0.3231448              -8.7932
         9        2.0000           -0.1862897              -5.0692
        10        2.0000           -0.1850297              -5.0349
        11        2.0000           -0.1850285              -5.0349 (HOMO)
        12                          0.0412727               1.1231 (LUMO)
        13                          0.2793882               7.6025
        14                          0.3427293               9.3261
        15                          0.3427517               9.3267
        16                          0.3449913               9.3877
        17                          0.3454353               9.3998
        18                          0.3454365               9.3998
        19                          0.3591346               9.7725
        20                          0.3594582               9.7814
      -------------------------------------------------------------
                  HL-Gap            0.2263012 Eh            6.1580 eV
             Fermi-level           -0.0718779 Eh           -1.9559 eV

     #   Z        covCN         q      C6AA      α(0)
     1   9 F      0.769    -0.324    12.595     4.192
     2  17 Cl     0.000    -0.994   126.777    17.136
     3   6 C      3.545     0.060    20.564     6.637
     4   1 H      0.926     0.086     1.923     2.168
     5   1 H      0.926     0.086     1.919     2.166
     6   1 H      0.926     0.086     1.918     2.166

 Mol. C6AA /au·bohr⁶  :        547.294482
 Mol. C8AA /au·bohr⁸  :      15825.725756
 Mol. α(0) /au        :         34.465735


Wiberg/Mayer (AO) data.
largest (>0.10) Wiberg bond orders for each atom
          total WBO             WBO to atom ...
     1  F   0.920        C    3 0.892
     2  Cl  0.011
     3  C   3.851        H    4 0.984    H    5 0.984    H    6 0.984    F    1 0.892
     4  H   0.993        C    3 0.984
     5  H   0.993        C    3 0.984
     6  H   0.993        C    3 0.984

molecular dipole:
                 x           y           z       tot (Debye)
 q only:       -2.671      -0.164       0.037
   full:       -2.482      -0.154       0.033       6.322
molecular quadrupole (traceless):
                xx          xy          yy          xz          yz          zz
 q only:      -21.564      -1.936      10.729       0.524       0.030      10.835
  q+dip:      -23.747      -2.125      11.816       0.586       0.033      11.931
   full:      -23.029      -2.064      11.459       0.565       0.032      11.570

           -------------------------------------------------
          |                Geometry Summary                 |
           -------------------------------------------------

      molecular mass/u    :       69.4858989
   center of mass at/Å    :        0.0769302       0.0067278       0.0017592
  moments of inertia/u·Å² :        0.3248042E+01   0.2893044E+03   0.2893048E+03
rotational constants/cm⁻¹ :        0.5190090E+01   0.5826954E-01   0.5826945E-01

 * 3 selected distances

     #   Z        #   Z                                     value/Å
     3   6 C      4   1 H                                 1.0809864 (max)
     3   6 C      5   1 H                                 1.0809044 (min)
     3   6 C      6   1 H                                 1.0809533

 * 1 distinct bonds (by element types)

   Z      Z             #   av. dist./Å        max./Å        min./Å
   1 H    6 C           3     1.0809480     1.0809864     1.0809044


optimized geometry written to: xtbopt.xyz


           -------------------------------------------------
          | TOTAL ENERGY              -13.186353639330 Eh   |
          | GRADIENT NORM               0.000689648203 Eh/α |
          | HOMO-LUMO GAP               6.157969899048 eV   |
           -------------------------------------------------

------------------------------------------------------------------------
 * finished run on 2020/04/08 at 13:05:40.949     
------------------------------------------------------------------------
 total:
 * wall-time:     0 d,  0 h,  0 min,  0.064 sec
 *  cpu-time:     0 d,  0 h,  0 min,  0.090 sec
 * ratio c/w:     1.396 speedup
 SCF:
 * wall-time:     0 d,  0 h,  0 min,  0.003 sec
 *  cpu-time:     0 d,  0 h,  0 min,  0.004 sec
 * ratio c/w:     1.658 speedup
 ANC optimizer:
 * wall-time:     0 d,  0 h,  0 min,  0.042 sec
 *  cpu-time:     0 d,  0 h,  0 min,  0.063 sec
 * ratio c/w:     1.507 speedup

