      -----------------------------------------------------------      
     |                   =====================                   |     
     |                           x T B                           |     
     |                   =====================                   |     
     |                         S. Grimme                         |     
     |          Mulliken Center for Theoretical Chemistry        |     
     |                    University of Bonn                     |     
      -----------------------------------------------------------      

   * xtb version 6.2.3 (830e466) compiled by 'ehlert@majestix' on 2020-03-16

   xtb is free software: you can redistribute it and/or modify it under
   the terms of the GNU Lesser General Public License as published by
   the Free Software Foundation, either version 3 of the License, or
   (at your option) any later version.
   
   xtb is distributed in the hope that it will be useful,
   but WITHOUT ANY WARRANTY; without even the implied warranty of
   MERCHANTABILITY or FITNESS FOR A PARTICULAR PURPOSE.  See the
   GNU Lesser General Public License for more details.
   
   Cite this work as:
   * S. Grimme, C. Bannwarth, P. Shushkov, J. Chem. Theory Comput., 2017,
     13, 1989-2009. DOI: 10.1021/acs.jctc.7b00118
   * C. Bannwarth, S. Ehlert and S. Grimme., J. Chem. Theory Comput., 2019,
     15, 1652-1671. DOI: 10.1021/acs.jctc.8b01176
   * P. Pracht, E. Caldeweyher, S. Ehlert, S. Grimme, ChemRxiv, 2019, preprint.
     DOI: 10.26434/chemrxiv.8326202.v1
   
   for DFT-D4:
   * E. Caldeweyher, C. Bannwarth and S. Grimme, J. Chem. Phys., 2017,
     147, 034112. DOI: 10.1063/1.4993215
   * E. Caldeweyher, S. Ehlert, A. Hansen, H. Neugebauer, S. Spicher,
     C. Bannwarth and S. Grimme, J. Chem. Phys., 2019, 150, 154122.
     DOI: 10.1063/1.5090222
   
   for sTDA-xTB:
   * S. Grimme and C. Bannwarth, J. Chem. Phys., 2016, 145, 054103.
     DOI: 10.1063/1.4959605
   
   in the mass-spec context:
   * V. Asgeirsson, C. Bauer and S. Grimme, Chem. Sci., 2017, 8, 4879.
     DOI: 10.1039/c7sc00601b
   
   for metadynamics refer to:
   * S. Grimme, J. Chem. Theory Comput., 2019, 155, 2847-2862
     DOI: 10.1021/acs.jctc.9b00143
   
   with help from (in alphabetical order)
   C. Bannwarth, F. Bohle, G. Brandenburg, E. Caldeweyher, M. Checinski,
   S. Dohm, S. Ehlert, S. Ehrlich, F. März, H. Neugebauer, J. Pisarek,
   P. Pracht, P. Shushkov, and S. Spicher.
   
 * started run on 2020/04/08 at 13:05:38.819     

           -------------------------------------------------
          |                Calculation Setup                |
           -------------------------------------------------

          program call               : /home/tom/.local/bin/xtb SN2_PES_scan_3-3_xtb.xyz --chrg -1 --opt --input xcontrol_SN2_PES_scan_3-3
          coordinate file            : SN2_PES_scan_3-3_xtb.xyz
          omp threads                :                     1
          number of atoms            :                     6
          number of electrons        :                    22
          charge                     :                    -1
          spin                       :                   0.0
          first test random number   :      0.51154571468075

constraining bond 1 3 to    2.5000000 Å, actual value:    2.9997596 Å
constraining bond 2 3 to    3.1120000 Å, actual value:    2.6671991 Å

molecular fragmentation (1/2 indicates fragments):
122222
# atoms in fragment 1/2:     1     5
 fragment masses (1/2) :       19.00       50.49
CMA distance (Bohr)    :   9.199
constraining FC (au)   : 10.0000
########################################################################
[WARNING] Please study the warnings concerning your input carefully
-2- prog_main: XTBPATH is not set, using XTBHOME instead
-1- prog_main: XTBHOME is not set, using HOME instead
########################################################################
           ------------------------------------------------- 
          |                 G F N 2 - x T B                 |
          | Geometry, Frequencies, Noncovalent interactions |
          |            JCTC 2019 parametrisation            |
           ------------------------------------------------- 
             k(s)              :                1.8500
             k(p)              :                2.2300
             k(d)              :                2.2300
             k(f)              :                2.0000
             kEN (H0ij)        :               -2.0000
             D4 a1             :                0.5200
             D4 a2             :                5.0000
             D4 s6             :                1.0000
             D4 s8             :                2.7000
             D4 s9             :                5.0000
             alphaj            :                2.0000

  Z AO/shell   Hii/eV     exponent
  1     Wed Apr 25 08:07:45 CEST 2018   EN: 2.200 GM2: 0.406  GM3: 0.0800  RAES: 1.40
     1s    -10.707211    1.230000
  6     Wed Apr 25 08:07:45 CEST 2018   EN: 2.550 GM2: 0.538  GM3: 0.1500  RAES: 3.00
     2s    -13.970922    2.096432
     2p    -10.063292    1.800000
  9     Mon Apr 23 13:58:50 CEST 2018   EN: 3.980 GM2: 0.532  GM3: 0.1426  RAES: 2.40
     2s    -23.458179    2.416361
     2p    -15.746583    2.308399
 17     Mon Apr 23 14:09:22 CEST 2018   EN: 3.160 GM2: 0.249  GM3: 0.1495  RAES: 2.50
     3s    -29.278781    2.485265
     3p    -12.673758    2.199650
     3d     -0.240338    2.476089

           ------------------------------------------------- 
          |        Self-Consistent Charge Iterations        |
           ------------------------------------------------- 

          ...................................................
          :                      SETUP                      :
          :.................................................:
          :  # basis functions                  21          :
          :  # atomic orbitals                  20          :
          :  # shells                           10          :
          :  # electrons                        22          :
          :  max. iterations                   250          :
          :  Hamiltonian                  GFN2-xTB          :
          :  restarted?                      false          :
          :  GBSA solvation                  false          :
          :  PC potential                    false          :
          :  electronic temp.          300.0000000     K    :
          :  accuracy                    1.0000000          :
          :  -> integral cutoff          0.2500000E+02      :
          :  -> integral neglect         0.1000000E-07      :
          :  -> SCF convergence          0.1000000E-05 Eh   :
          :  -> wf. convergence          0.1000000E-03 e    :
          :  Broyden damping             0.4000000          :
          ...................................................

 iter      E             dE          RMSdq      gap      omega  full diag
   1    -12.9274582 -0.129275E+02  0.918E+00    1.55       0.0  T
   2    -12.1267913  0.800667E+00  0.101E+01    0.00       1.0  T
   3    -13.0826061 -0.955815E+00  0.446E+00    1.56       1.0  T
   4    -13.0983970 -0.157909E-01  0.342E+00    1.44       1.0  T
   5    -12.2109506  0.887446E+00  0.993E+00    0.00       1.0  T
   6    -12.7074792 -0.496529E+00  0.701E+00    0.08       1.0  T
   7    -12.9236354 -0.216156E+00  0.530E+00    0.11       1.0  T
   8    -13.1355267 -0.211891E+00  0.204E+00    0.19       1.0  T
   9    -12.4471226  0.688404E+00  0.845E+00    0.05       1.0  T
  10    -12.4759143 -0.287917E-01  0.832E+00    0.04       1.0  T
  11    -12.2524030  0.223511E+00  0.936E+00    0.00       1.0  T
  12    -12.4270439 -0.174641E+00  0.857E+00    0.02       1.0  T
  13    -12.3046968  0.122347E+00  0.911E+00    0.00       1.0  T
  14    -12.3810448 -0.763480E-01  0.879E+00    0.00       1.0  T
  15    -12.2786685  0.102376E+00  0.924E+00    0.00       1.0  T
  16    -12.2945795 -0.159110E-01  0.919E+00    0.00       1.0  T
  17    -12.2939344  0.645048E-03  0.917E+00    0.00       1.0  T
  18    -13.0531931 -0.759259E+00  0.384E+00    0.14       1.0  T
  19    -12.2726243  0.780569E+00  0.911E+00    0.17       1.0  T
  20    -12.5433913 -0.270767E+00  0.756E+00    0.20       1.0  T
  21    -13.1504422 -0.607051E+00  0.531E+00    0.31       1.0  T
  22    -13.1390485  0.113936E-01  0.595E+00    0.39       1.0  T
  23    -13.1111826  0.278659E-01  0.451E+00    0.85       1.0  T
  24    -13.1015822  0.960045E-02  0.421E+00    1.09       1.0  T
  25    -13.1014566  0.125520E-03  0.369E+00    1.29       1.0  T
  26    -13.1008775  0.579143E-03  0.269E+00    1.50       1.0  T
  27    -13.1040342 -0.315669E-02  0.253E+00    1.31       1.0  T
  28    -13.1079779 -0.394371E-02  0.249E+00    1.03       1.0  T
  29    -13.1123607 -0.438277E-02  0.236E+00    0.82       1.0  T
  30    -13.1420190 -0.296584E-01  0.155E+00    0.34       1.0  T
  31    -13.1360295  0.598956E-02  0.185E+00    0.20       1.0  T
  32    -13.1252326  0.107969E-01  0.191E+00    0.56       1.0  T
  33    -13.1264576 -0.122503E-02  0.205E+00    0.19       1.0  T
  34    -13.1260692  0.388404E-03  0.196E+00    0.55       1.0  T
  35    -13.1430133 -0.169441E-01  0.129E+00    0.22       1.0  T
  36    -13.1384812  0.453205E-02  0.138E+00    0.42       1.0  T
  37    -13.1394712 -0.989962E-03  0.137E+00    0.22       1.0  T
  38    -13.1380738  0.139736E-02  0.142E+00    0.43       1.0  T
  39    -13.1449556 -0.688172E-02  0.105E+00    0.23       1.0  T
  40    -13.1438533  0.110226E-02  0.108E+00    0.38       1.0  T
  41    -13.1473181 -0.346477E-02  0.854E-01    0.24       1.0  T
  42    -13.1468141  0.503953E-03  0.863E-01    0.35       1.0  T
  43    -13.1494033 -0.258920E-02  0.650E-01    0.25       1.0  T
  44    -13.1492517  0.151634E-03  0.638E-01    0.33       1.0  T
  45    -13.1508493 -0.159757E-02  0.459E-01    0.26       1.0  T
  46    -13.1508409  0.832892E-05  0.438E-01    0.31       1.0  T
  47    -13.1517002 -0.859283E-03  0.295E-01    0.27       1.0  T
  48    -13.1517132 -0.130126E-04  0.275E-01    0.30       1.0  T
  49    -13.1521028 -0.389580E-03  0.169E-01    0.27       1.0  T
  50    -13.1521011  0.168332E-05  0.156E-01    0.29       1.0  T
  51    -13.1522478 -0.146728E-03  0.839E-02    0.28       1.0  T
  52    -13.1522390  0.883941E-05  0.817E-02    0.29       1.0  T
  53    -13.1522855 -0.465095E-04  0.354E-02    0.28       1.2  T
  54    -13.1522791  0.641848E-05  0.402E-02    0.28       1.0  T
  55    -13.1522921 -0.129587E-04  0.121E-02    0.28       3.4  T
  56    -13.1522877  0.436397E-05  0.241E-02    0.28       1.7  T
  57    -13.1522926 -0.487706E-05  0.311E-03    0.28      13.1  T
  58    -13.1522887  0.385481E-05  0.226E-02    0.28       1.8  T
  59    -13.1522926 -0.390164E-05  0.360E-04    0.28     113.5  T
  60    -13.1522926  0.304126E-08  0.727E-04    0.28      56.2  T
  61    -13.1522926 -0.366720E-08  0.170E-04    0.28     240.5  T

   *** convergence criteria satisfied after 61 iterations ***

         #    Occupation            Energy/Eh            Energy/eV
      -------------------------------------------------------------
         1        2.0000           -0.8661912             -23.5703
       ...           ...                  ...                  ...
         5        2.0000           -0.3556866              -9.6787
         6        2.0000           -0.2626978              -7.1484
         7        2.0000           -0.2446959              -6.6585
         8        2.0000           -0.2446957              -6.6585
         9        1.9984           -0.2020204              -5.4973
        10        1.9944           -0.2008326              -5.4649
        11        1.9944           -0.2008324              -5.4649 (HOMO)
        12        0.0128           -0.1904588              -5.1826 (LUMO)
        13                          0.2358529               6.4179
        14                          0.2358529               6.4179
        15                          0.2370078               6.4493
        16                          0.2370399               6.4502
       ...                                ...                  ...
        20                          0.4158175              11.3150
      -------------------------------------------------------------
                  HL-Gap            0.0103735 Eh            0.2823 eV
             Fermi-level           -0.1952510 Eh           -5.3130 eV

 SCC (total)                   0 d,  0 h,  0 min,  0.007 sec
 SCC setup                      ...        0 min,  0.000 sec (  0.864%)
 Dispersion                     ...        0 min,  0.000 sec (  0.179%)
 integral evaluation            ...        0 min,  0.001 sec (  9.582%)
 zeroth order Hamiltonian       ...        0 min,  0.000 sec (  0.209%)
 iterations                     ...        0 min,  0.006 sec ( 79.184%)
 molecular gradient             ...        0 min,  0.001 sec (  8.875%)
 printout                       ...        0 min,  0.000 sec (  0.794%)

         :::::::::::::::::::::::::::::::::::::::::::::::::::::
         ::                     SUMMARY                     ::
         :::::::::::::::::::::::::::::::::::::::::::::::::::::
         :: total energy               2.891750380404 Eh    ::
         :: gradient norm             43.722863796328 Eh/a0 ::
         :: HOMO-LUMO gap              0.282277936410 eV    ::
         ::.................................................::
         :: SCC energy               -13.152292613692 Eh    ::
         :: -> isotropic ES            0.172502522746 Eh    ::
         :: -> anisotropic ES          0.000664859817 Eh    ::
         :: -> anisotropic XC          0.005397525098 Eh    ::
         :: -> dispersion             -0.001818215087 Eh    ::
         :: repulsion energy           0.059694917592 Eh    ::
         :: add. restraining          15.984350138790 Eh    ::
         :::::::::::::::::::::::::::::::::::::::::::::::::::::

      ----------------------------------------------------------- 
     |                   =====================                   |
     |                        A N C O P T                        |
     |                   =====================                   |
     |               Approximate Normal Coordinate               |
     |                Rational Function Optimizer                |
      ----------------------------------------------------------- 

          ...................................................
          :                      SETUP                      :
          :.................................................:
          :   optimization level            normal          :
          :   max. optcycles                   200          :
          :   ANC micro-cycles                  20          :
          :   degrees of freedom                12          :
          :.................................................:
          :   RF solver                   davidson          :
          :   write xtbopt.log                true          :
          :   linear?                        false          :
          :   energy convergence         0.5000000E-05 Eh   :
          :   grad. convergence          0.1000000E-02 Eh/α :
          :   maximium RF displ.         1.0000000          :
          :   Hlow (freq-cutoff)         0.1000000E-01      :
          :   Hmax (freq-cutoff)         5.0000000          :
          :   S6 in model hess.         20.0000000          :
          ...................................................

generating ANC from model Hessian ...
Using Lindh-Hessian (1995)
 Shifting diagonal of input Hessian by    1.80365534231308     
 Lowest  eigenvalues of input Hessian
    0.010000    0.010325   -0.000000   -0.000000   -0.000000   -0.000000
    0.000000    0.000000    1.811692    1.953200    1.953248    2.244212
    2.392841    2.392894    3.937206    3.937543   21.809423   61.829932
 Highest eigenvalues
    2.392841    2.392894    3.937206    3.937543   21.809423   61.829932
 

........................................................................
.............................. CYCLE    1 ..............................
........................................................................
   1    -13.1522926 -0.131523E+02  0.144E-05    0.28       0.0  T
   2    -13.1522926  0.246565E-09  0.176E-04    0.28     231.6  T
   3    -13.1522926 -0.244585E-09  0.213E-05    0.28    1918.9  T
     SCC iter.                  ...        0 min,  0.000 sec
     gradient                   ...        0 min,  0.010 sec
 * total energy  :     2.8917504 Eh     change        0.3285143E-08 Eh
   gradient norm :    43.7228653 Eh/α   predicted     0.0000000E+00 (-100.00%)
   displ. norm   :     0.9444550 α      lambda       -0.4129428E+02
   maximum displ.:     0.9438964 α      in ANC's #11, #12, #6, ...

........................................................................
.............................. CYCLE    2 ..............................
........................................................................
   1    -12.9284663 -0.129285E+02  0.598E+00    0.56       0.0  T
   2    -12.9017909  0.266754E-01  0.740E+00    1.49       1.0  T
   3    -12.6864562  0.215335E+00  0.818E+00    0.08       1.0  T
   4    -13.0148061 -0.328350E+00  0.496E+00    1.32       1.0  T
   5    -13.0439114 -0.291053E-01  0.380E+00    0.75       1.0  T
   6    -13.0504274 -0.651595E-02  0.394E+00    0.79       1.0  T
   7    -13.0713230 -0.208956E-01  0.329E+00    0.70       1.0  T
   8    -13.0851983 -0.138754E-01  0.280E+00    0.64       1.0  T
   9    -13.0843647  0.833606E-03  0.283E+00    0.64       1.0  T
  10    -13.1225822 -0.382175E-01  0.671E-01    0.39       1.0  T
  11    -13.1238893 -0.130704E-02  0.489E-01    0.47       1.0  T
  12    -13.1218154  0.207391E-02  0.769E-01    0.49       1.0  T
  13    -13.1238152 -0.199981E-02  0.475E-01    0.48       1.0  T
  14    -13.1243850 -0.569855E-03  0.278E-01    0.44       1.0  T
  15    -13.1246476 -0.262538E-03  0.136E-01    0.42       1.0  T
  16    -13.1247242 -0.766131E-04  0.594E-02    0.41       1.0  T
  17    -13.1247400 -0.158037E-04  0.237E-02    0.41       1.7  T
  18    -13.1247404 -0.391268E-06  0.169E-02    0.41       2.4  T
  19    -13.1247408 -0.457861E-06  0.725E-03    0.41       5.6  T
  20    -13.1247410 -0.176044E-06  0.746E-04    0.41      54.7  T
  21    -13.1247410 -0.175363E-08  0.446E-04    0.41      91.6  T
     SCC iter.                  ...        0 min,  0.002 sec
     gradient                   ...        0 min,  0.001 sec
 * total energy  :   -11.6767330 Eh     change       -0.1456848E+02 Eh
   gradient norm :    12.9493496 Eh/α   predicted    -0.3906429E+02 ( 168.14%)
   displ. norm   :     0.2411310 α      lambda       -0.2779725E+01
   maximum displ.:     0.2069318 α      in ANC's #11, #12, #3, ...

........................................................................
.............................. CYCLE    3 ..............................
........................................................................
   1    -13.1232882 -0.131233E+02  0.192E+00    0.45       0.0  T
   2    -13.0589046  0.643835E-01  0.376E+00    0.61       1.0  T
   3    -13.1026154 -0.437107E-01  0.282E+00    1.09       1.0  T
   4    -13.1375463 -0.349310E-01  0.677E-01    0.74       1.0  T
   5    -13.1387483 -0.120194E-02  0.352E-01    0.68       1.0  T
   6    -13.1387921 -0.437781E-04  0.311E-01    0.58       1.0  T
   7    -13.1390403 -0.248239E-03  0.106E-01    0.61       1.0  T
   8    -13.1390893 -0.489499E-04  0.101E-02    0.62       4.0  T
   9    -13.1390852  0.408544E-05  0.387E-02    0.63       1.1  T
  10    -13.1390895 -0.430131E-05  0.109E-02    0.62       3.7  T
  11    -13.1390898 -0.354039E-06  0.226E-03    0.62      18.1  T
  12    -13.1390898 -0.155376E-07  0.577E-04    0.62      70.8  T
     SCC iter.                  ...        0 min,  0.001 sec
     gradient                   ...        0 min,  0.001 sec
 * total energy  :   -13.0184547 Eh     change       -0.1341722E+01 Eh
   gradient norm :     1.6907632 Eh/α   predicted    -0.1470676E+01 (   9.61%)
   displ. norm   :     0.2675433 α      lambda       -0.4483643E+00
   maximum displ.:     0.2633061 α      in ANC's #12, #11, #3, ...

........................................................................
.............................. CYCLE    4 ..............................
........................................................................
   1    -13.1219373 -0.131219E+02  0.193E+00    0.34       0.0  T
   2    -13.1045918  0.173455E-01  0.294E+00    0.80       1.0  T
   3    -13.0846914  0.199004E-01  0.285E+00    0.49       1.0  T
   4    -13.1309302 -0.462388E-01  0.103E+00    0.67       1.0  T
   5    -13.1337606 -0.283044E-02  0.468E-01    0.55       1.0  T
   6    -13.1343438 -0.583119E-03  0.299E-01    0.48       1.0  T
   7    -13.1346730 -0.329287E-03  0.879E-02    0.49       1.0  T
   8    -13.1347033 -0.302106E-04  0.149E-02    0.50       2.7  T
   9    -13.1347036 -0.381811E-06  0.149E-02    0.50       2.7  T
  10    -13.1347043 -0.674368E-06  0.593E-03    0.50       6.9  T
  11    -13.1347045 -0.170788E-06  0.319E-03    0.50      12.8  T
     SCC iter.                  ...        0 min,  0.001 sec
     gradient                   ...        0 min,  0.001 sec
 * total energy  :   -12.7122588 Eh     change        0.3061958E+00 Eh
   gradient norm :     4.2716139 Eh/α   predicted    -0.2402291E+00 (-178.46%)
   displ. norm   :     0.1798553 α      lambda       -0.7235397E+00
   maximum displ.:     0.1760334 α      in ANC's #12, #11, #3, ...

........................................................................
.............................. CYCLE    5 ..............................
........................................................................
   1    -13.1371341 -0.131371E+02  0.709E-01    0.69       0.0  T
   2    -13.1140170  0.231171E-01  0.262E+00    0.35       1.0  T
   3    -13.1383306 -0.243136E-01  0.353E-01    0.62       1.0  T
   4    -13.1385463 -0.215675E-03  0.251E-01    0.61       1.0  T
   5    -13.1387164 -0.170108E-03  0.605E-02    0.58       1.0  T
   6    -13.1387293 -0.129170E-04  0.923E-03    0.58       4.4  T
   7    -13.1387294 -0.609364E-07  0.650E-03    0.58       6.3  T
   8    -13.1387295 -0.141545E-06  0.227E-03    0.57      18.0  T
   9    -13.1387295 -0.138010E-07  0.954E-04    0.57      42.8  T
     SCC iter.                  ...        0 min,  0.010 sec
     gradient                   ...        0 min,  0.001 sec
 * total energy  :   -13.0858637 Eh     change       -0.3736048E+00 Eh
   gradient norm :     0.1335042 Eh/α   predicted    -0.3734724E+00 (  -0.04%)
   displ. norm   :     0.0159740 α      lambda       -0.1177481E-02
   maximum displ.:     0.0128073 α      in ANC's #3, #12, #1, ...

........................................................................
.............................. CYCLE    6 ..............................
........................................................................
   1    -13.1403616 -0.131404E+02  0.224E-02    0.58       0.0  T
   2    -13.1403353  0.262166E-04  0.757E-02    0.58       1.0  T
   3    -13.1403621 -0.267569E-04  0.217E-02    0.58       1.9  T
   4    -13.1403618  0.307700E-06  0.231E-02    0.58       1.8  T
   5    -13.1403630 -0.125186E-05  0.103E-02    0.58       4.0  T
   6    -13.1403634 -0.367373E-06  0.669E-04    0.58      61.1  T
   7    -13.1403634 -0.452310E-09  0.455E-04    0.58      89.8  T
     SCC iter.                  ...        0 min,  0.001 sec
     gradient                   ...        0 min,  0.001 sec
 * total energy  :   -13.0866009 Eh     change       -0.7372227E-03 Eh
   gradient norm :     0.0225869 Eh/α   predicted    -0.5888919E-03 ( -20.12%)
   displ. norm   :     0.0892081 α      lambda       -0.5424761E-03
   maximum displ.:     0.0784437 α      in ANC's #1, #2, #3, ...

........................................................................
.............................. CYCLE    7 ..............................
........................................................................
   1    -13.1423899 -0.131424E+02  0.134E-01    0.58       0.0  T
   2    -13.1423271  0.627235E-04  0.142E-01    0.59       1.0  T
   3    -13.1423149  0.122665E-04  0.133E-01    0.58       1.0  T
   4    -13.1423255 -0.106010E-04  0.148E-01    0.56       1.0  T
   5    -13.1424005 -0.749876E-04  0.120E-02    0.58       3.4  T
   6    -13.1424005 -0.411563E-07  0.347E-03    0.58      11.8  T
   7    -13.1424006 -0.576539E-07  0.889E-04    0.58      45.9  T
     SCC iter.                  ...        0 min,  0.001 sec
     gradient                   ...        0 min,  0.001 sec
 * total energy  :   -13.0865472 Eh     change        0.5370598E-04 Eh
   gradient norm :     0.0512125 Eh/α   predicted    -0.2733957E-03 (-609.06%)
   displ. norm   :     0.1410452 α      lambda       -0.2644209E-02
   maximum displ.:     0.0908335 α      in ANC's #1, #3, #2, ...

........................................................................
.............................. CYCLE    8 ..............................
........................................................................
   1    -13.1515081 -0.131515E+02  0.239E-01    0.57       0.0  T
   2    -13.1504840  0.102415E-02  0.496E-01    0.63       1.0  T
   3    -13.1515777 -0.109374E-02  0.155E-01    0.61       1.0  T
   4    -13.1512920  0.285744E-03  0.309E-01    0.57       1.0  T
   5    -13.1516289 -0.336943E-03  0.641E-02    0.58       1.0  T
   6    -13.1516424 -0.135137E-04  0.765E-03    0.59       5.3  T
   7    -13.1516427 -0.288240E-06  0.234E-03    0.59      17.5  T
   8    -13.1516427 -0.139806E-07  0.821E-04    0.59      49.7  T
     SCC iter.                  ...        0 min,  0.001 sec
     gradient                   ...        0 min,  0.001 sec
 * total energy  :   -13.0870869 Eh     change       -0.5396996E-03 Eh
   gradient norm :     0.2092888 Eh/α   predicted    -0.1348390E-02 ( 149.84%)
   displ. norm   :     0.0526689 α      lambda       -0.1451193E-02
   maximum displ.:     0.0429100 α      in ANC's #2, #1, #3, ...

........................................................................
.............................. CYCLE    9 ..............................
........................................................................
   1    -13.1497014 -0.131497E+02  0.707E-02    0.59       0.0  T
   2    -13.1496966  0.479423E-05  0.592E-02    0.58       1.0  T
   3    -13.1496791  0.174550E-04  0.874E-02    0.59       1.0  T
   4    -13.1496879 -0.875665E-05  0.521E-02    0.59       1.0  T
   5    -13.1497029 -0.150661E-04  0.135E-02    0.59       3.0  T
   6    -13.1497035 -0.592079E-06  0.119E-03    0.58      34.4  T
   7    -13.1497035 -0.307853E-08  0.509E-04    0.58      80.2  T
     SCC iter.                  ...        0 min,  0.001 sec
     gradient                   ...        0 min,  0.001 sec
 * total energy  :   -13.0878928 Eh     change       -0.8058968E-03 Eh
   gradient norm :     0.0718285 Eh/α   predicted    -0.7276091E-03 (  -9.71%)
   displ. norm   :     0.3662585 α      lambda       -0.3419349E-02
   maximum displ.:     0.3146079 α      in ANC's #2, #1, #6, ...

........................................................................
.............................. CYCLE   10 ..............................
........................................................................
   1    -13.1426431 -0.131426E+02  0.504E-01    0.58       0.0  T
   2    -13.1413396  0.130350E-02  0.613E-01    0.53       1.0  T
   3    -13.1415732 -0.233618E-03  0.560E-01    0.60       1.0  T
   4    -13.1426908 -0.111751E-02  0.178E-01    0.59       1.0  T
   5    -13.1427479 -0.571780E-04  0.998E-02    0.57       1.0  T
   6    -13.1427858 -0.378635E-04  0.413E-02    0.57       1.0  T
   7    -13.1427945 -0.871811E-05  0.581E-03    0.57       7.0  T
   8    -13.1427946 -0.760382E-07  0.242E-03    0.57      16.9  T
   9    -13.1427946 -0.967472E-08  0.137E-03    0.57      29.8  T
     SCC iter.                  ...        0 min,  0.001 sec
     gradient                   ...        0 min,  0.001 sec
 * total energy  :   -13.0745280 Eh     change        0.1336480E-01 Eh
   gradient norm :     0.5080842 Eh/α   predicted    -0.1939039E-02 (-114.51%)
   displ. norm   :     0.2954937 α      lambda       -0.3186005E-01
   maximum displ.:     0.2617662 α      in ANC's #2, #1, #3, ...

........................................................................
.............................. CYCLE   11 ..............................
........................................................................
   1    -13.1507946 -0.131508E+02  0.415E-01    0.58       0.0  T
   2    -13.1507113  0.833461E-04  0.307E-01    0.61       1.0  T
   3    -13.1500579  0.653417E-03  0.455E-01    0.54       1.0  T
   4    -13.1507697 -0.711897E-03  0.141E-01    0.58       1.0  T
   5    -13.1508406 -0.708507E-04  0.728E-02    0.59       1.0  T
   6    -13.1508605 -0.199237E-04  0.184E-02    0.58       2.2  T
   7    -13.1508619 -0.133410E-05  0.361E-03    0.59      11.3  T
   8    -13.1508619 -0.320753E-07  0.117E-03    0.59      34.9  T
     SCC iter.                  ...        0 min,  0.001 sec
     gradient                   ...        0 min,  0.001 sec
 * total energy  :   -13.0884984 Eh     change       -0.1397037E-01 Eh
   gradient norm :     0.0375884 Eh/α   predicted    -0.1732089E-01 (  23.98%)
   displ. norm   :     0.0354828 α      lambda       -0.4285795E-03
   maximum displ.:     0.0302171 α      in ANC's #3, #2, #1, ...

........................................................................
.............................. CYCLE   12 ..............................
........................................................................
   1    -13.1520769 -0.131521E+02  0.726E-02    0.58       0.0  T
   2    -13.1517401  0.336884E-03  0.255E-01    0.59       1.0  T
   3    -13.1520980 -0.357950E-03  0.461E-02    0.59       1.0  T
   4    -13.1520945  0.350870E-05  0.542E-02    0.58       1.0  T
   5    -13.1521026 -0.811534E-05  0.142E-02    0.59       2.9  T
   6    -13.1521034 -0.770205E-06  0.274E-03    0.59      14.9  T
   7    -13.1521034 -0.158092E-07  0.651E-04    0.59      62.7  T
     SCC iter.                  ...        0 min,  0.001 sec
     gradient                   ...        0 min,  0.001 sec
 * total energy  :   -13.0888465 Eh     change       -0.3481895E-03 Eh
   gradient norm :     0.0181732 Eh/α   predicted    -0.2145589E-03 ( -38.38%)
   displ. norm   :     0.0926092 α      lambda       -0.8548062E-03
   maximum displ.:     0.0880199 α      in ANC's #3, #2, #1, ...

........................................................................
.............................. CYCLE   13 ..............................
........................................................................
   1    -13.1543448 -0.131543E+02  0.215E-01    0.58       0.0  T
   2    -13.1505377  0.380709E-02  0.838E-01    0.60       1.0  T
   3    -13.1545632 -0.402549E-02  0.114E-01    0.60       1.0  T
   4    -13.1545514  0.117353E-04  0.124E-01    0.58       1.0  T
   5    -13.1545776 -0.261663E-04  0.567E-02    0.59       1.0  T
   6    -13.1545935 -0.158869E-04  0.951E-03    0.59       4.3  T
   7    -13.1545937 -0.202459E-06  0.288E-03    0.59      14.2  T
   8    -13.1545937 -0.352055E-07  0.107E-03    0.59      38.0  T
     SCC iter.                  ...        0 min,  0.001 sec
     gradient                   ...        0 min,  0.001 sec
 * total energy  :   -13.0894564 Eh     change       -0.6098567E-03 Eh
   gradient norm :     0.0534274 Eh/α   predicted    -0.4310737E-03 ( -29.32%)
   displ. norm   :     0.1053869 α      lambda       -0.7441441E-03
   maximum displ.:     0.1023952 α      in ANC's #3, #6, #2, ...

........................................................................
.............................. CYCLE   14 ..............................
........................................................................
   1    -13.1549329 -0.131549E+02  0.268E-01    0.59       0.0  T
   2    -13.1487777  0.615523E-02  0.105E+00    0.60       1.0  T
   3    -13.1552726 -0.649488E-02  0.125E-01    0.61       1.0  T
   4    -13.1552835 -0.109455E-04  0.104E-01    0.58       1.0  T
   5    -13.1552909 -0.740391E-05  0.564E-02    0.59       1.0  T
   6    -13.1553072 -0.163286E-04  0.110E-02    0.59       3.7  T
   7    -13.1553076 -0.347494E-06  0.346E-03    0.59      11.8  T
   8    -13.1553076 -0.473026E-07  0.161E-03    0.59      25.3  T
     SCC iter.                  ...        0 min,  0.001 sec
     gradient                   ...        0 min,  0.001 sec
 * total energy  :   -13.0900290 Eh     change       -0.5726283E-03 Eh
   gradient norm :     0.0592105 Eh/α   predicted    -0.3762048E-03 ( -34.30%)
   displ. norm   :     0.1293401 α      lambda       -0.7979247E-03
   maximum displ.:     0.1234401 α      in ANC's #3, #6, #2, ...

........................................................................
.............................. CYCLE   15 ..............................
........................................................................
   1    -13.1526313 -0.131526E+02  0.341E-01    0.59       0.0  T
   2    -13.1426599  0.997143E-02  0.131E+00    0.61       1.0  T
   3    -13.1530992 -0.104393E-01  0.183E-01    0.62       1.0  T
   4    -13.1531640 -0.648151E-04  0.112E-01    0.59       1.0  T
   5    -13.1531847 -0.207543E-04  0.471E-02    0.60       1.0  T
   6    -13.1531965 -0.117146E-04  0.113E-02    0.60       3.6  T
   7    -13.1531968 -0.322290E-06  0.494E-03    0.60       8.3  T
   8    -13.1531969 -0.899151E-07  0.287E-03    0.60      14.2  T
     SCC iter.                  ...        0 min,  0.001 sec
     gradient                   ...        0 min,  0.001 sec
 * total energy  :   -13.0905080 Eh     change       -0.4789485E-03 Eh
   gradient norm :     0.0322462 Eh/α   predicted    -0.4056398E-03 ( -15.31%)
   displ. norm   :     0.0164548 α      lambda       -0.1256868E-03
   maximum displ.:     0.0098350 α      in ANC's #6, #2, #3, ...

........................................................................
.............................. CYCLE   16 ..............................
........................................................................
   1    -13.1519912 -0.131520E+02  0.600E-02    0.60       0.0  T
   2    -13.1517709  0.220264E-03  0.211E-01    0.59       1.0  T
   3    -13.1520030 -0.232123E-03  0.251E-02    0.60       1.6  T
   4    -13.1520046 -0.160271E-05  0.130E-02    0.60       3.1  T
   5    -13.1520052 -0.548069E-06  0.327E-03    0.60      12.5  T
   6    -13.1520052 -0.377927E-07  0.937E-04    0.60      43.6  T
     SCC iter.                  ...        0 min,  0.000 sec
     gradient                   ...        0 min,  0.001 sec
 * total energy  :   -13.0905982 Eh     change       -0.9024194E-04 Eh
   gradient norm :     0.0113926 Eh/α   predicted    -0.6286012E-04 ( -30.34%)
   displ. norm   :     0.0254975 α      lambda       -0.8093582E-04
   maximum displ.:     0.0220375 α      in ANC's #3, #2, #1, ...

........................................................................
.............................. CYCLE   17 ..............................
........................................................................
   1    -13.1508738 -0.131509E+02  0.665E-02    0.61       0.0  T
   2    -13.1508081  0.657227E-04  0.152E-01    0.58       1.0  T
   3    -13.1508852 -0.770632E-04  0.230E-02    0.60       1.8  T
   4    -13.1508748  0.103639E-04  0.443E-02    0.60       1.0  T
   5    -13.1508861 -0.113094E-04  0.421E-03    0.60       9.7  T
   6    -13.1508862 -0.396161E-07  0.187E-03    0.60      21.8  T
   7    -13.1508862 -0.857415E-08  0.292E-04    0.60     139.9  T
     SCC iter.                  ...        0 min,  0.001 sec
     gradient                   ...        0 min,  0.001 sec
 * total energy  :   -13.0906450 Eh     change       -0.4674571E-04 Eh
   gradient norm :     0.0044964 Eh/α   predicted    -0.4049262E-04 ( -13.38%)
   displ. norm   :     0.0080134 α      lambda       -0.5813460E-05
   maximum displ.:     0.0078806 α      in ANC's #3, #6, #2, ...

........................................................................
.............................. CYCLE   18 ..............................
........................................................................
   1    -13.1505467 -0.131505E+02  0.212E-02    0.60       0.0  T
   2    -13.1505397  0.704605E-05  0.472E-02    0.60       1.0  T
   3    -13.1505481 -0.842915E-05  0.549E-03    0.60       7.4  T
   4    -13.1505468  0.132509E-05  0.166E-02    0.60       2.5  T
   5    -13.1505481 -0.135514E-05  0.147E-03    0.60      27.7  T
   6    -13.1505481 -0.452182E-08  0.643E-04    0.60      63.5  T
     SCC iter.                  ...        0 min,  0.001 sec
     gradient                   ...        0 min,  0.001 sec
 * total energy  :   -13.0906486 Eh     change       -0.3632796E-05 Eh
   gradient norm :     0.0019206 Eh/α   predicted    -0.2908777E-05 ( -19.93%)
   displ. norm   :     0.0041132 α      lambda       -0.1102427E-05
   maximum displ.:     0.0034892 α      in ANC's #3, #2, #1, ...

........................................................................
.............................. CYCLE   19 ..............................
........................................................................
   1    -13.1503705 -0.131504E+02  0.100E-02    0.60       0.0  T
   2    -13.1503690  0.147218E-05  0.223E-02    0.60       1.8  T
   3    -13.1503708 -0.177631E-05  0.272E-03    0.60      15.0  T
   4    -13.1503707  0.868257E-07  0.423E-03    0.60       9.7  T
   5    -13.1503708 -0.871117E-07  0.737E-04    0.60      55.4  T
   6    -13.1503708 -0.110170E-08  0.140E-04    0.60     291.7  T
     SCC iter.                  ...        0 min,  0.001 sec
     gradient                   ...        0 min,  0.001 sec
 * total energy  :   -13.0906493 Eh     change       -0.6910012E-06 Eh
   gradient norm :     0.0014617 Eh/α   predicted    -0.5496725E-06 ( -20.45%)
   displ. norm   :     0.0013012 α      lambda       -0.1306092E-06
   maximum displ.:     0.0011560 α      in ANC's #3, #2, #6, ...

........................................................................
.............................. CYCLE   20 ..............................
........................................................................
   1    -13.1504181 -0.131504E+02  0.319E-03    0.60       0.0  T
   2    -13.1504179  0.155230E-06  0.671E-03    0.60       6.1  T
   3    -13.1504181 -0.181113E-06  0.119E-03    0.60      34.4  T
   4    -13.1504181  0.247096E-07  0.256E-03    0.60      15.9  T
   5    -13.1504181 -0.291052E-07  0.243E-04    0.60     167.9  T
   6    -13.1504181 -0.147446E-09  0.236E-05    0.60    1728.8  T
     SCC iter.                  ...        0 min,  0.001 sec
     gradient                   ...        0 min,  0.001 sec
 * total energy  :   -13.0906494 Eh     change       -0.1066818E-06 Eh
   gradient norm :     0.0003331 Eh/α   predicted    -0.6555411E-07 ( -38.55%)
   displ. norm   :     0.0002696 α      lambda       -0.1433368E-07
   maximum displ.:     0.0001826 α      in ANC's #2, #1, #5, ...

   *** GEOMETRY OPTIMIZATION CONVERGED AFTER 20 ITERATIONS ***

------------------------------------------------------------------------
 total energy gain   :       -15.9823998 Eh   -10029.1073 kcal/mol
 total RMSD          :         0.3600927 a0        0.1906 Å
 total power (kW/mol):     -2098.0892432 (step)********** (real)
------------------------------------------------------------------------

 ANCopt (total)                0 d,  0 h,  0 min,  0.060 sec
 optimizer setup                ...        0 min,  0.000 sec (  0.088%)
 model hessian                  ...        0 min,  0.000 sec (  0.128%)
 ANC generation                 ...        0 min,  0.000 sec (  0.113%)
 coordinate transformation      ...        0 min,  0.000 sec (  0.151%)
 single point calculation       ...        0 min,  0.058 sec ( 96.658%)
 optimization log               ...        0 min,  0.000 sec (  0.821%)
 hessian update                 ...        0 min,  0.000 sec (  0.116%)
 rational function              ...        0 min,  0.001 sec (  0.956%)

================
 final structure:
================
6
 xtb: 6.2.3 (830e466)
F        -3.29930153908475   -0.18882870977656    0.05012050434566
Cl        2.30139313371493    0.13956080341369   -0.02854467817323
C        -0.80422371342796   -0.04877205892735    0.01440608413256
H        -0.75866598469628   -0.62911719153465   -0.88098715045402
H        -0.74064519205880   -0.52980781131897    0.96575372223702
H        -0.84147670444726    1.01691496814383   -0.04202848208797
 
 Bond Distances (Angstroems)
 ---------------------------
C3-H4=1.0680         C3-H5=1.0679         C3-H6=1.0678         H4-C3=1.0680         H5-C3=1.0679         H6-C3=1.0678         
 C  H  Rav=1.0679 sigma=0.0001  Rmin=1.0678  Rmax=1.0680     3
 
 selected bond angles (degree)
 --------------------
H5-C3-H4=119.97                H6-C3-H4=119.97                H6-C3-H5=119.91                
 
 selected dihedral angles (degree)
 ---------------------------------

 
 CMA Distance (Angstroems)
 ---------------------------
R(CMA):  4.6857
           -------------------------------------------------
          |                Final Singlepoint                |
           -------------------------------------------------

          ...................................................
          :                      SETUP                      :
          :.................................................:
          :  # basis functions                  21          :
          :  # atomic orbitals                  20          :
          :  # shells                           10          :
          :  # electrons                        22          :
          :  max. iterations                   250          :
          :  Hamiltonian                  GFN2-xTB          :
          :  restarted?                      false          :
          :  GBSA solvation                  false          :
          :  PC potential                    false          :
          :  electronic temp.          300.0000000     K    :
          :  accuracy                    1.0000000          :
          :  -> integral cutoff          0.2500000E+02      :
          :  -> integral neglect         0.1000000E-07      :
          :  -> SCF convergence          0.1000000E-05 Eh   :
          :  -> wf. convergence          0.1000000E-03 e    :
          :  Broyden damping             0.4000000          :
          ...................................................

 iter      E             dE          RMSdq      gap      omega  full diag
   1    -13.1504181 -0.131504E+02  0.118E-05    0.60       0.0  T
   2    -13.1504181  0.119869E-10  0.519E-05    0.60     786.5  T
   3    -13.1504181 -0.961187E-11  0.286E-05    0.60    1429.1  T

   *** convergence criteria satisfied after 3 iterations ***

         #    Occupation            Energy/Eh            Energy/eV
      -------------------------------------------------------------
         1        2.0000           -0.8427383             -22.9321
       ...           ...                  ...                  ...
         5        2.0000           -0.3630558              -9.8793
         6        2.0000           -0.2504253              -6.8144
         7        2.0000           -0.2371769              -6.4539
         8        2.0000           -0.2371767              -6.4539
         9        2.0000           -0.2297564              -6.2520
        10        2.0000           -0.2259272              -6.1478
        11        2.0000           -0.2259267              -6.1478 (HOMO)
        12        0.0000           -0.2038146              -5.5461 (LUMO)
        13                          0.2452645               6.6740
        14                          0.2668359               7.2610
        15                          0.2668372               7.2610
        16                          0.2668578               7.2616
       ...                                ...                  ...
        20                          0.4119083              11.2086
      -------------------------------------------------------------
                  HL-Gap            0.0221121 Eh            0.6017 eV
             Fermi-level           -0.2145373 Eh           -5.8379 eV

 SCC (total)                   0 d,  0 h,  0 min,  0.002 sec
 SCC setup                      ...        0 min,  0.000 sec (  2.920%)
 Dispersion                     ...        0 min,  0.000 sec (  0.496%)
 integral evaluation            ...        0 min,  0.001 sec ( 37.410%)
 zeroth order Hamiltonian       ...        0 min,  0.000 sec (  0.844%)
 iterations                     ...        0 min,  0.000 sec ( 18.417%)
 molecular gradient             ...        0 min,  0.001 sec ( 35.052%)
 printout                       ...        0 min,  0.000 sec (  3.482%)

         :::::::::::::::::::::::::::::::::::::::::::::::::::::
         ::                     SUMMARY                     ::
         :::::::::::::::::::::::::::::::::::::::::::::::::::::
         :: total energy             -13.090649395254 Eh    ::
         :: gradient norm              0.000333005544 Eh/a0 ::
         :: HOMO-LUMO gap              0.601701848578 eV    ::
         ::.................................................::
         :: SCC energy               -13.150418109207 Eh    ::
         :: -> isotropic ES            0.166992140138 Eh    ::
         :: -> anisotropic ES         -0.000309590287 Eh    ::
         :: -> anisotropic XC          0.005740226755 Eh    ::
         :: -> dispersion             -0.001760202965 Eh    ::
         :: repulsion energy           0.059745830656 Eh    ::
         :: add. restraining           0.000024706719 Eh    ::
         :::::::::::::::::::::::::::::::::::::::::::::::::::::

           -------------------------------------------------
          |                Property Printout                |
           -------------------------------------------------

    * Orbital Energies and Occupations

         #    Occupation            Energy/Eh            Energy/eV
      -------------------------------------------------------------
         1        2.0000           -0.8427383             -22.9321
         2        2.0000           -0.5236412             -14.2490
         3        2.0000           -0.4593604             -12.4998
         4        2.0000           -0.3631343              -9.8814
         5        2.0000           -0.3630558              -9.8793
         6        2.0000           -0.2504253              -6.8144
         7        2.0000           -0.2371769              -6.4539
         8        2.0000           -0.2371767              -6.4539
         9        2.0000           -0.2297564              -6.2520
        10        2.0000           -0.2259272              -6.1478
        11        2.0000           -0.2259267              -6.1478 (HOMO)
        12        0.0000           -0.2038146              -5.5461 (LUMO)
        13                          0.2452645               6.6740
        14                          0.2668359               7.2610
        15                          0.2668372               7.2610
        16                          0.2668578               7.2616
        17                          0.2680304               7.2935
        18                          0.2680305               7.2935
        19                          0.4116835              11.2025
        20                          0.4119083              11.2086
      -------------------------------------------------------------
                  HL-Gap            0.0221121 Eh            0.6017 eV
             Fermi-level           -0.2145373 Eh           -5.8379 eV

     #   Z        covCN         q      C6AA      α(0)
     1   9 F      0.000    -0.548    16.034     4.664
     2  17 Cl     0.000    -0.707   115.548    16.359
     3   6 C      2.780    -0.033    28.811     8.792
     4   1 H      0.927     0.096     1.822     2.111
     5   1 H      0.927     0.096     1.822     2.111
     6   1 H      0.927     0.096     1.819     2.109

 Mol. C6AA /au·bohr⁶  :        577.486667
 Mol. C8AA /au·bohr⁸  :      16473.634978
 Mol. α(0) /au        :         36.145429


Wiberg/Mayer (AO) data.
largest (>0.10) Wiberg bond orders for each atom
          total WBO             WBO to atom ...
     1  F   0.567        C    3 0.567
     2  Cl  0.368        C    3 0.368
     3  C   3.902        H    5 0.989    H    4 0.989    H    6 0.989    F    1 0.567    Cl   2 0.368
     4  H   0.991        C    3 0.989
     5  H   0.991        C    3 0.989
     6  H   0.991        C    3 0.989

molecular dipole:
                 x           y           z       tot (Debye)
 q only:       -0.028      -0.013      -0.007
   full:        0.063      -0.008      -0.008       0.163
molecular quadrupole (traceless):
                xx          xy          yy          xz          yz          zz
 q only:      -34.653      -3.047      17.243       0.730       0.043      17.410
  q+dip:      -35.158      -3.086      17.494       0.740       0.044      17.664
   full:      -34.226      -3.005      17.030       0.722       0.043      17.196

           -------------------------------------------------
          |                Geometry Summary                 |
           -------------------------------------------------

      molecular mass/u    :       69.4858989
   center of mass at/Å    :        0.0991711       0.0090877       0.0022497
  moments of inertia/u·Å² :        0.3447226E+01   0.4067035E+03   0.4067049E+03
rotational constants/cm⁻¹ :        0.4890202E+01   0.4144944E-01   0.4144929E-01

 * 3 selected distances

     #   Z        #   Z                                     value/Å
     3   6 C      4   1 H                                 1.0679911 (max)
     3   6 C      5   1 H                                 1.0679419
     3   6 C      6   1 H                                 1.0678303 (min)

 * 1 distinct bonds (by element types)

   Z      Z             #   av. dist./Å        max./Å        min./Å
   1 H    6 C           3     1.0679211     1.0679911     1.0678303


optimized geometry written to: xtbopt.xyz


           -------------------------------------------------
          | TOTAL ENERGY              -13.090649395254 Eh   |
          | GRADIENT NORM               0.000333005544 Eh/α |
          | HOMO-LUMO GAP               0.601701848578 eV   |
           -------------------------------------------------

------------------------------------------------------------------------
 * finished run on 2020/04/08 at 13:05:38.917     
------------------------------------------------------------------------
 total:
 * wall-time:     0 d,  0 h,  0 min,  0.098 sec
 *  cpu-time:     0 d,  0 h,  0 min,  0.058 sec
 * ratio c/w:     0.596 speedup
 SCF:
 * wall-time:     0 d,  0 h,  0 min,  0.007 sec
 *  cpu-time:     0 d,  0 h,  0 min,  0.007 sec
 * ratio c/w:     1.000 speedup
 ANC optimizer:
 * wall-time:     0 d,  0 h,  0 min,  0.063 sec
 *  cpu-time:     0 d,  0 h,  0 min,  0.043 sec
 * ratio c/w:     0.694 speedup

