      -----------------------------------------------------------      
     |                   =====================                   |     
     |                           x T B                           |     
     |                   =====================                   |     
     |                         S. Grimme                         |     
     |          Mulliken Center for Theoretical Chemistry        |     
     |                    University of Bonn                     |     
      -----------------------------------------------------------      

   * xtb version 6.2.3 (830e466) compiled by 'ehlert@majestix' on 2020-03-16

   xtb is free software: you can redistribute it and/or modify it under
   the terms of the GNU Lesser General Public License as published by
   the Free Software Foundation, either version 3 of the License, or
   (at your option) any later version.
   
   xtb is distributed in the hope that it will be useful,
   but WITHOUT ANY WARRANTY; without even the implied warranty of
   MERCHANTABILITY or FITNESS FOR A PARTICULAR PURPOSE.  See the
   GNU Lesser General Public License for more details.
   
   Cite this work as:
   * S. Grimme, C. Bannwarth, P. Shushkov, J. Chem. Theory Comput., 2017,
     13, 1989-2009. DOI: 10.1021/acs.jctc.7b00118
   * C. Bannwarth, S. Ehlert and S. Grimme., J. Chem. Theory Comput., 2019,
     15, 1652-1671. DOI: 10.1021/acs.jctc.8b01176
   * P. Pracht, E. Caldeweyher, S. Ehlert, S. Grimme, ChemRxiv, 2019, preprint.
     DOI: 10.26434/chemrxiv.8326202.v1
   
   for DFT-D4:
   * E. Caldeweyher, C. Bannwarth and S. Grimme, J. Chem. Phys., 2017,
     147, 034112. DOI: 10.1063/1.4993215
   * E. Caldeweyher, S. Ehlert, A. Hansen, H. Neugebauer, S. Spicher,
     C. Bannwarth and S. Grimme, J. Chem. Phys., 2019, 150, 154122.
     DOI: 10.1063/1.5090222
   
   for sTDA-xTB:
   * S. Grimme and C. Bannwarth, J. Chem. Phys., 2016, 145, 054103.
     DOI: 10.1063/1.4959605
   
   in the mass-spec context:
   * V. Asgeirsson, C. Bauer and S. Grimme, Chem. Sci., 2017, 8, 4879.
     DOI: 10.1039/c7sc00601b
   
   for metadynamics refer to:
   * S. Grimme, J. Chem. Theory Comput., 2019, 155, 2847-2862
     DOI: 10.1021/acs.jctc.9b00143
   
   with help from (in alphabetical order)
   C. Bannwarth, F. Bohle, G. Brandenburg, E. Caldeweyher, M. Checinski,
   S. Dohm, S. Ehlert, S. Ehrlich, F. März, H. Neugebauer, J. Pisarek,
   P. Pracht, P. Shushkov, and S. Spicher.
   
 * started run on 2020/04/08 at 23:04:51.639     

           -------------------------------------------------
          |                Calculation Setup                |
           -------------------------------------------------

          program call               : /home/tom/.local/bin/xtb SN2_PES_scan_7-2_xtb.xyz --chrg -1 --opt --input xcontrol_SN2_PES_scan_7-2
          coordinate file            : SN2_PES_scan_7-2_xtb.xyz
          omp threads                :                     1
          number of atoms            :                     6
          number of electrons        :                    22
          charge                     :                    -1
          spin                       :                   0.0
          first test random number   :      0.37323463462523

constraining bond 1 3 to    1.9050000 Å, actual value:    2.2046450 Å
constraining bond 2 3 to    2.3830000 Å, actual value:    2.0827401 Å

molecular fragmentation (1/2 indicates fragments):
122222
# atoms in fragment 1/2:     1     5
 fragment masses (1/2) :       19.00       50.49
CMA distance (Bohr)    :   6.910
constraining FC (au)   : 10.0000
########################################################################
[WARNING] Please study the warnings concerning your input carefully
-2- prog_main: XTBPATH is not set, using XTBHOME instead
-1- prog_main: XTBHOME is not set, using HOME instead
########################################################################
           ------------------------------------------------- 
          |                 G F N 2 - x T B                 |
          | Geometry, Frequencies, Noncovalent interactions |
          |            JCTC 2019 parametrisation            |
           ------------------------------------------------- 
             k(s)              :                1.8500
             k(p)              :                2.2300
             k(d)              :                2.2300
             k(f)              :                2.0000
             kEN (H0ij)        :               -2.0000
             D4 a1             :                0.5200
             D4 a2             :                5.0000
             D4 s6             :                1.0000
             D4 s8             :                2.7000
             D4 s9             :                5.0000
             alphaj            :                2.0000

  Z AO/shell   Hii/eV     exponent
  1     Wed Apr 25 08:07:45 CEST 2018   EN: 2.200 GM2: 0.406  GM3: 0.0800  RAES: 1.40
     1s    -10.707211    1.230000
  6     Wed Apr 25 08:07:45 CEST 2018   EN: 2.550 GM2: 0.538  GM3: 0.1500  RAES: 3.00
     2s    -13.970922    2.096432
     2p    -10.063292    1.800000
  9     Mon Apr 23 13:58:50 CEST 2018   EN: 3.980 GM2: 0.532  GM3: 0.1426  RAES: 2.40
     2s    -23.458179    2.416361
     2p    -15.746583    2.308399
 17     Mon Apr 23 14:09:22 CEST 2018   EN: 3.160 GM2: 0.249  GM3: 0.1495  RAES: 2.50
     3s    -29.278781    2.485265
     3p    -12.673758    2.199650
     3d     -0.240338    2.476089

           ------------------------------------------------- 
          |        Self-Consistent Charge Iterations        |
           ------------------------------------------------- 

          ...................................................
          :                      SETUP                      :
          :.................................................:
          :  # basis functions                  21          :
          :  # atomic orbitals                  20          :
          :  # shells                           10          :
          :  # electrons                        22          :
          :  max. iterations                   250          :
          :  Hamiltonian                  GFN2-xTB          :
          :  restarted?                      false          :
          :  GBSA solvation                  false          :
          :  PC potential                    false          :
          :  electronic temp.          300.0000000     K    :
          :  accuracy                    1.0000000          :
          :  -> integral cutoff          0.2500000E+02      :
          :  -> integral neglect         0.1000000E-07      :
          :  -> SCF convergence          0.1000000E-05 Eh   :
          :  -> wf. convergence          0.1000000E-03 e    :
          :  Broyden damping             0.4000000          :
          ...................................................

 iter      E             dE          RMSdq      gap      omega  full diag
   1    -13.1120243 -0.131120E+02  0.655E+00    3.82       0.0  T
   2    -13.1678398 -0.558154E-01  0.297E+00    1.50       1.0  T
   3    -13.1971418 -0.293021E-01  0.221E+00    3.12       1.0  T
   4    -13.2060358 -0.889395E-02  0.519E-01    2.37       1.0  T
   5    -13.2060929 -0.571287E-04  0.209E-01    2.23       1.0  T
   6    -13.2059746  0.118291E-03  0.239E-01    2.43       1.0  T
   7    -13.2062069 -0.232230E-03  0.787E-02    2.33       1.0  T
   8    -13.2062057  0.114529E-05  0.810E-02    2.25       1.0  T
   9    -13.2062386 -0.328953E-04  0.150E-02    2.30       2.7  T
  10    -13.2062395 -0.852833E-06  0.710E-03    2.30       5.8  T
  11    -13.2062397 -0.216463E-06  0.387E-04    2.29     105.5  T
  12    -13.2062397 -0.628225E-09  0.142E-04    2.29     287.2  T

   *** convergence criteria satisfied after 12 iterations ***

         #    Occupation            Energy/Eh            Energy/eV
      -------------------------------------------------------------
         1        2.0000           -0.8747837             -23.8041
       ...           ...                  ...                  ...
         5        2.0000           -0.3270206              -8.8987
         6        2.0000           -0.2889223              -7.8620
         7        2.0000           -0.2456942              -6.6857
         8        2.0000           -0.2456816              -6.6853
         9        2.0000           -0.1581662              -4.3039
        10        2.0000           -0.1526645              -4.1542
        11        2.0000           -0.1526642              -4.1542 (HOMO)
        12                         -0.0684287              -1.8620 (LUMO)
        13                          0.2208763               6.0104
        14                          0.2208786               6.0104
        15                          0.2215709               6.0293
        16                          0.2215721               6.0293
       ...                                ...                  ...
        20                          0.4342263              11.8159
      -------------------------------------------------------------
                  HL-Gap            0.0842355 Eh            2.2922 eV
             Fermi-level           -0.1105464 Eh           -3.0081 eV

 SCC (total)                   0 d,  0 h,  0 min,  0.003 sec
 SCC setup                      ...        0 min,  0.000 sec (  2.265%)
 Dispersion                     ...        0 min,  0.000 sec (  0.485%)
 integral evaluation            ...        0 min,  0.001 sec ( 24.236%)
 zeroth order Hamiltonian       ...        0 min,  0.000 sec (  0.647%)
 iterations                     ...        0 min,  0.001 sec ( 41.724%)
 molecular gradient             ...        0 min,  0.001 sec ( 27.669%)
 printout                       ...        0 min,  0.000 sec (  2.256%)

         :::::::::::::::::::::::::::::::::::::::::::::::::::::
         ::                     SUMMARY                     ::
         :::::::::::::::::::::::::::::::::::::::::::::::::::::
         :: total energy              -6.721273229185 Eh    ::
         :: gradient norm             27.773874132486 Eh/a0 ::
         :: HOMO-LUMO gap              2.292163426773 eV    ::
         ::.................................................::
         :: SCC energy               -13.206239685718 Eh    ::
         :: -> isotropic ES            0.196089628887 Eh    ::
         :: -> anisotropic ES          0.000447524158 Eh    ::
         :: -> anisotropic XC          0.003641546452 Eh    ::
         :: -> dispersion             -0.002026460455 Eh    ::
         :: repulsion energy           0.059082965006 Eh    ::
         :: add. restraining           6.425883669045 Eh    ::
         :::::::::::::::::::::::::::::::::::::::::::::::::::::

      ----------------------------------------------------------- 
     |                   =====================                   |
     |                        A N C O P T                        |
     |                   =====================                   |
     |               Approximate Normal Coordinate               |
     |                Rational Function Optimizer                |
      ----------------------------------------------------------- 

          ...................................................
          :                      SETUP                      :
          :.................................................:
          :   optimization level            normal          :
          :   max. optcycles                   200          :
          :   ANC micro-cycles                  20          :
          :   degrees of freedom                12          :
          :.................................................:
          :   RF solver                   davidson          :
          :   write xtbopt.log                true          :
          :   linear?                        false          :
          :   energy convergence         0.5000000E-05 Eh   :
          :   grad. convergence          0.1000000E-02 Eh/α :
          :   maximium RF displ.         1.0000000          :
          :   Hlow (freq-cutoff)         0.1000000E-01      :
          :   Hmax (freq-cutoff)         5.0000000          :
          :   S6 in model hess.         20.0000000          :
          ...................................................

generating ANC from model Hessian ...
Using Lindh-Hessian (1995)
 Shifting diagonal of input Hessian by    1.91251141733080     
 Lowest  eigenvalues of input Hessian
    0.010000    0.013327   -0.000000    0.000000    0.000000    0.000000
    0.000000    0.000000    1.960094    2.053171    2.053276    2.360948
    2.529181    2.529589    4.070334    4.074248   21.991464   62.239843
 Highest eigenvalues
    2.529181    2.529589    4.070334    4.074248   21.991464   62.239843
 

........................................................................
.............................. CYCLE    1 ..............................
........................................................................
   1    -13.2062397 -0.132062E+02  0.220E-05    2.29       0.0  T
   2    -13.2062397 -0.131983E-11  0.152E-05    2.29    2685.7  T
   3    -13.2062397 -0.751399E-12  0.748E-06    2.29    5454.9  T
     SCC iter.                  ...        0 min,  0.000 sec
     gradient                   ...        0 min,  0.001 sec
 * total energy  :    -6.7212732 Eh     change        0.4058185E-08 Eh
   gradient norm :    27.7738695 Eh/α   predicted     0.0000000E+00 (-100.00%)
   displ. norm   :     0.9140307 α      lambda       -0.2538616E+02
   maximum displ.:     0.9140261 α      in ANC's #11, #6, #12, ...

........................................................................
.............................. CYCLE    2 ..............................
........................................................................
   1    -13.1928124 -0.131928E+02  0.435E+00    5.91       0.0  T
   2    -13.2252305 -0.324181E-01  0.211E+00    6.58       1.0  T
   3    -13.2305678 -0.533725E-02  0.112E+00    5.03       1.0  T
   4    -13.2314808 -0.913025E-03  0.620E-01    4.62       1.0  T
   5    -13.2317589 -0.278043E-03  0.271E-01    4.56       1.0  T
   6    -13.2318707 -0.111878E-03  0.136E-01    4.57       1.0  T
   7    -13.2319170 -0.462528E-04  0.245E-02    4.65       1.7  T
   8    -13.2319173 -0.311957E-06  0.128E-02    4.63       3.2  T
   9    -13.2319176 -0.267390E-06  0.136E-03    4.64      30.0  T
  10    -13.2319176 -0.119722E-08  0.381E-04    4.64     107.2  T
     SCC iter.                  ...        0 min,  0.001 sec
     gradient                   ...        0 min,  0.001 sec
 * total energy  :    -7.0675156 Eh     change       -0.3462424E+00 Eh
   gradient norm :    27.0096965 Eh/α   predicted    -0.2329754E+02 (6628.68%)
   displ. norm   :     0.3841420 α      lambda       -0.1037556E+02
   maximum displ.:     0.3841401 α      in ANC's #11, #6, #3, ...

........................................................................
.............................. CYCLE    3 ..............................
........................................................................
   1    -13.1915211 -0.131915E+02  0.300E+00    2.29       0.0  T
   2    -13.2195310 -0.280099E-01  0.754E-01    3.60       1.0  T
   3    -13.2206586 -0.112756E-02  0.552E-01    3.43       1.0  T
   4    -13.2209629 -0.304290E-03  0.282E-01    3.49       1.0  T
   5    -13.2209850 -0.221742E-04  0.508E-02    3.49       1.0  T
   6    -13.2209867 -0.164543E-05  0.212E-02    3.49       1.9  T
   7    -13.2209877 -0.963579E-06  0.147E-02    3.48       2.8  T
   8    -13.2209882 -0.515899E-06  0.591E-03    3.48       6.9  T
   9    -13.2209883 -0.790661E-07  0.110E-03    3.48      37.1  T
     SCC iter.                  ...        0 min,  0.001 sec
     gradient                   ...        0 min,  0.001 sec
 * total energy  :   -13.0208033 Eh     change       -0.5953288E+01 Eh
   gradient norm :     3.9903035 Eh/α   predicted    -0.5953312E+01 (   0.00%)
   displ. norm   :     0.0668020 α      lambda       -0.2647000E+00
   maximum displ.:     0.0663073 α      in ANC's #11, #6, #3, ...

........................................................................
.............................. CYCLE    4 ..............................
........................................................................
   1    -13.2174501 -0.132175E+02  0.513E-01    3.29       0.0  T
   2    -13.2183726 -0.922478E-03  0.133E-01    3.47       1.0  T
   3    -13.2183824 -0.979614E-05  0.627E-02    3.49       1.0  T
   4    -13.2183864 -0.407342E-05  0.478E-02    3.48       1.0  T
   5    -13.2183897 -0.326034E-05  0.178E-02    3.49       2.3  T
   6    -13.2183903 -0.617881E-06  0.764E-03    3.48       5.3  T
   7    -13.2183904 -0.109798E-06  0.281E-03    3.48      14.5  T
   8    -13.2183904 -0.219747E-07  0.715E-04    3.48      57.1  T
     SCC iter.                  ...        0 min,  0.001 sec
     gradient                   ...        0 min,  0.001 sec
 * total energy  :   -13.1537985 Eh     change       -0.1329951E+00 Eh
   gradient norm :     0.0256624 Eh/α   predicted    -0.1329406E+00 (  -0.04%)
   displ. norm   :     0.0190407 α      lambda       -0.1307168E-03
   maximum displ.:     0.0156236 α      in ANC's #2, #1, #6, ...

........................................................................
.............................. CYCLE    5 ..............................
........................................................................
   1    -13.2176508 -0.132177E+02  0.301E-02    3.49       0.0  T
   2    -13.2176512 -0.357724E-06  0.177E-02    3.49       2.3  T
   3    -13.2176512  0.466106E-07  0.102E-02    3.49       4.0  T
   4    -13.2176513 -0.181063E-06  0.229E-03    3.49      17.8  T
   5    -13.2176513 -0.428097E-08  0.108E-03    3.49      37.8  T
     SCC iter.                  ...        0 min,  0.000 sec
     gradient                   ...        0 min,  0.001 sec
 * total energy  :   -13.1538346 Eh     change       -0.3611606E-04 Eh
   gradient norm :     0.0377930 Eh/α   predicted    -0.6538298E-04 (  81.04%)
   displ. norm   :     0.0999117 α      lambda       -0.4709797E-03
   maximum displ.:     0.0733568 α      in ANC's #2, #1, #6, ...

........................................................................
.............................. CYCLE    6 ..............................
........................................................................
   1    -13.2141768 -0.132142E+02  0.150E-01    3.51       0.0  T
   2    -13.2141840 -0.720658E-05  0.901E-02    3.49       1.0  T
   3    -13.2141822  0.186713E-05  0.449E-02    3.50       1.0  T
   4    -13.2141865 -0.435651E-05  0.111E-02    3.49       3.7  T
   5    -13.2141866 -0.913167E-07  0.371E-03    3.50      11.0  T
   6    -13.2141866 -0.125766E-07  0.219E-03    3.49      18.7  T
     SCC iter.                  ...        0 min,  0.000 sec
     gradient                   ...        0 min,  0.001 sec
 * total energy  :   -13.1532804 Eh     change        0.5541720E-03 Eh
   gradient norm :     0.1089688 Eh/α   predicted    -0.2378417E-03 (-142.92%)
   displ. norm   :     0.0992783 α      lambda       -0.1712332E-02
   maximum displ.:     0.0939967 α      in ANC's #1, #2, #3, ...

........................................................................
.............................. CYCLE    7 ..............................
........................................................................
   1    -13.2123030 -0.132123E+02  0.133E-01    3.48       0.0  T
   2    -13.2123076 -0.458647E-05  0.812E-02    3.48       1.0  T
   3    -13.2123074  0.149545E-06  0.259E-02    3.48       1.6  T
   4    -13.2123089 -0.149716E-05  0.103E-02    3.48       4.0  T
   5    -13.2123090 -0.106107E-06  0.149E-03    3.48      27.5  T
   6    -13.2123090 -0.187969E-08  0.839E-04    3.48      48.6  T
     SCC iter.                  ...        0 min,  0.000 sec
     gradient                   ...        0 min,  0.001 sec
 * total energy  :   -13.1537817 Eh     change       -0.5012598E-03 Eh
   gradient norm :     0.0910198 Eh/α   predicted    -0.8646041E-03 (  72.49%)
   displ. norm   :     0.3926307 α      lambda       -0.3269969E-02
   maximum displ.:     0.3332301 α      in ANC's #2, #1, #12, ...

........................................................................
.............................. CYCLE    8 ..............................
........................................................................
   1    -13.2064173 -0.132064E+02  0.574E-01    3.37       0.0  T
   2    -13.2064867 -0.693602E-04  0.355E-01    3.35       1.0  T
   3    -13.2065007 -0.139831E-04  0.725E-02    3.36       1.0  T
   4    -13.2065029 -0.218477E-05  0.376E-02    3.35       1.1  T
   5    -13.2065067 -0.382549E-05  0.738E-03    3.36       5.5  T
   6    -13.2065068 -0.718621E-07  0.395E-03    3.36      10.3  T
   7    -13.2065068 -0.226715E-07  0.180E-03    3.36      22.7  T
     SCC iter.                  ...        0 min,  0.000 sec
     gradient                   ...        0 min,  0.001 sec
 * total energy  :   -13.1345410 Eh     change        0.1924066E-01 Eh
   gradient norm :     0.6503518 Eh/α   predicted    -0.1886958E-02 (-109.81%)
   displ. norm   :     0.2992168 α      lambda       -0.4599598E-01
   maximum displ.:     0.2636802 α      in ANC's #2, #1, #12, ...

........................................................................
.............................. CYCLE    9 ..............................
........................................................................
   1    -13.2136069 -0.132136E+02  0.457E-01    3.50       0.0  T
   2    -13.2136477 -0.407532E-04  0.284E-01    3.49       1.0  T
   3    -13.2136547 -0.707703E-05  0.578E-02    3.50       1.0  T
   4    -13.2136581 -0.338176E-05  0.317E-02    3.49       1.3  T
   5    -13.2136603 -0.220131E-05  0.524E-03    3.49       7.8  T
   6    -13.2136603 -0.194399E-07  0.383E-03    3.49      10.7  T
     SCC iter.                  ...        0 min,  0.000 sec
     gradient                   ...        0 min,  0.001 sec
 * total energy  :   -13.1538690 Eh     change       -0.1932804E-01 Eh
   gradient norm :     0.0692963 Eh/α   predicted    -0.2505702E-01 (  29.64%)
   displ. norm   :     0.0329118 α      lambda       -0.5295692E-03
   maximum displ.:     0.0234537 α      in ANC's #2, #1, #3, ...

........................................................................
.............................. CYCLE   10 ..............................
........................................................................
   1    -13.2126473 -0.132126E+02  0.482E-02    3.48       0.0  T
   2    -13.2126479 -0.593161E-06  0.294E-02    3.48       1.4  T
   3    -13.2126479  0.186352E-07  0.963E-03    3.48       4.2  T
   4    -13.2126481 -0.197478E-06  0.387E-03    3.48      10.5  T
   5    -13.2126481 -0.152146E-07  0.104E-03    3.48      39.1  T
     SCC iter.                  ...        0 min,  0.000 sec
     gradient                   ...        0 min,  0.001 sec
 * total energy  :   -13.1541114 Eh     change       -0.2423646E-03 Eh
   gradient norm :     0.0302903 Eh/α   predicted    -0.2650704E-03 (   9.37%)
   displ. norm   :     0.0071588 α      lambda       -0.4263967E-04
   maximum displ.:     0.0049961 α      in ANC's #6, #1, #3, ...

........................................................................
.............................. CYCLE   11 ..............................
........................................................................
   1    -13.2134287 -0.132134E+02  0.115E-02    3.48       0.0  T
   2    -13.2134289 -0.167329E-06  0.603E-03    3.49       6.8  T
   3    -13.2134289 -0.848179E-07  0.409E-03    3.48      10.0  T
   4    -13.2134289 -0.138201E-07  0.965E-04    3.48      42.3  T
     SCC iter.                  ...        0 min,  0.000 sec
     gradient                   ...        0 min,  0.001 sec
 * total energy  :   -13.1541329 Eh     change       -0.2147961E-04 Eh
   gradient norm :     0.0125480 Eh/α   predicted    -0.2132225E-04 (  -0.73%)
   displ. norm   :     0.0042454 α      lambda       -0.1346215E-04
   maximum displ.:     0.0026856 α      in ANC's #2, #3, #1, ...

........................................................................
.............................. CYCLE   12 ..............................
........................................................................
   1    -13.2134327 -0.132134E+02  0.637E-03    3.49       0.0  T
   2    -13.2134327 -0.328087E-07  0.367E-03    3.49      11.1  T
   3    -13.2134327  0.152313E-08  0.179E-03    3.48      22.9  T
   4    -13.2134327 -0.487349E-08  0.613E-04    3.49      66.6  T
     SCC iter.                  ...        0 min,  0.000 sec
     gradient                   ...        0 min,  0.001 sec
 * total energy  :   -13.1541440 Eh     change       -0.1109615E-04 Eh
   gradient norm :     0.0072548 Eh/α   predicted    -0.6730316E-05 ( -39.35%)
   displ. norm   :     0.0126744 α      lambda       -0.3540801E-04
   maximum displ.:     0.0101724 α      in ANC's #3, #2, #6, ...

........................................................................
.............................. CYCLE   13 ..............................
........................................................................
   1    -13.2134314 -0.132134E+02  0.196E-02    3.49       0.0  T
   2    -13.2134319 -0.489147E-06  0.106E-02    3.49       3.9  T
   3    -13.2134319 -0.444320E-08  0.588E-03    3.49       6.9  T
   4    -13.2134319 -0.482494E-07  0.205E-03    3.49      19.9  T
   5    -13.2134319 -0.407640E-08  0.327E-04    3.49     125.0  T
     SCC iter.                  ...        0 min,  0.000 sec
     gradient                   ...        0 min,  0.001 sec
 * total energy  :   -13.1541687 Eh     change       -0.2473763E-04 Eh
   gradient norm :     0.0123150 Eh/α   predicted    -0.1770468E-04 ( -28.43%)
   displ. norm   :     0.0129471 α      lambda       -0.2685177E-04
   maximum displ.:     0.0113982 α      in ANC's #3, #2, #6, ...

........................................................................
.............................. CYCLE   14 ..............................
........................................................................
   1    -13.2134980 -0.132135E+02  0.206E-02    3.49       0.0  T
   2    -13.2134987 -0.705210E-06  0.108E-02    3.49       3.8  T
   3    -13.2134987 -0.502790E-07  0.612E-03    3.49       6.7  T
   4    -13.2134988 -0.496690E-07  0.223E-03    3.49      18.3  T
   5    -13.2134988 -0.307172E-08  0.163E-04    3.49     250.4  T
     SCC iter.                  ...        0 min,  0.000 sec
     gradient                   ...        0 min,  0.001 sec
 * total energy  :   -13.1541893 Eh     change       -0.2054060E-04 Eh
   gradient norm :     0.0168776 Eh/α   predicted    -0.1342832E-04 ( -34.63%)
   displ. norm   :     0.0173310 α      lambda       -0.3402117E-04
   maximum displ.:     0.0156326 α      in ANC's #3, #6, #1, ...

........................................................................
.............................. CYCLE   15 ..............................
........................................................................
   1    -13.2136748 -0.132137E+02  0.286E-02    3.49       0.0  T
   2    -13.2136763 -0.150344E-05  0.152E-02    3.49       2.7  T
   3    -13.2136765 -0.173504E-06  0.852E-03    3.48       4.8  T
   4    -13.2136766 -0.881124E-07  0.312E-03    3.49      13.1  T
   5    -13.2136766 -0.471529E-08  0.299E-04    3.49     136.6  T
   6    -13.2136766 -0.898037E-10  0.140E-04    3.49     290.8  T
     SCC iter.                  ...        0 min,  0.000 sec
     gradient                   ...        0 min,  0.001 sec
 * total energy  :   -13.1542118 Eh     change       -0.2253627E-04 Eh
   gradient norm :     0.0136652 Eh/α   predicted    -0.1701525E-04 ( -24.50%)
   displ. norm   :     0.0071123 α      lambda       -0.1224852E-04
   maximum displ.:     0.0057369 α      in ANC's #3, #6, #2, ...

........................................................................
.............................. CYCLE   16 ..............................
........................................................................
   1    -13.2138351 -0.132138E+02  0.128E-02    3.48       0.0  T
   2    -13.2138353 -0.268846E-06  0.718E-03    3.49       5.7  T
   3    -13.2138354 -0.451131E-07  0.418E-03    3.48       9.8  T
   4    -13.2138354 -0.186442E-07  0.139E-03    3.48      29.4  T
   5    -13.2138354 -0.698877E-09  0.337E-04    3.48     121.0  T
     SCC iter.                  ...        0 min,  0.000 sec
     gradient                   ...        0 min,  0.001 sec
 * total energy  :   -13.1542194 Eh     change       -0.7586431E-05 Eh
   gradient norm :     0.0051958 Eh/α   predicted    -0.6123630E-05 ( -19.28%)
   displ. norm   :     0.0019394 α      lambda       -0.1814203E-05
   maximum displ.:     0.0018184 α      in ANC's #2, #3, #6, ...

........................................................................
.............................. CYCLE   17 ..............................
........................................................................
   1    -13.2138941 -0.132139E+02  0.340E-03    3.48       0.0  T
   2    -13.2138941 -0.307660E-08  0.208E-03    3.48      19.6  T
   3    -13.2138941  0.785100E-09  0.896E-04    3.48      45.6  T
     SCC iter.                  ...        0 min,  0.000 sec
     gradient                   ...        0 min,  0.001 sec
 * total energy  :   -13.1542204 Eh     change       -0.1042979E-05 Eh
   gradient norm :     0.0006469 Eh/α   predicted    -0.9081574E-06 ( -12.93%)
   displ. norm   :     0.0011934 α      lambda       -0.1008308E-06
   maximum displ.:     0.0009133 α      in ANC's #3, #2, #6, ...

   *** GEOMETRY OPTIMIZATION CONVERGED AFTER 17 ITERATIONS ***

------------------------------------------------------------------------
 total energy gain   :        -6.4329472 Eh    -4036.7353 kcal/mol
 total RMSD          :         0.1924712 a0        0.1019 Å
 total power (kW/mol):      -993.5117968 (step)********** (real)
------------------------------------------------------------------------

 ANCopt (total)                0 d,  0 h,  0 min,  0.031 sec
 optimizer setup                ...        0 min,  0.000 sec (  0.179%)
 model hessian                  ...        0 min,  0.000 sec (  0.292%)
 ANC generation                 ...        0 min,  0.000 sec (  0.204%)
 coordinate transformation      ...        0 min,  0.000 sec (  0.225%)
 single point calculation       ...        0 min,  0.029 sec ( 94.823%)
 optimization log               ...        0 min,  0.000 sec (  1.184%)
 hessian update                 ...        0 min,  0.000 sec (  0.176%)
 rational function              ...        0 min,  0.000 sec (  1.368%)

================
 final structure:
================
6
 xtb: 6.2.3 (830e466)
F        -2.69906762414710   -0.16004645987881    0.04805682640960
Cl        1.57989587705940    0.09263347480017   -0.02525233835355
C        -0.79856119634622   -0.04615984807655    0.01452853642605
H        -0.72293475145912   -0.62389008805358   -0.88105844370201
H        -0.69704573537109   -0.52322676935561    0.96488547266326
H        -0.80522656973587    1.02060969056438   -0.04247005344336
 
 Bond Distances (Angstroems)
 ---------------------------
C3-H4=1.0684         C3-H5=1.0682         C3-H6=1.0683         H4-C3=1.0684         H5-C3=1.0682         H6-C3=1.0683         
 C  H  Rav=1.0683 sigma=0.0001  Rmin=1.0682  Rmax=1.0684     3
 
 selected bond angles (degree)
 --------------------
H5-C3-H4=119.84                H6-C3-H4=119.71                H6-C3-H5=119.61                
 
 selected dihedral angles (degree)
 ---------------------------------

 
 CMA Distance (Angstroems)
 ---------------------------
R(CMA):  3.5809
           -------------------------------------------------
          |                Final Singlepoint                |
           -------------------------------------------------

          ...................................................
          :                      SETUP                      :
          :.................................................:
          :  # basis functions                  21          :
          :  # atomic orbitals                  20          :
          :  # shells                           10          :
          :  # electrons                        22          :
          :  max. iterations                   250          :
          :  Hamiltonian                  GFN2-xTB          :
          :  restarted?                      false          :
          :  GBSA solvation                  false          :
          :  PC potential                    false          :
          :  electronic temp.          300.0000000     K    :
          :  accuracy                    1.0000000          :
          :  -> integral cutoff          0.2500000E+02      :
          :  -> integral neglect         0.1000000E-07      :
          :  -> SCF convergence          0.1000000E-05 Eh   :
          :  -> wf. convergence          0.1000000E-03 e    :
          :  Broyden damping             0.4000000          :
          ...................................................

 iter      E             dE          RMSdq      gap      omega  full diag
   1    -13.2138941 -0.132139E+02  0.357E-04    3.48       0.0  T
   2    -13.2138941 -0.514078E-10  0.193E-04    3.48     211.1  T
   3    -13.2138941 -0.635225E-11  0.139E-04    3.48     293.2  T

   *** convergence criteria satisfied after 3 iterations ***

         #    Occupation            Energy/Eh            Energy/eV
      -------------------------------------------------------------
         1        2.0000           -0.8331186             -22.6703
       ...           ...                  ...                  ...
         5        2.0000           -0.3349929              -9.1156
         6        2.0000           -0.2766555              -7.5282
         7        2.0000           -0.2320240              -6.3137
         8        2.0000           -0.2320217              -6.3136
         9        2.0000           -0.2160851              -5.8800
        10        2.0000           -0.2160830              -5.8799
        11        2.0000           -0.2144947              -5.8367 (HOMO)
        12                         -0.0864570              -2.3526 (LUMO)
        13                          0.2667528               7.2587
        14                          0.2769324               7.5357
        15                          0.2769340               7.5358
        16                          0.2777645               7.5584
       ...                                ...                  ...
        20                          0.4398577              11.9691
      -------------------------------------------------------------
                  HL-Gap            0.1280377 Eh            3.4841 eV
             Fermi-level           -0.1504759 Eh           -4.0947 eV

 SCC (total)                   0 d,  0 h,  0 min,  0.002 sec
 SCC setup                      ...        0 min,  0.000 sec (  2.835%)
 Dispersion                     ...        0 min,  0.000 sec (  0.477%)
 integral evaluation            ...        0 min,  0.001 sec ( 40.612%)
 zeroth order Hamiltonian       ...        0 min,  0.000 sec (  0.814%)
 iterations                     ...        0 min,  0.000 sec ( 13.542%)
 molecular gradient             ...        0 min,  0.001 sec ( 37.974%)
 printout                       ...        0 min,  0.000 sec (  2.652%)

         :::::::::::::::::::::::::::::::::::::::::::::::::::::
         ::                     SUMMARY                     ::
         :::::::::::::::::::::::::::::::::::::::::::::::::::::
         :: total energy             -13.154220405066 Eh    ::
         :: gradient norm              0.000644598539 Eh/a0 ::
         :: HOMO-LUMO gap              3.484083581297 eV    ::
         ::.................................................::
         :: SCC energy               -13.213894122610 Eh    ::
         :: -> isotropic ES            0.168681783450 Eh    ::
         :: -> anisotropic ES          0.000254300979 Eh    ::
         :: -> anisotropic XC          0.004617920601 Eh    ::
         :: -> dispersion             -0.001982538738 Eh    ::
         :: repulsion energy           0.059650661882 Eh    ::
         :: add. restraining           0.000023207146 Eh    ::
         :::::::::::::::::::::::::::::::::::::::::::::::::::::

           -------------------------------------------------
          |                Property Printout                |
           -------------------------------------------------

    * Orbital Energies and Occupations

         #    Occupation            Energy/Eh            Energy/eV
      -------------------------------------------------------------
         1        2.0000           -0.8331186             -22.6703
         2        2.0000           -0.5246130             -14.2754
         3        2.0000           -0.4255987             -11.5811
         4        2.0000           -0.3351425              -9.1197
         5        2.0000           -0.3349929              -9.1156
         6        2.0000           -0.2766555              -7.5282
         7        2.0000           -0.2320240              -6.3137
         8        2.0000           -0.2320217              -6.3136
         9        2.0000           -0.2160851              -5.8800
        10        2.0000           -0.2160830              -5.8799
        11        2.0000           -0.2144947              -5.8367 (HOMO)
        12                         -0.0864570              -2.3526 (LUMO)
        13                          0.2667528               7.2587
        14                          0.2769324               7.5357
        15                          0.2769340               7.5358
        16                          0.2777645               7.5584
        17                          0.2777657               7.5584
        18                          0.2913411               7.9278
        19                          0.4387074              11.9378
        20                          0.4398577              11.9691
      -------------------------------------------------------------
                  HL-Gap            0.1280377 Eh            3.4841 eV
             Fermi-level           -0.1504759 Eh           -4.0947 eV

     #   Z        covCN         q      C6AA      α(0)
     1   9 F      0.303    -0.545    15.877     4.655
     2  17 Cl     0.346    -0.746   118.677    16.598
     3   6 C      3.429     0.030    22.927     7.308
     4   1 H      0.927     0.087     1.907     2.159
     5   1 H      0.927     0.087     1.907     2.159
     6   1 H      0.927     0.087     1.909     2.161

 Mol. C6AA /au·bohr⁶  :        560.999176
 Mol. C8AA /au·bohr⁸  :      15996.823815
 Mol. α(0) /au        :         35.040295


Wiberg/Mayer (AO) data.
largest (>0.10) Wiberg bond orders for each atom
          total WBO             WBO to atom ...
     1  F   0.703        C    3 0.585    Cl   2 0.115
     2  Cl  0.444        C    3 0.329    F    1 0.115
     3  C   3.886        H    6 0.991    H    5 0.991    H    4 0.991    F    1 0.585    Cl   2 0.329
     4  H   0.992        C    3 0.991
     5  H   0.992        C    3 0.991
     6  H   0.992        C    3 0.991

molecular dipole:
                 x           y           z       tot (Debye)
 q only:        0.143       0.010      -0.006
   full:        0.203       0.014      -0.007       0.517
molecular quadrupole (traceless):
                xx          xy          yy          xz          yz          zz
 q only:      -20.738      -1.842      10.317       0.535       0.032      10.421
  q+dip:      -22.916      -2.036      11.398       0.592       0.038      11.518
   full:      -21.985      -1.954      10.936       0.568       0.036      11.049

           -------------------------------------------------
          |                Geometry Summary                 |
           -------------------------------------------------

      molecular mass/u    :       69.4858989
   center of mass at/Å    :       -0.1021820      -0.0063095       0.0033664
  moments of inertia/u·Å² :        0.3441356E+01   0.2380992E+03   0.2381041E+03
rotational constants/cm⁻¹ :        0.4898544E+01   0.7080088E-01   0.7079943E-01

 * 3 selected distances

     #   Z        #   Z                                     value/Å
     3   6 C      4   1 H                                 1.0684417 (max)
     3   6 C      5   1 H                                 1.0682118 (min)
     3   6 C      6   1 H                                 1.0683120

 * 1 distinct bonds (by element types)

   Z      Z             #   av. dist./Å        max./Å        min./Å
   1 H    6 C           3     1.0683218     1.0684417     1.0682118


optimized geometry written to: xtbopt.xyz


           -------------------------------------------------
          | TOTAL ENERGY              -13.154220405066 Eh   |
          | GRADIENT NORM               0.000644598539 Eh/α |
          | HOMO-LUMO GAP               3.484083581297 eV   |
           -------------------------------------------------

------------------------------------------------------------------------
 * finished run on 2020/04/08 at 23:04:51.681     
------------------------------------------------------------------------
 total:
 * wall-time:     0 d,  0 h,  0 min,  0.042 sec
 *  cpu-time:     0 d,  0 h,  0 min,  0.042 sec
 * ratio c/w:     0.999 speedup
 SCF:
 * wall-time:     0 d,  0 h,  0 min,  0.003 sec
 *  cpu-time:     0 d,  0 h,  0 min,  0.003 sec
 * ratio c/w:     1.000 speedup
 ANC optimizer:
 * wall-time:     0 d,  0 h,  0 min,  0.033 sec
 *  cpu-time:     0 d,  0 h,  0 min,  0.033 sec
 * ratio c/w:     1.000 speedup

