      -----------------------------------------------------------      
     |                   =====================                   |     
     |                           x T B                           |     
     |                   =====================                   |     
     |                         S. Grimme                         |     
     |          Mulliken Center for Theoretical Chemistry        |     
     |                    University of Bonn                     |     
      -----------------------------------------------------------      

   * xtb version 6.2.3 (830e466) compiled by 'ehlert@majestix' on 2020-03-16

   xtb is free software: you can redistribute it and/or modify it under
   the terms of the GNU Lesser General Public License as published by
   the Free Software Foundation, either version 3 of the License, or
   (at your option) any later version.
   
   xtb is distributed in the hope that it will be useful,
   but WITHOUT ANY WARRANTY; without even the implied warranty of
   MERCHANTABILITY or FITNESS FOR A PARTICULAR PURPOSE.  See the
   GNU Lesser General Public License for more details.
   
   Cite this work as:
   * S. Grimme, C. Bannwarth, P. Shushkov, J. Chem. Theory Comput., 2017,
     13, 1989-2009. DOI: 10.1021/acs.jctc.7b00118
   * C. Bannwarth, S. Ehlert and S. Grimme., J. Chem. Theory Comput., 2019,
     15, 1652-1671. DOI: 10.1021/acs.jctc.8b01176
   * P. Pracht, E. Caldeweyher, S. Ehlert, S. Grimme, ChemRxiv, 2019, preprint.
     DOI: 10.26434/chemrxiv.8326202.v1
   
   for DFT-D4:
   * E. Caldeweyher, C. Bannwarth and S. Grimme, J. Chem. Phys., 2017,
     147, 034112. DOI: 10.1063/1.4993215
   * E. Caldeweyher, S. Ehlert, A. Hansen, H. Neugebauer, S. Spicher,
     C. Bannwarth and S. Grimme, J. Chem. Phys., 2019, 150, 154122.
     DOI: 10.1063/1.5090222
   
   for sTDA-xTB:
   * S. Grimme and C. Bannwarth, J. Chem. Phys., 2016, 145, 054103.
     DOI: 10.1063/1.4959605
   
   in the mass-spec context:
   * V. Asgeirsson, C. Bauer and S. Grimme, Chem. Sci., 2017, 8, 4879.
     DOI: 10.1039/c7sc00601b
   
   for metadynamics refer to:
   * S. Grimme, J. Chem. Theory Comput., 2019, 155, 2847-2862
     DOI: 10.1021/acs.jctc.9b00143
   
   with help from (in alphabetical order)
   C. Bannwarth, F. Bohle, G. Brandenburg, E. Caldeweyher, M. Checinski,
   S. Dohm, S. Ehlert, S. Ehrlich, F. März, H. Neugebauer, J. Pisarek,
   P. Pracht, P. Shushkov, and S. Spicher.
   
 * started run on 2020/04/08 at 23:04:04.636     

           -------------------------------------------------
          |                Calculation Setup                |
           -------------------------------------------------

          program call               : /home/tom/.local/bin/xtb SN2_PES_scan_4-1_xtb.xyz --chrg -1 --opt --input xcontrol_SN2_PES_scan_4-1
          coordinate file            : SN2_PES_scan_4-1_xtb.xyz
          omp threads                :                     1
          number of atoms            :                     6
          number of electrons        :                    22
          charge                     :                    -1
          spin                       :                   0.0
          first test random number   :      0.60597266746111

constraining bond 1 3 to    2.0000000 Å, actual value:    2.4998877 Å
constraining bond 2 3 to    2.2240000 Å, actual value:    1.7802880 Å

molecular fragmentation (1/2 indicates fragments):
122222
# atoms in fragment 1/2:     1     5
 fragment masses (1/2) :       19.00       50.49
CMA distance (Bohr)    :   7.047
constraining FC (au)   : 10.0000
########################################################################
[WARNING] Please study the warnings concerning your input carefully
-2- prog_main: XTBPATH is not set, using XTBHOME instead
-1- prog_main: XTBHOME is not set, using HOME instead
########################################################################
           ------------------------------------------------- 
          |                 G F N 2 - x T B                 |
          | Geometry, Frequencies, Noncovalent interactions |
          |            JCTC 2019 parametrisation            |
           ------------------------------------------------- 
             k(s)              :                1.8500
             k(p)              :                2.2300
             k(d)              :                2.2300
             k(f)              :                2.0000
             kEN (H0ij)        :               -2.0000
             D4 a1             :                0.5200
             D4 a2             :                5.0000
             D4 s6             :                1.0000
             D4 s8             :                2.7000
             D4 s9             :                5.0000
             alphaj            :                2.0000

  Z AO/shell   Hii/eV     exponent
  1     Wed Apr 25 08:07:45 CEST 2018   EN: 2.200 GM2: 0.406  GM3: 0.0800  RAES: 1.40
     1s    -10.707211    1.230000
  6     Wed Apr 25 08:07:45 CEST 2018   EN: 2.550 GM2: 0.538  GM3: 0.1500  RAES: 3.00
     2s    -13.970922    2.096432
     2p    -10.063292    1.800000
  9     Mon Apr 23 13:58:50 CEST 2018   EN: 3.980 GM2: 0.532  GM3: 0.1426  RAES: 2.40
     2s    -23.458179    2.416361
     2p    -15.746583    2.308399
 17     Mon Apr 23 14:09:22 CEST 2018   EN: 3.160 GM2: 0.249  GM3: 0.1495  RAES: 2.50
     3s    -29.278781    2.485265
     3p    -12.673758    2.199650
     3d     -0.240338    2.476089

           ------------------------------------------------- 
          |        Self-Consistent Charge Iterations        |
           ------------------------------------------------- 

          ...................................................
          :                      SETUP                      :
          :.................................................:
          :  # basis functions                  21          :
          :  # atomic orbitals                  20          :
          :  # shells                           10          :
          :  # electrons                        22          :
          :  max. iterations                   250          :
          :  Hamiltonian                  GFN2-xTB          :
          :  restarted?                      false          :
          :  GBSA solvation                  false          :
          :  PC potential                    false          :
          :  electronic temp.          300.0000000     K    :
          :  accuracy                    1.0000000          :
          :  -> integral cutoff          0.2500000E+02      :
          :  -> integral neglect         0.1000000E-07      :
          :  -> SCF convergence          0.1000000E-05 Eh   :
          :  -> wf. convergence          0.1000000E-03 e    :
          :  Broyden damping             0.4000000          :
          ...................................................

 iter      E             dE          RMSdq      gap      omega  full diag
   1    -13.1413178 -0.131413E+02  0.579E+00    5.41       0.0  T
   2    -13.1993328 -0.580150E-01  0.313E+00    3.05       1.0  T
   3    -13.2009910 -0.165816E-02  0.161E+00    2.46       1.0  T
   4    -13.2015783 -0.587367E-03  0.456E-01    1.87       1.0  T
   5    -13.2018271 -0.248752E-03  0.301E-01    2.23       1.0  T
   6    -13.2020405 -0.213392E-03  0.241E-01    2.03       1.0  T
   7    -13.2022401 -0.199622E-03  0.430E-02    2.00       1.0  T
   8    -13.2022420 -0.188225E-05  0.186E-02    1.97       2.2  T
   9    -13.2022428 -0.872721E-06  0.445E-03    1.97       9.2  T
  10    -13.2022429 -0.929751E-07  0.637E-04    1.98      64.0  T
  11    -13.2022429 -0.152865E-08  0.240E-04    1.98     170.1  T

   *** convergence criteria satisfied after 11 iterations ***

         #    Occupation            Energy/Eh            Energy/eV
      -------------------------------------------------------------
         1        2.0000           -0.9148349             -24.8939
       ...           ...                  ...                  ...
         5        2.0000           -0.3457720              -9.4089
         6        2.0000           -0.3355331              -9.1303
         7        2.0000           -0.2720811              -7.4037
         8        2.0000           -0.2720693              -7.4034
         9        2.0000           -0.0836459              -2.2761
        10        2.0000           -0.0819050              -2.2287
        11        2.0000           -0.0819036              -2.2287 (HOMO)
        12                         -0.0091876              -0.2500 (LUMO)
        13                          0.1693317               4.6078
        14                          0.1693362               4.6079
        15                          0.1720985               4.6830
        16                          0.1721021               4.6831
       ...                                ...                  ...
        20                          0.3858750              10.5002
      -------------------------------------------------------------
                  HL-Gap            0.0727160 Eh            1.9787 eV
             Fermi-level           -0.0455456 Eh           -1.2394 eV

 SCC (total)                   0 d,  0 h,  0 min,  0.003 sec
 SCC setup                      ...        0 min,  0.000 sec (  2.324%)
 Dispersion                     ...        0 min,  0.000 sec (  0.497%)
 integral evaluation            ...        0 min,  0.001 sec ( 26.969%)
 zeroth order Hamiltonian       ...        0 min,  0.000 sec (  0.606%)
 iterations                     ...        0 min,  0.001 sec ( 41.114%)
 molecular gradient             ...        0 min,  0.001 sec ( 25.450%)
 printout                       ...        0 min,  0.000 sec (  2.315%)

         :::::::::::::::::::::::::::::::::::::::::::::::::::::
         ::                     SUMMARY                     ::
         :::::::::::::::::::::::::::::::::::::::::::::::::::::
         :: total energy               2.810019602755 Eh    ::
         :: gradient norm             43.721988568544 Eh/a0 ::
         :: HOMO-LUMO gap              1.978702416486 eV    ::
         ::.................................................::
         :: SCC energy               -13.202242939011 Eh    ::
         :: -> isotropic ES            0.250214366754 Eh    ::
         :: -> anisotropic ES         -0.003118186509 Eh    ::
         :: -> anisotropic XC         -0.002370901914 Eh    ::
         :: -> dispersion             -0.002049026432 Eh    ::
         :: repulsion energy           0.057887883366 Eh    ::
         :: add. restraining          15.954374829852 Eh    ::
         :::::::::::::::::::::::::::::::::::::::::::::::::::::

      ----------------------------------------------------------- 
     |                   =====================                   |
     |                        A N C O P T                        |
     |                   =====================                   |
     |               Approximate Normal Coordinate               |
     |                Rational Function Optimizer                |
      ----------------------------------------------------------- 

          ...................................................
          :                      SETUP                      :
          :.................................................:
          :   optimization level            normal          :
          :   max. optcycles                   200          :
          :   ANC micro-cycles                  20          :
          :   degrees of freedom                12          :
          :.................................................:
          :   RF solver                   davidson          :
          :   write xtbopt.log                true          :
          :   linear?                        false          :
          :   energy convergence         0.5000000E-05 Eh   :
          :   grad. convergence          0.1000000E-02 Eh/α :
          :   maximium RF displ.         1.0000000          :
          :   Hlow (freq-cutoff)         0.1000000E-01      :
          :   Hmax (freq-cutoff)         5.0000000          :
          :   S6 in model hess.         20.0000000          :
          ...................................................

generating ANC from model Hessian ...
Using Lindh-Hessian (1995)
 Shifting diagonal of input Hessian by    4.39663184927006     
 Lowest  eigenvalues of input Hessian
    0.010000    0.010563   -0.000000   -0.000000   -0.000000    0.000000
    0.000000    0.000000    4.507947    4.507962    4.525049    4.880390
    4.957496    4.957535    6.621483    6.622052   24.609833   65.270383
 Highest eigenvalues
    4.957496    4.957535    6.621483    6.622052   24.609833   65.270383
 

........................................................................
.............................. CYCLE    1 ..............................
........................................................................
   1    -13.2022429 -0.132022E+02  0.152E-05    1.98       0.0  T
   2    -13.2022429 -0.198952E-12  0.121E-05    1.98    3376.9  T
   3    -13.2022429 -0.200728E-12  0.699E-06    1.98    5837.3  T
     SCC iter.                  ...        0 min,  0.000 sec
     gradient                   ...        0 min,  0.001 sec
 * total energy  :     2.8100196 Eh     change       -0.1479232E-07 Eh
   gradient norm :    43.7219951 Eh/α   predicted     0.0000000E+00 (-100.00%)
   displ. norm   :     0.9444539 α      lambda       -0.4129341E+02
   maximum displ.:     0.9435607 α      in ANC's #9, #12, #6, ...

........................................................................
.............................. CYCLE    2 ..............................
........................................................................
   1    -12.9592067 -0.129592E+02  0.786E+00    1.86       0.0  T
   2    -13.1444208 -0.185214E+00  0.476E+00    5.22       1.0  T
   3    -13.2301014 -0.856807E-01  0.159E+00    3.77       1.0  T
   4    -13.2324394 -0.233803E-02  0.947E-01    3.42       1.0  T
   5    -13.2328804 -0.440942E-03  0.617E-01    3.60       1.0  T
   6    -13.2332847 -0.404283E-03  0.482E-01    3.45       1.0  T
   7    -13.2338986 -0.613911E-03  0.238E-01    3.67       1.0  T
   8    -13.2340824 -0.183850E-03  0.436E-02    3.63       1.0  T
   9    -13.2340858 -0.341072E-05  0.668E-03    3.62       6.1  T
  10    -13.2340859 -0.687505E-07  0.306E-03    3.62      13.3  T
  11    -13.2340859 -0.268220E-07  0.781E-05    3.62     523.1  T
     SCC iter.                  ...        0 min,  0.001 sec
     gradient                   ...        0 min,  0.001 sec
 * total energy  :   -11.7347654 Eh     change       -0.1454478E+02 Eh
   gradient norm :    12.9510679 Eh/α   predicted    -0.3906343E+02 ( 168.57%)
   displ. norm   :     0.2420911 α      lambda       -0.2783679E+01
   maximum displ.:     0.2080165 α      in ANC's #9, #12, #5, ...

........................................................................
.............................. CYCLE    3 ..............................
........................................................................
   1    -13.2223924 -0.132224E+02  0.163E+00    3.86       0.0  T
   2    -13.2308835 -0.849112E-02  0.370E-01    3.69       1.0  T
   3    -13.2309725 -0.889936E-04  0.219E-01    3.66       1.0  T
   4    -13.2310040 -0.314972E-04  0.131E-01    3.64       1.0  T
   5    -13.2310296 -0.256091E-04  0.821E-02    3.66       1.0  T
   6    -13.2310399 -0.103270E-04  0.537E-02    3.62       1.0  T
   7    -13.2310493 -0.936886E-05  0.128E-02    3.64       3.2  T
   8    -13.2310495 -0.218293E-06  0.235E-03    3.64      17.4  T
   9    -13.2310495 -0.134128E-07  0.131E-03    3.64      31.2  T
     SCC iter.                  ...        0 min,  0.001 sec
     gradient                   ...        0 min,  0.001 sec
 * total energy  :   -13.0779857 Eh     change       -0.1343220E+01 Eh
   gradient norm :     1.7279199 Eh/α   predicted    -0.1473414E+01 (   9.69%)
   displ. norm   :     0.2710299 α      lambda       -0.4641154E+00
   maximum displ.:     0.2670181 α      in ANC's #12, #9, #6, ...

........................................................................
.............................. CYCLE    4 ..............................
........................................................................
   1    -13.2224759 -0.132225E+02  0.536E-01    2.75       0.0  T
   2    -13.2229883 -0.512461E-03  0.258E-01    2.68       1.0  T
   3    -13.2230108 -0.224459E-04  0.169E-01    2.65       1.0  T
   4    -13.2230063  0.451344E-05  0.106E-01    2.69       1.0  T
   5    -13.2230373 -0.309982E-04  0.587E-02    2.67       1.0  T
   6    -13.2230456 -0.831264E-05  0.168E-02    2.67       2.4  T
   7    -13.2230461 -0.530116E-06  0.686E-03    2.67       5.9  T
   8    -13.2230462 -0.926436E-07  0.936E-04    2.67      43.6  T
   9    -13.2230462 -0.702359E-09  0.186E-04    2.67     219.9  T
     SCC iter.                  ...        0 min,  0.001 sec
     gradient                   ...        0 min,  0.001 sec
 * total energy  :   -12.7623703 Eh     change        0.3156154E+00 Eh
   gradient norm :     4.3593384 Eh/α   predicted    -0.2491041E+00 (-178.93%)
   displ. norm   :     0.1819026 α      lambda       -0.7459653E+00
   maximum displ.:     0.1781940 α      in ANC's #12, #9, #6, ...

........................................................................
.............................. CYCLE    5 ..............................
........................................................................
   1    -13.2272760 -0.132273E+02  0.358E-01    3.24       0.0  T
   2    -13.2274955 -0.219438E-03  0.166E-01    3.30       1.0  T
   3    -13.2275020 -0.655660E-05  0.981E-02    3.32       1.0  T
   4    -13.2275050 -0.294584E-05  0.527E-02    3.30       1.0  T
   5    -13.2275101 -0.508670E-05  0.348E-02    3.31       1.2  T
   6    -13.2275129 -0.283138E-05  0.113E-02    3.31       3.6  T
   7    -13.2275132 -0.267459E-06  0.203E-03    3.31      20.1  T
   8    -13.2275132 -0.617311E-08  0.775E-04    3.31      52.7  T
     SCC iter.                  ...        0 min,  0.001 sec
     gradient                   ...        0 min,  0.001 sec
 * total energy  :   -13.1480835 Eh     change       -0.3857132E+00 Eh
   gradient norm :     0.1477756 Eh/α   predicted    -0.3853241E+00 (  -0.10%)
   displ. norm   :     0.0127750 α      lambda       -0.1488272E-02
   maximum displ.:     0.0095495 α      in ANC's #6, #12, #5, ...

........................................................................
.............................. CYCLE    6 ..............................
........................................................................
   1    -13.2262261 -0.132262E+02  0.274E-02    3.34       0.0  T
   2    -13.2262271 -0.101497E-05  0.133E-02    3.33       3.1  T
   3    -13.2262276 -0.490623E-06  0.914E-03    3.34       4.5  T
   4    -13.2262277 -0.881875E-07  0.349E-03    3.33      11.7  T
   5    -13.2262277 -0.137682E-07  0.273E-03    3.33      15.0  T
     SCC iter.                  ...        0 min,  0.000 sec
     gradient                   ...        0 min,  0.001 sec
 * total energy  :   -13.1490725 Eh     change       -0.9890321E-03 Eh
   gradient norm :     0.0460761 Eh/α   predicted    -0.7442583E-03 ( -24.75%)
   displ. norm   :     0.0363831 α      lambda       -0.8747950E-03
   maximum displ.:     0.0309089 α      in ANC's #2, #6, #5, ...

........................................................................
.............................. CYCLE    7 ..............................
........................................................................
   1    -13.2237175 -0.132237E+02  0.645E-02    3.35       0.0  T
   2    -13.2237201 -0.254295E-05  0.362E-02    3.34       1.1  T
   3    -13.2237206 -0.514109E-06  0.242E-02    3.35       1.7  T
   4    -13.2237213 -0.782828E-06  0.584E-03    3.34       7.0  T
   5    -13.2237214 -0.251875E-07  0.299E-03    3.34      13.6  T
     SCC iter.                  ...        0 min,  0.000 sec
     gradient                   ...        0 min,  0.001 sec
 * total energy  :   -13.1496505 Eh     change       -0.5780095E-03 Eh
   gradient norm :     0.0698437 Eh/α   predicted    -0.4379768E-03 ( -24.23%)
   displ. norm   :     0.5053863 α      lambda       -0.1120439E-01
   maximum displ.:     0.4345637 α      in ANC's #2, #6, #5, ...

........................................................................
.............................. CYCLE    8 ..............................
........................................................................
   1    -13.1776618 -0.131777E+02  0.897E-01    3.42       0.0  T
   2    -13.1782796 -0.617806E-03  0.531E-01    3.24       1.0  T
   3    -13.1785540 -0.274445E-03  0.362E-01    3.41       1.0  T
   4    -13.1787374 -0.183371E-03  0.761E-02    3.34       1.0  T
   5    -13.1787397 -0.230188E-05  0.356E-02    3.35       1.1  T
   6    -13.1787410 -0.134099E-05  0.205E-02    3.34       2.0  T
   7    -13.1787422 -0.112641E-05  0.611E-03    3.34       6.7  T
   8    -13.1787422 -0.549772E-07  0.154E-03    3.34      26.4  T
   9    -13.1787422 -0.678084E-08  0.581E-04    3.34      70.2  T
     SCC iter.                  ...        0 min,  0.001 sec
     gradient                   ...        0 min,  0.001 sec
 * total energy  :   -13.1243683 Eh     change        0.2528218E-01 Eh
   gradient norm :     0.5732850 Eh/α   predicted    -0.7033110E-02 (-127.82%)
   displ. norm   :     0.3546592 α      lambda       -0.4095500E-01
   maximum displ.:     0.3192418 α      in ANC's #2, #6, #5, ...

........................................................................
.............................. CYCLE    9 ..............................
........................................................................
   1    -13.2076510 -0.132077E+02  0.653E-01    3.35       0.0  T
   2    -13.2078421 -0.191051E-03  0.360E-01    3.40       1.0  T
   3    -13.2078224  0.197065E-04  0.228E-01    3.31       1.0  T
   4    -13.2079104 -0.880793E-04  0.517E-02    3.37       1.0  T
   5    -13.2079125 -0.205922E-05  0.208E-02    3.36       2.0  T
   6    -13.2079129 -0.387116E-06  0.955E-03    3.36       4.3  T
   7    -13.2079131 -0.229475E-06  0.327E-03    3.36      12.5  T
   8    -13.2079131 -0.186210E-07  0.650E-04    3.36      62.8  T
     SCC iter.                  ...        0 min,  0.001 sec
     gradient                   ...        0 min,  0.001 sec
 * total energy  :   -13.1488607 Eh     change       -0.2449233E-01 Eh
   gradient norm :     0.2552889 Eh/α   predicted    -0.2305316E-01 (  -5.88%)
   displ. norm   :     0.4942764 α      lambda       -0.1353529E-01
   maximum displ.:     0.4207051 α      in ANC's #1, #2, #6, ...

........................................................................
.............................. CYCLE   10 ..............................
........................................................................
   1    -13.2175184 -0.132175E+02  0.945E-01    3.09       0.0  T
   2    -13.2177739 -0.255573E-03  0.551E-01    3.23       1.0  T
   3    -13.2176590  0.114891E-03  0.316E-01    3.09       1.0  T
   4    -13.2179039 -0.244825E-03  0.761E-02    3.18       1.0  T
   5    -13.2179075 -0.362780E-05  0.246E-02    3.18       1.7  T
   6    -13.2179081 -0.591327E-06  0.180E-02    3.18       2.3  T
   7    -13.2179089 -0.865415E-06  0.575E-03    3.18       7.1  T
   8    -13.2179090 -0.572881E-07  0.722E-04    3.18      56.6  T
     SCC iter.                  ...        0 min,  0.001 sec
     gradient                   ...        0 min,  0.001 sec
 * total energy  :   -13.0991113 Eh     change        0.4974943E-01 Eh
   gradient norm :     1.0571674 Eh/α   predicted    -0.8421066E-02 (-116.93%)
   displ. norm   :     0.3949443 α      lambda       -0.1380945E+00
   maximum displ.:     0.3542975 α      in ANC's #1, #2, #6, ...

........................................................................
.............................. CYCLE   11 ..............................
........................................................................
   1    -13.2144190 -0.132144E+02  0.775E-01    3.43       0.0  T
   2    -13.2146646 -0.245607E-03  0.484E-01    3.29       1.0  T
   3    -13.2146321  0.324671E-04  0.271E-01    3.41       1.0  T
   4    -13.2147870 -0.154892E-03  0.611E-02    3.34       1.0  T
   5    -13.2147890 -0.202833E-05  0.187E-02    3.34       2.2  T
   6    -13.2147894 -0.352536E-06  0.144E-02    3.34       2.8  T
   7    -13.2147900 -0.569354E-06  0.379E-03    3.34      10.8  T
   8    -13.2147900 -0.206816E-07  0.611E-04    3.34      66.8  T
     SCC iter.                  ...        0 min,  0.001 sec
     gradient                   ...        0 min,  0.001 sec
 * total energy  :   -13.1511520 Eh     change       -0.5204071E-01 Eh
   gradient norm :     0.0959815 Eh/α   predicted    -0.7981741E-01 (  53.37%)
   displ. norm   :     0.1323514 α      lambda       -0.1290873E-02
   maximum displ.:     0.1058220 α      in ANC's #1, #2, #6, ...

........................................................................
.............................. CYCLE   12 ..............................
........................................................................
   1    -13.2206578 -0.132207E+02  0.259E-01    3.27       0.0  T
   2    -13.2206852 -0.274764E-04  0.153E-01    3.32       1.0  T
   3    -13.2206834  0.180486E-05  0.964E-02    3.28       1.0  T
   4    -13.2207005 -0.170373E-04  0.206E-02    3.30       2.0  T
   5    -13.2207007 -0.279264E-06  0.799E-03    3.30       5.1  T
   6    -13.2207008 -0.695401E-07  0.618E-03    3.30       6.6  T
   7    -13.2207009 -0.109810E-06  0.129E-03    3.30      31.5  T
   8    -13.2207009 -0.191937E-08  0.191E-04    3.30     213.9  T
     SCC iter.                  ...        0 min,  0.001 sec
     gradient                   ...        0 min,  0.001 sec
 * total energy  :   -13.1475453 Eh     change        0.3606688E-02 Eh
   gradient norm :     0.2557572 Eh/α   predicted    -0.6567478E-03 (-118.21%)
   displ. norm   :     0.1196657 α      lambda       -0.8650975E-02
   maximum displ.:     0.0910759 α      in ANC's #1, #6, #2, ...

........................................................................
.............................. CYCLE   13 ..............................
........................................................................
   1    -13.2131009 -0.132131E+02  0.231E-01    3.37       0.0  T
   2    -13.2131326 -0.317423E-04  0.137E-01    3.32       1.0  T
   3    -13.2131413 -0.868527E-05  0.906E-02    3.36       1.0  T
   4    -13.2131521 -0.108399E-04  0.186E-02    3.34       2.2  T
   5    -13.2131524 -0.263669E-06  0.780E-03    3.34       5.2  T
   6    -13.2131525 -0.106654E-06  0.487E-03    3.34       8.4  T
   7    -13.2131526 -0.685049E-07  0.115E-03    3.34      35.4  T
     SCC iter.                  ...        0 min,  0.001 sec
     gradient                   ...        0 min,  0.001 sec
 * total energy  :   -13.1514381 Eh     change       -0.3892792E-02 Eh
   gradient norm :     0.0391854 Eh/α   predicted    -0.4387437E-02 (  12.71%)
   displ. norm   :     0.0057066 α      lambda       -0.6168323E-04
   maximum displ.:     0.0048858 α      in ANC's #6, #5, #1, ...

........................................................................
.............................. CYCLE   14 ..............................
........................................................................
   1    -13.2123987 -0.132124E+02  0.959E-03    3.34       0.0  T
   2    -13.2123988 -0.111781E-06  0.462E-03    3.33       8.8  T
   3    -13.2123989 -0.718227E-07  0.323E-03    3.34      12.6  T
     SCC iter.                  ...        0 min,  0.000 sec
     gradient                   ...        0 min,  0.001 sec
 * total energy  :   -13.1514861 Eh     change       -0.4802363E-04 Eh
   gradient norm :     0.0208732 Eh/α   predicted    -0.3084250E-04 ( -35.78%)
   displ. norm   :     0.0079667 α      lambda       -0.4639298E-04
   maximum displ.:     0.0070158 α      in ANC's #6, #5, #1, ...

........................................................................
.............................. CYCLE   15 ..............................
........................................................................
   1    -13.2113380 -0.132113E+02  0.133E-02    3.33       0.0  T
   2    -13.2113382 -0.229067E-06  0.647E-03    3.33       6.3  T
   3    -13.2113384 -0.153382E-06  0.432E-03    3.33       9.5  T
   4    -13.2113384 -0.162284E-07  0.783E-04    3.33      52.1  T
     SCC iter.                  ...        0 min,  0.000 sec
     gradient                   ...        0 min,  0.001 sec
 * total energy  :   -13.1515101 Eh     change       -0.2398311E-04 Eh
   gradient norm :     0.0023760 Eh/α   predicted    -0.2319678E-04 (  -3.28%)
   displ. norm   :     0.0008151 α      lambda       -0.1001771E-05
   maximum displ.:     0.0006038 α      in ANC's #2, #6, #5, ...

........................................................................
.............................. CYCLE   16 ..............................
........................................................................
   1    -13.2112911 -0.132113E+02  0.150E-03    3.33       0.0  T
   2    -13.2112911 -0.179060E-08  0.923E-04    3.33      44.2  T
   3    -13.2112911 -0.498343E-09  0.630E-04    3.33      64.8  T
     SCC iter.                  ...        0 min,  0.000 sec
     gradient                   ...        0 min,  0.001 sec
 * total energy  :   -13.1515109 Eh     change       -0.8714951E-06 Eh
   gradient norm :     0.0021682 Eh/α   predicted    -0.4997588E-06 ( -42.66%)
   displ. norm   :     0.0035688 α      lambda       -0.4930398E-05
   maximum displ.:     0.0020486 α      in ANC's #2, #6, #5, ...

........................................................................
.............................. CYCLE   17 ..............................
........................................................................
   1    -13.2111810 -0.132112E+02  0.610E-03    3.33       0.0  T
   2    -13.2111811 -0.341130E-07  0.338E-03    3.33      12.1  T
   3    -13.2111811 -0.219011E-08  0.227E-03    3.33      18.0  T
   4    -13.2111811 -0.825044E-08  0.597E-04    3.33      68.3  T
   5    -13.2111811 -0.811937E-10  0.243E-04    3.33     168.1  T
     SCC iter.                  ...        0 min,  0.000 sec
     gradient                   ...        0 min,  0.001 sec
 * total energy  :   -13.1515143 Eh     change       -0.3400465E-05 Eh
   gradient norm :     0.0027338 Eh/α   predicted    -0.2466037E-05 ( -27.48%)
   displ. norm   :     0.0036449 α      lambda       -0.3779686E-05
   maximum displ.:     0.0021940 α      in ANC's #5, #1, #6, ...

........................................................................
.............................. CYCLE   18 ..............................
........................................................................
   1    -13.2111513 -0.132112E+02  0.565E-03    3.33       0.0  T
   2    -13.2111514 -0.390452E-07  0.282E-03    3.33      14.5  T
   3    -13.2111514 -0.434239E-09  0.184E-03    3.33      22.2  T
   4    -13.2111514 -0.527723E-08  0.575E-04    3.33      71.0  T
   5    -13.2111514 -0.180346E-09  0.174E-04    3.33     234.2  T
     SCC iter.                  ...        0 min,  0.000 sec
     gradient                   ...        0 min,  0.001 sec
 * total energy  :   -13.1515174 Eh     change       -0.3082467E-05 Eh
   gradient norm :     0.0038216 Eh/α   predicted    -0.1889094E-05 ( -38.71%)
   displ. norm   :     0.0091127 α      lambda       -0.8668307E-05
   maximum displ.:     0.0056107 α      in ANC's #5, #1, #6, ...

........................................................................
.............................. CYCLE   19 ..............................
........................................................................
   1    -13.2111707 -0.132112E+02  0.138E-02    3.33       0.0  T
   2    -13.2111709 -0.231503E-06  0.674E-03    3.33       6.1  T
   3    -13.2111709  0.438165E-08  0.407E-03    3.33      10.0  T
   4    -13.2111709 -0.234097E-07  0.133E-03    3.33      30.6  T
   5    -13.2111709 -0.213515E-08  0.309E-04    3.33     132.3  T
   6    -13.2111709 -0.151299E-09  0.137E-04    3.33     298.6  T
     SCC iter.                  ...        0 min,  0.000 sec
     gradient                   ...        0 min,  0.001 sec
 * total energy  :   -13.1515234 Eh     change       -0.5974244E-05 Eh
   gradient norm :     0.0045323 Eh/α   predicted    -0.4334048E-05 ( -27.45%)
   displ. norm   :     0.0068884 α      lambda       -0.4918208E-05
   maximum displ.:     0.0040441 α      in ANC's #1, #5, #2, ...

........................................................................
.............................. CYCLE   20 ..............................
........................................................................
   1    -13.2112532 -0.132113E+02  0.106E-02    3.33       0.0  T
   2    -13.2112533 -0.117656E-06  0.533E-03    3.33       7.7  T
   3    -13.2112533  0.308089E-08  0.272E-03    3.33      15.0  T
   4    -13.2112533 -0.636903E-08  0.100E-03    3.33      40.7  T
     SCC iter.                  ...        0 min,  0.000 sec
     gradient                   ...        0 min,  0.001 sec
 * total energy  :   -13.1515267 Eh     change       -0.3307830E-05 Eh
   gradient norm :     0.0028678 Eh/α   predicted    -0.2459067E-05 ( -25.66%)
   displ. norm   :     0.0028323 α      lambda       -0.1696181E-05
   maximum displ.:     0.0020314 α      in ANC's #2, #1, #5, ...
 * RMSD in coord.:     0.3046004 α      energy gain  -0.1596155E+02 Eh

generating ANC from model Hessian ...
Using Lindh-Hessian (1995)
 Shifting diagonal of input Hessian by   1.227029236549650E-002
 Lowest  eigenvalues of input Hessian
    0.010000    0.010819   -0.000000   -0.000000    0.000000    0.000000
    0.000000    0.000000    0.024100    0.024176    0.033903    0.181638
    0.181697    0.449649    1.283122    1.283395   20.081228   60.263190
 Highest eigenvalues
    0.181697    0.449649    1.283122    1.283395   20.081228   60.263190
 

........................................................................
.............................. CYCLE   21 ..............................
........................................................................
   1    -13.2113275 -0.132113E+02  0.476E-03    3.33       0.0  T
   2    -13.2113275 -0.148054E-07  0.262E-03    3.33      15.6  T
   3    -13.2113275 -0.810729E-09  0.924E-04    3.33      44.2  T
   4    -13.2113275 -0.319194E-10  0.245E-04    3.33     166.4  T
     SCC iter.                  ...        0 min,  0.000 sec
     gradient                   ...        0 min,  0.001 sec
 * total energy  :   -13.1515277 Eh     change       -0.9992733E-06 Eh
   gradient norm :     0.0008877 Eh/α   predicted     0.0000000E+00 (-100.00%)
   displ. norm   :     0.0242137 α      lambda       -0.5561089E-05
   maximum displ.:     0.0194823 α      in ANC's #2, #5, #4, ...

   *** GEOMETRY OPTIMIZATION CONVERGED AFTER 21 ITERATIONS ***

------------------------------------------------------------------------
 total energy gain   :       -15.9615473 Eh   -10016.0222 kcal/mol
 total RMSD          :         0.3046004 a0        0.1612 Å
 total power (kW/mol):     -1995.5731769 (step)********** (real)
------------------------------------------------------------------------

 ANCopt (total)                0 d,  0 h,  0 min,  0.040 sec
 optimizer setup                ...        0 min,  0.000 sec (  0.145%)
 model hessian                  ...        0 min,  0.000 sec (  0.427%)
 ANC generation                 ...        0 min,  0.000 sec (  0.315%)
 coordinate transformation      ...        0 min,  0.000 sec (  0.220%)
 single point calculation       ...        0 min,  0.038 sec ( 94.822%)
 optimization log               ...        0 min,  0.000 sec (  1.147%)
 hessian update                 ...        0 min,  0.000 sec (  0.168%)
 rational function              ...        0 min,  0.001 sec (  1.307%)

================
 final structure:
================
6
 xtb: 6.2.3 (830e466)
F        -2.70140825689280   -0.15760231028446    0.05057551194017
Cl        1.51403426662682    0.08967231361459   -0.02255653555961
C        -0.70574442915460   -0.04047414808944    0.01213251438020
H        -0.72964230346217   -0.62608944055872   -0.88043552737594
H        -0.70535384298682   -0.52659138378853    0.96302555865201
H        -0.81483543413043    1.02100496910656   -0.04404152203683
 
 Bond Distances (Angstroems)
 ---------------------------
Cl2-C3=2.2239        C3-Cl2=2.2239        C3-H4=1.0678         C3-H5=1.0679         C3-H6=1.0685         H4-C3=1.0678         
H5-C3=1.0679         H6-C3=1.0685         
 C  H  Rav=1.0681 sigma=0.0003  Rmin=1.0678  Rmax=1.0685     3
 Cl C  Rav=2.2239 sigma=0.0000  Rmin=2.2239  Rmax=2.2239     1
 
 selected bond angles (degree)
 --------------------
H4-C3-Cl2= 92.37               H5-C3-Cl2= 92.30               H5-C3-H4=119.65                H6-C3-Cl2= 92.46               
H6-C3-H4=119.91                H6-C3-H5=119.94                
 
 selected dihedral angles (degree)
 ---------------------------------

 
 CMA Distance (Angstroems)
 ---------------------------
R(CMA):  3.5584
           -------------------------------------------------
          |                Final Singlepoint                |
           -------------------------------------------------

          ...................................................
          :                      SETUP                      :
          :.................................................:
          :  # basis functions                  21          :
          :  # atomic orbitals                  20          :
          :  # shells                           10          :
          :  # electrons                        22          :
          :  max. iterations                   250          :
          :  Hamiltonian                  GFN2-xTB          :
          :  restarted?                      false          :
          :  GBSA solvation                  false          :
          :  PC potential                    false          :
          :  electronic temp.          300.0000000     K    :
          :  accuracy                    1.0000000          :
          :  -> integral cutoff          0.2500000E+02      :
          :  -> integral neglect         0.1000000E-07      :
          :  -> SCF convergence          0.1000000E-05 Eh   :
          :  -> wf. convergence          0.1000000E-03 e    :
          :  Broyden damping             0.4000000          :
          ...................................................

 iter      E             dE          RMSdq      gap      omega  full diag
   1    -13.2113275 -0.132113E+02  0.153E-04    3.33       0.0  T
   2    -13.2113275 -0.333120E-10  0.909E-05    3.33     449.1  T
   3    -13.2113275 -0.210036E-10  0.709E-05    3.33     576.0  T

   *** convergence criteria satisfied after 3 iterations ***

         #    Occupation            Energy/Eh            Energy/eV
      -------------------------------------------------------------
         1        2.0000           -0.8511746             -23.1616
       ...           ...                  ...                  ...
         5        2.0000           -0.3281912              -8.9305
         6        2.0000           -0.2698720              -7.3436
         7        2.0000           -0.2280007              -6.2042
         8        2.0000           -0.2279906              -6.2039
         9        2.0000           -0.1998315              -5.4377
        10        2.0000           -0.1970687              -5.3625
        11        2.0000           -0.1970623              -5.3623 (HOMO)
        12                         -0.0748112              -2.0357 (LUMO)
        13                          0.2525571               6.8724
        14                          0.2525890               6.8733
        15                          0.2526246               6.8743
        16                          0.2529365               6.8828
       ...                                ...                  ...
        20                          0.4469713              12.1627
      -------------------------------------------------------------
                  HL-Gap            0.1222510 Eh            3.3266 eV
             Fermi-level           -0.1359367 Eh           -3.6990 eV

 SCC (total)                   0 d,  0 h,  0 min,  0.002 sec
 SCC setup                      ...        0 min,  0.000 sec (  2.593%)
 Dispersion                     ...        0 min,  0.000 sec (  0.384%)
 integral evaluation            ...        0 min,  0.001 sec ( 39.119%)
 zeroth order Hamiltonian       ...        0 min,  0.000 sec (  1.667%)
 iterations                     ...        0 min,  0.000 sec ( 14.698%)
 molecular gradient             ...        0 min,  0.001 sec ( 37.783%)
 printout                       ...        0 min,  0.000 sec (  2.606%)

         :::::::::::::::::::::::::::::::::::::::::::::::::::::
         ::                     SUMMARY                     ::
         :::::::::::::::::::::::::::::::::::::::::::::::::::::
         :: total energy             -13.151527700414 Eh    ::
         :: gradient norm              0.000888620358 Eh/a0 ::
         :: HOMO-LUMO gap              3.326620100082 eV    ::
         ::.................................................::
         :: SCC energy               -13.211327507855 Eh    ::
         :: -> isotropic ES            0.176729849206 Eh    ::
         :: -> anisotropic ES          0.000700742205 Eh    ::
         :: -> anisotropic XC          0.004242967411 Eh    ::
         :: -> dispersion             -0.002017847959 Eh    ::
         :: repulsion energy           0.059789133804 Eh    ::
         :: add. restraining           0.000010806735 Eh    ::
         :::::::::::::::::::::::::::::::::::::::::::::::::::::

           -------------------------------------------------
          |                Property Printout                |
           -------------------------------------------------

    * Orbital Energies and Occupations

         #    Occupation            Energy/Eh            Energy/eV
      -------------------------------------------------------------
         1        2.0000           -0.8511746             -23.1616
         2        2.0000           -0.4854051             -13.2085
         3        2.0000           -0.4184682             -11.3871
         4        2.0000           -0.3283901              -8.9359
         5        2.0000           -0.3281912              -8.9305
         6        2.0000           -0.2698720              -7.3436
         7        2.0000           -0.2280007              -6.2042
         8        2.0000           -0.2279906              -6.2039
         9        2.0000           -0.1998315              -5.4377
        10        2.0000           -0.1970687              -5.3625
        11        2.0000           -0.1970623              -5.3623 (HOMO)
        12                         -0.0748112              -2.0357 (LUMO)
        13                          0.2525571               6.8724
        14                          0.2525890               6.8733
        15                          0.2526246               6.8743
        16                          0.2529365               6.8828
        17                          0.2529400               6.8828
        18                          0.2930797               7.9751
        19                          0.4460960              12.1389
        20                          0.4469713              12.1627
      -------------------------------------------------------------
                  HL-Gap            0.1222510 Eh            3.3266 eV
             Fermi-level           -0.1359367 Eh           -3.6990 eV

     #   Z        covCN         q      C6AA      α(0)
     1   9 F      0.158    -0.626    17.209     4.835
     2  17 Cl     0.599    -0.640   119.756    16.729
     3   6 C      3.537     0.025    21.275     6.766
     4   1 H      0.927     0.080     1.977     2.198
     5   1 H      0.927     0.081     1.972     2.196
     6   1 H      0.927     0.081     1.973     2.196

 Mol. C6AA /au·bohr⁶  :        565.851683
 Mol. C8AA /au·bohr⁸  :      16064.254779
 Mol. α(0) /au        :         34.920810


Wiberg/Mayer (AO) data.
largest (>0.10) Wiberg bond orders for each atom
          total WBO             WBO to atom ...
     1  F   0.608        C    3 0.472    Cl   2 0.135
     2  Cl  0.594        C    3 0.458    F    1 0.135
     3  C   3.906        H    4 0.992    H    5 0.992    H    6 0.992    F    1 0.472    Cl   2 0.458
     4  H   0.994        C    3 0.992
     5  H   0.993        C    3 0.992
     6  H   0.994        C    3 0.992

molecular dipole:
                 x           y           z       tot (Debye)
 q only:        0.987       0.056      -0.025
   full:        0.928       0.053      -0.025       2.364
molecular quadrupole (traceless):
                xx          xy          yy          xz          yz          zz
 q only:      -21.470      -1.891      10.686       0.572       0.032      10.783
  q+dip:      -23.889      -2.106      11.897       0.635       0.035      11.992
   full:      -22.890      -2.016      11.397       0.611       0.034      11.493

           -------------------------------------------------
          |                Geometry Summary                 |
           -------------------------------------------------

      molecular mass/u    :       69.4858989
   center of mass at/Å    :       -0.1207394      -0.0062443       0.0049756
  moments of inertia/u·Å² :        0.3443894E+01   0.2291464E+03   0.2291541E+03
rotational constants/cm⁻¹ :        0.4894933E+01   0.7356707E-01   0.7356460E-01

 * 3 selected distances

     #   Z        #   Z                                     value/Å
     3   6 C      4   1 H                                 1.0677987 (min)
     3   6 C      5   1 H                                 1.0679456
     3   6 C      6   1 H                                 1.0685477 (max)

 * 1 distinct bonds (by element types)

   Z      Z             #   av. dist./Å        max./Å        min./Å
   1 H    6 C           3     1.0680973     1.0685477     1.0677987


optimized geometry written to: xtbopt.xyz


           -------------------------------------------------
          | TOTAL ENERGY              -13.151527700414 Eh   |
          | GRADIENT NORM               0.000888620358 Eh/α |
          | HOMO-LUMO GAP               3.326620100082 eV   |
           -------------------------------------------------

------------------------------------------------------------------------
 * finished run on 2020/04/08 at 23:04:04.689     
------------------------------------------------------------------------
 total:
 * wall-time:     0 d,  0 h,  0 min,  0.052 sec
 *  cpu-time:     0 d,  0 h,  0 min,  0.052 sec
 * ratio c/w:     0.999 speedup
 SCF:
 * wall-time:     0 d,  0 h,  0 min,  0.003 sec
 *  cpu-time:     0 d,  0 h,  0 min,  0.003 sec
 * ratio c/w:     0.999 speedup
 ANC optimizer:
 * wall-time:     0 d,  0 h,  0 min,  0.042 sec
 *  cpu-time:     0 d,  0 h,  0 min,  0.042 sec
 * ratio c/w:     1.000 speedup

