      -----------------------------------------------------------      
     |                   =====================                   |     
     |                           x T B                           |     
     |                   =====================                   |     
     |                         S. Grimme                         |     
     |          Mulliken Center for Theoretical Chemistry        |     
     |                    University of Bonn                     |     
      -----------------------------------------------------------      

   * xtb version 6.2.3 (830e466) compiled by 'ehlert@majestix' on 2020-03-16

   xtb is free software: you can redistribute it and/or modify it under
   the terms of the GNU Lesser General Public License as published by
   the Free Software Foundation, either version 3 of the License, or
   (at your option) any later version.
   
   xtb is distributed in the hope that it will be useful,
   but WITHOUT ANY WARRANTY; without even the implied warranty of
   MERCHANTABILITY or FITNESS FOR A PARTICULAR PURPOSE.  See the
   GNU Lesser General Public License for more details.
   
   Cite this work as:
   * S. Grimme, C. Bannwarth, P. Shushkov, J. Chem. Theory Comput., 2017,
     13, 1989-2009. DOI: 10.1021/acs.jctc.7b00118
   * C. Bannwarth, S. Ehlert and S. Grimme., J. Chem. Theory Comput., 2019,
     15, 1652-1671. DOI: 10.1021/acs.jctc.8b01176
   * P. Pracht, E. Caldeweyher, S. Ehlert, S. Grimme, ChemRxiv, 2019, preprint.
     DOI: 10.26434/chemrxiv.8326202.v1
   
   for DFT-D4:
   * E. Caldeweyher, C. Bannwarth and S. Grimme, J. Chem. Phys., 2017,
     147, 034112. DOI: 10.1063/1.4993215
   * E. Caldeweyher, S. Ehlert, A. Hansen, H. Neugebauer, S. Spicher,
     C. Bannwarth and S. Grimme, J. Chem. Phys., 2019, 150, 154122.
     DOI: 10.1063/1.5090222
   
   for sTDA-xTB:
   * S. Grimme and C. Bannwarth, J. Chem. Phys., 2016, 145, 054103.
     DOI: 10.1063/1.4959605
   
   in the mass-spec context:
   * V. Asgeirsson, C. Bauer and S. Grimme, Chem. Sci., 2017, 8, 4879.
     DOI: 10.1039/c7sc00601b
   
   for metadynamics refer to:
   * S. Grimme, J. Chem. Theory Comput., 2019, 155, 2847-2862
     DOI: 10.1021/acs.jctc.9b00143
   
   with help from (in alphabetical order)
   C. Bannwarth, F. Bohle, G. Brandenburg, E. Caldeweyher, M. Checinski,
   S. Dohm, S. Ehlert, S. Ehrlich, F. März, H. Neugebauer, J. Pisarek,
   P. Pracht, P. Shushkov, and S. Spicher.
   
 * started run on 2020/04/08 at 23:04:01.786     

           -------------------------------------------------
          |                Calculation Setup                |
           -------------------------------------------------

          program call               : /home/tom/.local/bin/xtb SN2_PES_scan_0-5_xtb.xyz --chrg -1 --opt --input xcontrol_SN2_PES_scan_0-5
          coordinate file            : SN2_PES_scan_0-5_xtb.xyz
          omp threads                :                     1
          number of atoms            :                     6
          number of electrons        :                    22
          charge                     :                    -1
          spin                       :                   0.0
          first test random number   :      0.34100885222934

constraining bond 1 3 to    4.0000000 Å, actual value:    4.0000125 Å
constraining bond 2 3 to    4.0000000 Å, actual value:    3.5558337 Å

molecular fragmentation (1/2 indicates fragments):
122222
# atoms in fragment 1/2:     1     5
 fragment masses (1/2) :       19.00       50.49
CMA distance (Bohr)    :  12.279
constraining FC (au)   : 10.0000
########################################################################
[WARNING] Please study the warnings concerning your input carefully
-2- prog_main: XTBPATH is not set, using XTBHOME instead
-1- prog_main: XTBHOME is not set, using HOME instead
########################################################################
           ------------------------------------------------- 
          |                 G F N 2 - x T B                 |
          | Geometry, Frequencies, Noncovalent interactions |
          |            JCTC 2019 parametrisation            |
           ------------------------------------------------- 
             k(s)              :                1.8500
             k(p)              :                2.2300
             k(d)              :                2.2300
             k(f)              :                2.0000
             kEN (H0ij)        :               -2.0000
             D4 a1             :                0.5200
             D4 a2             :                5.0000
             D4 s6             :                1.0000
             D4 s8             :                2.7000
             D4 s9             :                5.0000
             alphaj            :                2.0000

  Z AO/shell   Hii/eV     exponent
  1     Wed Apr 25 08:07:45 CEST 2018   EN: 2.200 GM2: 0.406  GM3: 0.0800  RAES: 1.40
     1s    -10.707211    1.230000
  6     Wed Apr 25 08:07:45 CEST 2018   EN: 2.550 GM2: 0.538  GM3: 0.1500  RAES: 3.00
     2s    -13.970922    2.096432
     2p    -10.063292    1.800000
  9     Mon Apr 23 13:58:50 CEST 2018   EN: 3.980 GM2: 0.532  GM3: 0.1426  RAES: 2.40
     2s    -23.458179    2.416361
     2p    -15.746583    2.308399
 17     Mon Apr 23 14:09:22 CEST 2018   EN: 3.160 GM2: 0.249  GM3: 0.1495  RAES: 2.50
     3s    -29.278781    2.485265
     3p    -12.673758    2.199650
     3d     -0.240338    2.476089

           ------------------------------------------------- 
          |        Self-Consistent Charge Iterations        |
           ------------------------------------------------- 

          ...................................................
          :                      SETUP                      :
          :.................................................:
          :  # basis functions                  21          :
          :  # atomic orbitals                  20          :
          :  # shells                           10          :
          :  # electrons                        22          :
          :  max. iterations                   250          :
          :  Hamiltonian                  GFN2-xTB          :
          :  restarted?                      false          :
          :  GBSA solvation                  false          :
          :  PC potential                    false          :
          :  electronic temp.          300.0000000     K    :
          :  accuracy                    1.0000000          :
          :  -> integral cutoff          0.2500000E+02      :
          :  -> integral neglect         0.1000000E-07      :
          :  -> SCF convergence          0.1000000E-05 Eh   :
          :  -> wf. convergence          0.1000000E-03 e    :
          :  Broyden damping             0.4000000          :
          ...................................................

 iter      E             dE          RMSdq      gap      omega  full diag
   1    -12.7981947 -0.127982E+02  0.105E+01    1.18       0.0  T
   2    -12.0967739  0.701421E+00  0.106E+01    0.00       1.0  T
   3    -12.6802678 -0.583494E+00  0.818E+00    0.05       1.0  T
   4    -12.8433990 -0.163131E+00  0.815E+00    1.61       1.0  T
   5    -12.4856032  0.357796E+00  0.100E+01    0.00       1.0  T
   6    -12.4950212 -0.941795E-02  0.988E+00    0.00       1.0  T
   7    -12.2175563  0.277465E+00  0.103E+01    0.00       1.0  T
   8    -12.2244153 -0.685898E-02  0.966E+00    0.00       1.0  T
   9    -12.2202391  0.417620E-02  0.101E+01    0.00       1.0  T
  10    -12.2181239  0.211518E-02  0.104E+01    0.00       1.0  T
  11    -12.2177891  0.334876E-03  0.104E+01    0.00       1.0  T
  12    -12.8805279 -0.662739E+00  0.637E+00    0.56       1.0  T
  13    -12.2006827  0.679845E+00  0.115E+01    0.00       1.0  T
  14    -12.2147133 -0.140306E-01  0.101E+01    0.00       1.0  T
  15    -12.9296196 -0.714906E+00  0.556E+00    0.42       1.0  T
  16    -12.5786440  0.350976E+00  0.730E+00    0.00       1.0  T
  17    -12.6724250 -0.937810E-01  0.894E+00    0.04       1.0  T
  18    -12.1954227  0.477002E+00  0.114E+01    0.00       1.0  T
  19    -12.2060470 -0.106244E-01  0.103E+01    0.00       1.0  T
  20    -13.1176636 -0.911617E+00  0.182E+00    0.08       1.0  T
  21    -12.2042620  0.913402E+00  0.994E+00    0.00       1.0  T
  22    -12.2009307  0.333137E-02  0.100E+01    0.00       1.0  T
  23    -13.0332737 -0.832343E+00  0.436E+00    0.11       1.0  T
  24    -12.9256002  0.107674E+00  0.574E+00    0.22       1.0  T
  25    -12.2127064  0.712894E+00  0.103E+01    0.00       1.0  T
  26    -12.8861989 -0.673493E+00  0.636E+00    0.58       1.0  T
  27    -12.2181812  0.668018E+00  0.964E+00    0.00       1.0  T
  28    -12.8955078 -0.677327E+00  0.636E+00    0.62       1.0  T
  29    -13.0265204 -0.131013E+00  0.456E+00    0.11       1.0  T
  30    -12.9813425  0.451779E-01  0.550E+00    0.09       1.0  T
  31    -12.9152425  0.661000E-01  0.576E+00    0.53       1.0  T
  32    -12.9094357  0.580679E-02  0.580E+00    0.59       1.0  T
  33    -12.9073153  0.212043E-02  0.584E+00    0.46       1.0  T
  34    -12.9290815 -0.217662E-01  0.552E+00    0.42       1.0  T
  35    -12.9306930 -0.161156E-02  0.553E+00    0.41       1.0  T
  36    -12.9313886 -0.695527E-03  0.550E+00    0.41       1.0  T
  37    -12.9238628  0.752574E-02  0.559E+00    0.46       1.0  T
  38    -12.9254482 -0.158535E-02  0.558E+00    0.44       1.0  T
  39    -12.9341186 -0.867039E-02  0.550E+00    0.39       1.0  T
  40    -12.9512069 -0.170883E-01  0.526E+00    0.32       1.0  T
  41    -12.9618080 -0.106011E-01  0.508E+00    0.30       1.0  T
  42    -12.9690592 -0.725123E-02  0.491E+00    0.28       1.0  T
  43    -12.9886102 -0.195509E-01  0.439E+00    0.25       1.0  T
  44    -12.4291814  0.559429E+00  0.829E+00    0.00       1.0  T
  45    -12.5759212 -0.146740E+00  0.955E+00    0.01       1.0  T
  46    -12.1946067  0.381314E+00  0.119E+01    0.00       1.0  T
  47    -12.8940849 -0.699478E+00  0.633E+00    0.65       1.0  T
  48    -12.9457511 -0.516662E-01  0.543E+00    0.34       1.0  T
  49    -12.9862967 -0.405455E-01  0.455E+00    0.25       1.0  T
  50    -13.0097449 -0.234483E-01  0.379E+00    0.22       1.0  T
  51    -12.2092415  0.800503E+00  0.985E+00    0.00       1.0  T
  52    -12.6143906 -0.405149E+00  0.931E+00    0.02       1.0  T
  53    -12.2081762  0.406214E+00  0.109E+01    0.00       1.0  T
  54    -12.8684427 -0.660267E+00  0.715E+00    0.76       1.0  T
  55    -12.9070414 -0.385987E-01  0.629E+00    0.48       1.0  T
  56    -12.9661340 -0.590925E-01  0.489E+00    0.29       1.0  T
  57    -12.2109723  0.755162E+00  0.969E+00    0.00       1.0  T
  58    -12.8931209 -0.682149E+00  0.733E+00    0.08       1.0  T
  59    -12.8902325  0.288836E-02  0.600E+00    0.69       1.0  T
  60    -12.9254433 -0.352108E-01  0.548E+00    0.37       1.0  T
  61    -12.2100601  0.715383E+00  0.980E+00    0.00       1.0  T
  62    -12.9591031 -0.749043E+00  0.599E+00    0.28       1.0  T
  63    -13.0245114 -0.654084E-01  0.409E+00    0.10       1.0  T
  64    -12.2134757  0.811036E+00  0.985E+00    0.00       1.0  T
  65    -12.8998385 -0.686363E+00  0.683E+00    0.44       1.0  T
  66    -13.0000075 -0.100169E+00  0.459E+00    0.22       1.0  T
  67    -13.0483425 -0.483351E-01  0.279E+00    0.11       1.0  T
  68    -12.2072884  0.841054E+00  0.102E+01    0.00       1.0  T
  69    -12.9204526 -0.713164E+00  0.635E+00    0.38       1.0  T
  70    -13.0502071 -0.129754E+00  0.330E+00    0.13       1.0  T
  71    -12.2130060  0.837201E+00  0.971E+00    0.00       1.0  T
  72    -12.9427348 -0.729729E+00  0.620E+00    0.31       1.0  T
  73    -13.0478272 -0.105092E+00  0.347E+00    0.14       1.0  T
  74    -12.2443556  0.803472E+00  0.937E+00    0.00       1.0  T
  75    -12.9606618 -0.716306E+00  0.600E+00    0.27       1.0  T
  76    -13.0450838 -0.844220E-01  0.355E+00    0.15       1.0  T
  77    -13.0451998 -0.116004E-03  0.328E+00    0.16       1.0  T
  78    -12.2103270  0.834873E+00  0.972E+00    0.00       1.0  T
  79    -13.0233006 -0.812974E+00  0.493E+00    0.19       1.0  T
  80    -13.0498880 -0.265874E-01  0.332E+00    0.14       1.0  T
  81    -12.2153555  0.834532E+00  0.958E+00    0.00       1.0  T
  82    -12.9531584 -0.737803E+00  0.610E+00    0.28       1.0  T
  83    -13.0353733 -0.822149E-01  0.370E+00    0.17       1.0  T
  84    -13.0324745  0.289880E-02  0.324E+00    0.19       1.0  T
  85    -12.2082561  0.824218E+00  0.990E+00    0.00       1.0  T
  86    -12.9970361 -0.788780E+00  0.520E+00    0.22       1.0  T
  87    -13.0418844 -0.448483E-01  0.336E+00    0.11       1.0  T
  88    -12.2129687  0.828916E+00  0.979E+00    0.00       1.0  T
  89    -12.9287621 -0.715793E+00  0.635E+00    0.34       1.0  T
  90    -13.0225322 -0.937701E-01  0.392E+00    0.19       1.0  T
  91    -13.0628900 -0.403578E-01  0.242E+00    0.15       1.0  T
  92    -12.2088071  0.854083E+00  0.993E+00    0.00       1.0  T
  93    -12.9760183 -0.767211E+00  0.549E+00    0.25       1.0  T
  94    -13.0481993 -0.721810E-01  0.317E+00    0.12       1.0  T
  95    -12.2132403  0.834959E+00  0.973E+00    0.00       1.0  T
  96    -12.9464590 -0.733219E+00  0.608E+00    0.30       1.0  T
  97    -13.0324194 -0.859604E-01  0.366E+00    0.17       1.0  T
  98    -13.1180964 -0.856771E-01  0.502E-01    0.09       1.0  T
  99    -13.0416385  0.764580E-01  0.310E+00    0.11       1.0  T
 100    -12.2107511  0.830887E+00  0.995E+00    0.00       1.0  T
 101    -12.9259131 -0.715162E+00  0.621E+00    0.36       1.0  T
 102    -13.0318107 -0.105898E+00  0.355E+00    0.18       1.0  T
 103    -12.2136521  0.818159E+00  0.960E+00    0.00       1.0  T
 104    -13.0089179 -0.795266E+00  0.508E+00    0.20       1.0  T
 105    -13.0432337 -0.343158E-01  0.339E+00    0.16       1.0  T
 106    -13.0826052 -0.393715E-01  0.185E+00    0.06       1.0  T
 107    -13.0494984  0.331068E-01  0.321E+00    0.12       1.0  T
 108    -12.2146097  0.834889E+00  0.964E+00    0.00       1.0  T
 109    -12.9417895 -0.727180E+00  0.607E+00    0.31       1.0  T
 110    -13.0321047 -0.903152E-01  0.361E+00    0.17       1.0  T
 111    -13.1106145 -0.785098E-01  0.111E+00    0.11       1.0  T
 112    -13.0546481  0.559664E-01  0.255E+00    0.12       1.0  T
 113    -12.2091510  0.845497E+00  0.999E+00    0.00       1.0  T
 114    -12.9412537 -0.732103E+00  0.583E+00    0.32       1.0  T
 115    -13.0513057 -0.110052E+00  0.294E+00    0.13       1.0  T
 116    -12.2129841  0.838322E+00  0.968E+00    0.00       1.0  T
 117    -12.9706977 -0.757714E+00  0.553E+00    0.26       1.0  T
 118    -13.0488792 -0.781815E-01  0.316E+00    0.14       1.0  T
 119    -12.5735970  0.475282E+00  0.737E+00    0.00       1.0  T
 120    -13.0058305 -0.432234E+00  0.481E+00    0.21       1.0  T
 121    -13.0381506 -0.323201E-01  0.335E+00    0.17       1.0  T
 122    -12.2261153  0.812035E+00  0.950E+00    0.00       1.0  T
 123    -12.9919298 -0.765815E+00  0.524E+00    0.23       1.0  T
 124    -13.0465617 -0.546319E-01  0.327E+00    0.15       1.0  T
 125    -13.0103317  0.362300E-01  0.379E+00    0.22       1.0  T
 126    -12.2092558  0.801076E+00  0.984E+00    0.00       1.0  T
 127    -13.0165482 -0.807292E+00  0.459E+00    0.20       1.0  T
 128    -13.0495518 -0.330036E-01  0.309E+00    0.12       1.0  T
 129    -12.2159237  0.833628E+00  0.957E+00    0.00       1.0  T
 130    -12.9612857 -0.745362E+00  0.574E+00    0.27       1.0  T
 131    -13.0334349 -0.721492E-01  0.357E+00    0.17       1.0  T
 132    -13.0353049 -0.187005E-02  0.312E+00    0.17       1.0  T
 133    -12.2096997  0.825605E+00  0.984E+00    0.00       1.0  T
 134    -12.9938973 -0.784198E+00  0.503E+00    0.23       1.0  T
 135    -13.0485323 -0.546350E-01  0.309E+00    0.12       1.0  T
 136    -12.2147124  0.833820E+00  0.962E+00    0.00       1.0  T
 137    -12.9583782 -0.743666E+00  0.579E+00    0.28       1.0  T
 138    -13.0334715 -0.750933E-01  0.357E+00    0.17       1.0  T
 139    -13.0376449 -0.417348E-02  0.306E+00    0.17       1.0  T
 140    -12.2094039  0.828241E+00  0.986E+00    0.00       1.0  T
 141    -12.9921458 -0.782742E+00  0.508E+00    0.23       1.0  T
 142    -13.0475210 -0.553752E-01  0.312E+00    0.12       1.0  T
 143    -12.2144308  0.833090E+00  0.964E+00    0.00       1.0  T
 144    -12.9567856 -0.742355E+00  0.582E+00    0.28       1.0  T
 145    -13.0327571 -0.759716E-01  0.360E+00    0.17       1.0  T
 146    -13.0441822 -0.114250E-01  0.294E+00    0.17       1.0  T
 147    -12.2096197  0.834563E+00  0.984E+00    0.00       1.0  T
 148    -12.9937436 -0.784124E+00  0.508E+00    0.22       1.0  T
 149    -13.0484514 -0.547078E-01  0.310E+00    0.12       1.0  T
 150    -12.2145436  0.833908E+00  0.963E+00    0.00       1.0  T
 151    -12.9594412 -0.744898E+00  0.579E+00    0.28       1.0  T
 152    -13.0332099 -0.737687E-01  0.359E+00    0.17       1.0  T
 153    -13.0451974 -0.119875E-01  0.293E+00    0.17       1.0  T
 154    -12.2097578  0.835440E+00  0.983E+00    0.00       1.0  T
 155    -12.9952161 -0.785458E+00  0.507E+00    0.22       1.0  T
 156    -13.0489645 -0.537484E-01  0.309E+00    0.12       1.0  T
 157    -12.2146255  0.834339E+00  0.962E+00    0.00       1.0  T
 158    -12.9614387 -0.746813E+00  0.576E+00    0.27       1.0  T
 159    -13.0333984 -0.719597E-01  0.359E+00    0.17       1.0  T
 160    -13.0446095 -0.112112E-01  0.295E+00    0.17       1.0  T
 161    -12.2097837  0.834826E+00  0.983E+00    0.00       1.0  T
 162    -12.9949182 -0.785134E+00  0.509E+00    0.22       1.0  T
 163    -13.0491286 -0.542104E-01  0.309E+00    0.12       1.0  T
 164    -12.2145945  0.834534E+00  0.962E+00    0.00       1.0  T
 165    -12.9627394 -0.748145E+00  0.575E+00    0.27       1.0  T
 166    -13.0335570 -0.708176E-01  0.358E+00    0.17       1.0  T
 167    -13.0467512 -0.131942E-01  0.291E+00    0.17       1.0  T
 168    -12.2099658  0.836785E+00  0.982E+00    0.00       1.0  T
 169    -12.9958542 -0.785888E+00  0.508E+00    0.22       1.0  T
 170    -13.0496565 -0.538023E-01  0.308E+00    0.12       1.0  T
 171    -12.2146682  0.834988E+00  0.961E+00    0.00       1.0  T
 172    -12.9650541 -0.750386E+00  0.571E+00    0.26       1.0  T
 173    -13.0339793 -0.689252E-01  0.357E+00    0.17       1.0  T
 174    -13.0450304 -0.110511E-01  0.295E+00    0.18       1.0  T
 175    -12.2099345  0.835096E+00  0.982E+00    0.00       1.0  T
 176    -12.9952297 -0.785295E+00  0.509E+00    0.22       1.0  T
 177    -13.0496667 -0.544370E-01  0.308E+00    0.12       1.0  T
 178    -12.2145828  0.835084E+00  0.961E+00    0.00       1.0  T
 179    -12.9660569 -0.751474E+00  0.569E+00    0.26       1.0  T
 180    -13.0341322 -0.680754E-01  0.356E+00    0.17       1.0  T
 181    -13.0472976 -0.131654E-01  0.291E+00    0.18       1.0  T
 182    -12.2101304  0.837167E+00  0.981E+00    0.00       1.0  T
 183    -12.9961509 -0.786021E+00  0.508E+00    0.22       1.0  T
 184    -13.0501328 -0.539819E-01  0.307E+00    0.12       1.0  T
 185    -12.2146685  0.835464E+00  0.961E+00    0.00       1.0  T
 186    -12.9684571 -0.753789E+00  0.565E+00    0.26       1.0  T
 187    -13.0345652 -0.661080E-01  0.355E+00    0.17       1.0  T
 188    -13.0442793 -0.971416E-02  0.297E+00    0.18       1.0  T
 189    -12.2100115  0.834268E+00  0.982E+00    0.00       1.0  T
 190    -12.9948800 -0.784869E+00  0.510E+00    0.22       1.0  T
 191    -13.0500121 -0.551321E-01  0.307E+00    0.12       1.0  T
 192    -12.2145008  0.835511E+00  0.961E+00    0.00       1.0  T
 193    -12.9690514 -0.754551E+00  0.564E+00    0.26       1.0  T
 194    -13.0347324 -0.656810E-01  0.354E+00    0.17       1.0  T
 195    -13.0478833 -0.131509E-01  0.290E+00    0.18       1.0  T
 196    -12.2103002  0.837583E+00  0.980E+00    0.00       1.0  T
 197    -12.9965276 -0.786227E+00  0.508E+00    0.22       1.0  T
 198    -13.0505317 -0.540041E-01  0.306E+00    0.12       1.0  T
 199    -12.2146811  0.835851E+00  0.960E+00    0.00       1.0  T
 200    -12.9719222 -0.757241E+00  0.559E+00    0.25       1.0  T
 201    -13.0351482 -0.632260E-01  0.353E+00    0.17       1.0  T
 202    -13.0420391 -0.689094E-02  0.301E+00    0.18       1.0  T
 203    -12.2099900  0.832049E+00  0.982E+00    0.00       1.0  T
 204    -12.9938735 -0.783883E+00  0.511E+00    0.22       1.0  T
 205    -13.0502037 -0.563302E-01  0.306E+00    0.12       1.0  T
 206    -12.2143372  0.835866E+00  0.962E+00    0.00       1.0  T
 207    -12.9716339 -0.757297E+00  0.559E+00    0.25       1.0  T
 208    -13.0353574 -0.637235E-01  0.352E+00    0.17       1.0  T
 209    -13.0496280 -0.142706E-01  0.287E+00    0.18       1.0  T
 210    -12.2105541  0.839074E+00  0.978E+00    0.00       1.0  T
 211    -12.9976187 -0.787065E+00  0.507E+00    0.22       1.0  T
 212    -13.0508856 -0.532669E-01  0.305E+00    0.13       1.0  T
 213    -12.2148270  0.836059E+00  0.960E+00    0.00       1.0  T
 214    -12.9757739 -0.760947E+00  0.553E+00    0.25       1.0  T
 215    -13.0356716 -0.598977E-01  0.352E+00    0.17       1.0  T
 216    -13.0380508 -0.237922E-02  0.309E+00    0.18       1.0  T
 217    -12.2098636  0.828187E+00  0.983E+00    0.00       1.0  T
 218    -12.9921584 -0.782295E+00  0.513E+00    0.23       1.0  T
 219    -13.0503063 -0.581480E-01  0.306E+00    0.12       1.0  T
 220    -12.2141017  0.836205E+00  0.963E+00    0.00       1.0  T
 221    -12.9739054 -0.759804E+00  0.554E+00    0.25       1.0  T
 222    -13.0360750 -0.621695E-01  0.350E+00    0.17       1.0  T
 223    -13.0535144 -0.174394E-01  0.280E+00    0.18       1.0  T
 224    -12.2109718  0.842543E+00  0.975E+00    0.00       1.0  T
 225    -12.9999815 -0.789010E+00  0.504E+00    0.21       1.0  T
 226    -13.0510387 -0.510572E-01  0.305E+00    0.13       1.0  T
 227    -12.2156155  0.835423E+00  0.958E+00    0.00       1.0  T
 228    -12.9802561 -0.764641E+00  0.545E+00    0.24       1.0  T
 229    -13.0360498 -0.557937E-01  0.351E+00    0.17       1.0  T
 230    -13.0339163  0.213348E-02  0.316E+00    0.18       1.0  T
 231    -12.2097958  0.824121E+00  0.984E+00    0.00       1.0  T
 232    -12.9908541 -0.781058E+00  0.515E+00    0.23       1.0  T
 233    -13.0505454 -0.596914E-01  0.305E+00    0.12       1.0  T
 234    -12.2139331  0.836612E+00  0.963E+00    0.00       1.0  T
 235    -12.9766666 -0.762734E+00  0.548E+00    0.25       1.0  T
 236    -13.0368251 -0.601585E-01  0.348E+00    0.17       1.0  T
 237    -13.0546810 -0.178559E-01  0.279E+00    0.18       1.0  T
 238    -12.2111897  0.843491E+00  0.974E+00    0.00       1.0  T
 239    -13.0011692 -0.789980E+00  0.502E+00    0.21       1.0  T
 240    -13.0509412 -0.497720E-01  0.305E+00    0.13       1.0  T
 241    -12.2162241  0.834717E+00  0.957E+00    0.00       1.0  T
 242    -12.9834704 -0.767246E+00  0.539E+00    0.24       1.0  T
 243    -13.0363600 -0.528897E-01  0.350E+00    0.17       1.0  T
 244    -13.0327980  0.356208E-02  0.319E+00    0.18       1.0  T
 245    -12.2098858  0.822912E+00  0.983E+00    0.00       1.0  T
 246    -12.9909778 -0.781092E+00  0.515E+00    0.23       1.0  T
 247    -13.0508467 -0.598689E-01  0.304E+00    0.13       1.0  T
 248    -12.2138823  0.836964E+00  0.963E+00    0.00       1.0  T
 249    -12.9798730 -0.765991E+00  0.543E+00    0.24       1.0  T
 250    -13.0373888 -0.575158E-01  0.346E+00    0.17       1.0  T

   *** convergence criteria cannot be satisfied within 250 iterations ***

         #    Occupation            Energy/Eh            Energy/eV
      -------------------------------------------------------------
         1        2.0000           -0.8486490             -23.0929
       ...           ...                  ...                  ...
         5        2.0000           -0.3674894              -9.9999
         6        2.0000           -0.2928740              -7.9695
         7        2.0000           -0.2928233              -7.9681
         8        2.0000           -0.2928231              -7.9681
         9        1.9985           -0.2340152              -6.3679
        10        1.9463           -0.2305869              -6.2746
        11        1.9463           -0.2305867              -6.2746 (HOMO)
        12        0.1090           -0.2244652              -6.1080 (LUMO)
        13                          0.2358037               6.4165
        14                          0.2598404               7.0706
        15                          0.2600127               7.0753
        16                          0.2600129               7.0753
       ...                                ...                  ...
        20                          0.4048691              11.0170
      -------------------------------------------------------------
                  HL-Gap            0.0061215 Eh            0.1666 eV
             Fermi-level           -0.2271765 Eh           -6.1818 eV

 SCC (total)                   0 d,  0 h,  0 min,  0.191 sec
 SCC setup                      ...        0 min,  0.000 sec (  0.126%)
 Dispersion                     ...        0 min,  0.000 sec (  0.024%)
 integral evaluation            ...        0 min,  0.001 sec (  0.573%)
 zeroth order Hamiltonian       ...        0 min,  0.000 sec (  0.037%)
 iterations                     ...        0 min,  0.189 sec ( 98.846%)
 molecular gradient             ...        0 min,  0.001 sec (  0.322%)
 printout                       ...        0 min,  0.000 sec (  0.047%)

         :::::::::::::::::::::::::::::::::::::::::::::::::::::
         ::                     SUMMARY                     ::
         :::::::::::::::::::::::::::::::::::::::::::::::::::::
         :: total energy              -5.932592650642 Eh    ::
         :: gradient norm             23.728354758445 Eh/a0 ::
         :: HOMO-LUMO gap              0.166574879516 eV    ::
         ::.................................................::
         :: SCC energy               -13.037388803680 Eh    ::
         :: -> isotropic ES            0.322844410109 Eh    ::
         :: -> anisotropic ES         -0.004982866405 Eh    ::
         :: -> anisotropic XC          0.008657844136 Eh    ::
         :: -> dispersion             -0.001359373565 Eh    ::
         :: repulsion energy           0.059736483544 Eh    ::
         :: add. restraining           7.045126873860 Eh    ::
         :::::::::::::::::::::::::::::::::::::::::::::::::::::

      ----------------------------------------------------------- 
     |                   =====================                   |
     |                        A N C O P T                        |
     |                   =====================                   |
     |               Approximate Normal Coordinate               |
     |                Rational Function Optimizer                |
      ----------------------------------------------------------- 

          ...................................................
          :                      SETUP                      :
          :.................................................:
          :   optimization level            normal          :
          :   max. optcycles                   200          :
          :   ANC micro-cycles                  20          :
          :   degrees of freedom                12          :
          :.................................................:
          :   RF solver                   davidson          :
          :   write xtbopt.log                true          :
          :   linear?                        false          :
          :   energy convergence         0.5000000E-05 Eh   :
          :   grad. convergence          0.1000000E-02 Eh/α :
          :   maximium RF displ.         1.0000000          :
          :   Hlow (freq-cutoff)         0.1000000E-01      :
          :   Hmax (freq-cutoff)         5.0000000          :
          :   S6 in model hess.         20.0000000          :
          ...................................................

generating ANC from model Hessian ...
Using Lindh-Hessian (1995)
 Shifting diagonal of input Hessian by    3.50594244665939     
 Lowest  eigenvalues of input Hessian
    0.010000    0.010136   -0.000000   -0.000000    0.000000    0.000000
    0.000000    0.000000    3.506386    3.506584    3.506586    3.661821
    3.661849    3.943738    4.336191    4.336301   23.506920   63.506842
 Highest eigenvalues
    3.661849    3.943738    4.336191    4.336301   23.506920   63.506842
 

........................................................................
.............................. CYCLE    1 ..............................
........................................................................
   1    -13.0510269 -0.130510E+02  0.286E+00    0.18       0.0  T
   2    -12.1571800  0.893847E+00  0.108E+01    0.00       1.0  T
   3    -12.2122230 -0.550430E-01  0.971E+00    0.00       1.0  T
   4    -12.5917865 -0.379564E+00  0.903E+00    0.01       1.0  T
   5    -13.0640914 -0.472305E+00  0.245E+00    0.11       1.0  T
   6    -13.0745431 -0.104517E-01  0.218E+00    0.12       1.0  T
   7    -12.7536313  0.320912E+00  0.631E+00    0.01       1.0  T
   8    -12.7617640 -0.813275E-02  0.602E+00    0.01       1.0  T
   9    -12.6946790  0.670850E-01  0.658E+00    0.00       1.0  T
  10    -12.9380812 -0.243402E+00  0.428E+00    0.03       1.0  T
  11    -13.0693780 -0.131297E+00  0.227E+00    0.05       1.0  T
  12    -13.0901691 -0.207911E-01  0.176E+00    0.06       1.0  T
  13    -13.1046444 -0.144753E-01  0.123E+00    0.07       1.0  T
  14    -13.1185025 -0.138581E-01  0.437E-01    0.10       1.0  T
  15    -13.1110816  0.742090E-02  0.110E+00    0.11       1.0  T
  16    -13.1047516  0.633003E-02  0.135E+00    0.12       1.0  T
  17    -13.1123789 -0.762730E-02  0.916E-01    0.11       1.0  T
  18    -13.1169101 -0.453116E-02  0.580E-01    0.10       1.0  T
  19    -13.1169672 -0.571571E-04  0.575E-01    0.10       1.0  T
  20    -13.1178433 -0.876127E-03  0.464E-01    0.10       1.0  T
  21    -13.1189132 -0.106990E-02  0.287E-01    0.10       1.0  T
  22    -13.1194136 -0.500387E-03  0.147E-01    0.09       1.0  T
  23    -13.1195535 -0.139832E-03  0.689E-02    0.09       1.0  T
  24    -13.1195880 -0.345409E-04  0.267E-02    0.09       1.5  T
  25    -13.1195943 -0.628619E-05  0.481E-03    0.09       8.5  T
  26    -13.1195926  0.166191E-05  0.151E-02    0.09       2.7  T
  27    -13.1195944 -0.181587E-05  0.107E-03    0.09      38.3  T
  28    -13.1195944  0.169793E-09  0.690E-04    0.09      59.1  T
  29    -13.1195944 -0.184796E-08  0.535E-04    0.09      76.3  T
     SCC iter.                  ...        0 min,  0.006 sec
     gradient                   ...        0 min,  0.001 sec
 * total energy  :    -6.0147349 Eh     change       -0.8214221E-01 Eh
   gradient norm :    23.7315620 Eh/α   predicted     0.0000000E+00 (-100.00%)
   displ. norm   :     0.9001885 α      lambda       -0.2136288E+02
   maximum displ.:     0.7795913 α      in ANC's #11, #12, #1, ...

........................................................................
.............................. CYCLE    2 ..............................
........................................................................
   1    -12.2931877 -0.122932E+02  0.903E+00    0.00       0.0  T
   2    -12.5909881 -0.297800E+00  0.974E+00    3.17       1.0  T
   3    -12.4339756  0.157013E+00  0.100E+01    0.00       1.0  T
   4    -12.7826644 -0.348689E+00  0.751E+00    0.76       1.0  T
   5    -12.4283384  0.354326E+00  0.940E+00    0.00       1.0  T
   6    -12.2795538  0.148785E+00  0.883E+00    0.00       1.0  T
   7    -12.8131749 -0.533621E+00  0.663E+00    0.80       1.0  T
   8    -12.8566674 -0.434924E-01  0.581E+00    0.23       1.0  T
   9    -12.8226371  0.340303E-01  0.630E+00    0.77       1.0  T
  10    -12.8223956  0.241547E-03  0.630E+00    0.77       1.0  T
  11    -12.8904819 -0.680863E-01  0.424E+00    0.03       1.0  T
  12    -12.2665585  0.623923E+00  0.894E+00    0.01       1.0  T
  13    -12.3110294 -0.444709E-01  0.866E+00    0.01       1.0  T
  14    -12.2683850  0.426444E-01  0.893E+00    0.01       1.0  T
  15    -12.8669063 -0.598521E+00  0.555E+00    0.24       1.0  T
  16    -12.2525594  0.614347E+00  0.918E+00    0.01       1.0  T
  17    -13.0337249 -0.781165E+00  0.259E+00    0.11       1.0  T
  18    -12.2739760  0.759749E+00  0.887E+00    0.01       1.0  T
  19    -12.9002561 -0.626280E+00  0.504E+00    0.17       1.0  T
  20    -13.0335717 -0.133316E+00  0.280E+00    0.10       1.0  T
  21    -13.0100759  0.234958E-01  0.269E+00    0.07       1.0  T
  22    -12.8890298  0.121046E+00  0.520E+00    0.18       1.0  T
  23    -12.9513928 -0.623630E-01  0.416E+00    0.13       1.0  T
  24    -12.9883694 -0.369766E-01  0.316E+00    0.05       1.0  T
  25    -13.0440172 -0.556478E-01  0.192E+00    0.08       1.0  T
  26    -12.2567317  0.787285E+00  0.906E+00    0.00       1.0  T
  27    -12.4769707 -0.220239E+00  0.883E+00    0.00       1.0  T
  28    -12.2525438  0.224427E+00  0.923E+00    0.00       1.0  T
  29    -12.2555687 -0.302485E-02  0.909E+00    0.00       1.0  T
  30    -12.9803585 -0.724790E+00  0.392E+00    0.13       1.0  T
  31    -12.2545535  0.725805E+00  0.915E+00    0.00       1.0  T
  32    -12.9744271 -0.719874E+00  0.377E+00    0.11       1.0  T
  33    -12.2546997  0.719727E+00  0.914E+00    0.00       1.0  T
  34    -13.0084192 -0.753720E+00  0.292E+00    0.08       1.0  T
  35    -12.2534061  0.755013E+00  0.919E+00    0.00       1.0  T
  36    -13.0048602 -0.751454E+00  0.299E+00    0.08       1.0  T
  37    -12.2549001  0.749960E+00  0.913E+00    0.00       1.0  T
  38    -13.0034498 -0.748550E+00  0.303E+00    0.09       1.0  T
  39    -12.2565503  0.746899E+00  0.908E+00    0.00       1.0  T
  40    -13.0090956 -0.752545E+00  0.282E+00    0.08       1.0  T
  41    -12.2577121  0.751383E+00  0.905E+00    0.00       1.0  T
  42    -13.0078122 -0.750100E+00  0.284E+00    0.08       1.0  T
  43    -12.2648417  0.742970E+00  0.897E+00    0.00       1.0  T
  44    -13.0117305 -0.746889E+00  0.266E+00    0.07       1.0  T
  45    -12.2793894  0.732341E+00  0.887E+00    0.01       1.0  T
  46    -13.0618956 -0.782506E+00  0.142E+00    0.06       1.0  T
  47    -12.2554721  0.806424E+00  0.908E+00    0.01       1.0  T
  48    -12.7032271 -0.447755E+00  0.646E+00    0.01       1.0  T
  49    -12.2530303  0.450197E+00  0.916E+00    0.01       1.0  T
  50    -12.2628610 -0.983068E-02  0.900E+00    0.01       1.0  T
  51    -12.2716302 -0.876917E-02  0.893E+00    0.01       1.0  T
  52    -12.2641184  0.751174E-02  0.896E+00    0.00       1.0  T
  53    -13.0475342 -0.783416E+00  0.214E+00    0.07       1.0  T
  54    -12.9086552  0.138879E+00  0.505E+00    0.18       1.0  T
  55    -12.8306990  0.779562E-01  0.611E+00    0.50       1.0  T
  56    -12.8371410 -0.644199E-02  0.597E+00    0.35       1.0  T
  57    -12.6331827  0.203958E+00  0.757E+00    0.01       1.0  T
  58    -12.2528491  0.380334E+00  0.917E+00    0.01       1.0  T
  59    -12.6351107 -0.382262E+00  0.685E+00    0.01       1.0  T
  60    -12.2571573  0.377953E+00  0.904E+00    0.01       1.0  T
  61    -12.6463833 -0.389226E+00  0.707E+00    0.01       1.0  T
  62    -12.2548297  0.391554E+00  0.909E+00    0.01       1.0  T
  63    -12.2829464 -0.281167E-01  0.893E+00    0.01       1.0  T
  64    -12.3021085 -0.191620E-01  0.887E+00    0.02       1.0  T
  65    -12.3036576 -0.154914E-02  0.886E+00    0.02       1.0  T
  66    -12.9097958 -0.606138E+00  0.506E+00    0.17       1.0  T
  67    -12.9878578 -0.780620E-01  0.311E+00    0.05       1.0  T
  68    -12.8827646  0.105093E+00  0.544E+00    0.20       1.0  T
  69    -12.8983013 -0.155367E-01  0.506E+00    0.17       1.0  T
  70    -12.9730068 -0.747055E-01  0.374E+00    0.11       1.0  T
  71    -12.9360276  0.369792E-01  0.446E+00    0.14       1.0  T
  72    -12.8531007  0.829269E-01  0.525E+00    0.02       1.0  T
  73    -12.8456330  0.746770E-02  0.586E+00    0.29       1.0  T
  74    -12.9888062 -0.143173E+00  0.335E+00    0.10       1.0  T
  75    -12.9000313  0.887749E-01  0.502E+00    0.17       1.0  T
  76    -12.6607386  0.239293E+00  0.729E+00    0.01       1.0  T
  77    -12.4612161  0.199523E+00  0.773E+00    0.00       1.0  T
  78    -12.8663477 -0.405132E+00  0.565E+00    0.22       1.0  T
  79    -12.8429584  0.233893E-01  0.589E+00    0.31       1.0  T
  80    -12.8402404  0.271802E-02  0.592E+00    0.33       1.0  T
  81    -12.8431399 -0.289946E-02  0.588E+00    0.29       1.0  T
  82    -12.8980109 -0.548711E-01  0.511E+00    0.17       1.0  T
  83    -12.9647223 -0.667113E-01  0.396E+00    0.12       1.0  T
  84    -12.9281744  0.365479E-01  0.463E+00    0.14       1.0  T
  85    -12.9997556 -0.715813E-01  0.297E+00    0.06       1.0  T
  86    -12.8410892  0.158666E+00  0.592E+00    0.30       1.0  T
  87    -12.9783148 -0.137226E+00  0.338E+00    0.05       1.0  T
  88    -12.8349429  0.143372E+00  0.603E+00    0.39       1.0  T
  89    -12.8836603 -0.487174E-01  0.533E+00    0.18       1.0  T
  90    -12.9327167 -0.490564E-01  0.458E+00    0.14       1.0  T
  91    -12.9143424  0.183743E-01  0.491E+00    0.15       1.0  T
  92    -12.9406438 -0.263015E-01  0.449E+00    0.13       1.0  T
  93    -12.8885422  0.521016E-01  0.534E+00    0.17       1.0  T
  94    -12.9127119 -0.241697E-01  0.500E+00    0.15       1.0  T
  95    -12.8647204  0.479915E-01  0.574E+00    0.20       1.0  T
  96    -12.8564602  0.826021E-02  0.589E+00    0.22       1.0  T
  97    -12.8849221 -0.284619E-01  0.546E+00    0.18       1.0  T
  98    -12.9346929 -0.497708E-01  0.463E+00    0.13       1.0  T
  99    -12.9470420 -0.123491E-01  0.436E+00    0.13       1.0  T
 100    -13.0010564 -0.540145E-01  0.310E+00    0.09       1.0  T
 101    -12.8999929  0.101064E+00  0.503E+00    0.17       1.0  T
 102    -12.5169364  0.383057E+00  0.857E+00    0.00       1.0  T
 103    -12.6981166 -0.181180E+00  0.601E+00    0.00       1.0  T
 104    -12.8476703 -0.149554E+00  0.586E+00    0.26       1.0  T
 105    -12.8439968  0.367352E-02  0.586E+00    0.32       1.0  T
 106    -12.6034607  0.240536E+00  0.683E+00    0.01       1.0  T
 107    -13.0338595 -0.430399E+00  0.235E+00    0.09       1.0  T
 108    -12.2610684  0.772791E+00  0.898E+00    0.00       1.0  T
 109    -12.9912619 -0.730194E+00  0.336E+00    0.10       1.0  T
 110    -12.9685721  0.226898E-01  0.412E+00    0.14       1.0  T
 111    -12.4316961  0.536876E+00  0.818E+00    0.01       1.0  T
 112    -12.9299743 -0.498278E+00  0.415E+00    0.03       1.0  T
 113    -12.8889434  0.410309E-01  0.539E+00    0.19       1.0  T
 114    -12.5039746  0.384969E+00  0.746E+00    0.01       1.0  T
 115    -12.8665164 -0.362542E+00  0.553E+00    0.22       1.0  T
 116    -12.9192452 -0.527288E-01  0.432E+00    0.03       1.0  T
 117    -12.2623918  0.656853E+00  0.897E+00    0.00       1.0  T
 118    -12.8337080 -0.571316E+00  0.606E+00    0.36       1.0  T
 119    -12.8853200 -0.516120E-01  0.524E+00    0.19       1.0  T
 120    -12.8708587  0.144612E-01  0.521E+00    0.02       1.0  T
 121    -12.2605746  0.610284E+00  0.900E+00    0.00       1.0  T
 122    -12.8316900 -0.571115E+00  0.609E+00    0.41       1.0  T
 123    -12.8884514 -0.567614E-01  0.519E+00    0.18       1.0  T
 124    -12.9138668 -0.254154E-01  0.522E+00    0.02       1.0  T
 125    -12.2583977  0.655469E+00  0.905E+00    0.00       1.0  T
 126    -12.8341446 -0.575747E+00  0.603E+00    0.36       1.0  T
 127    -12.9839194 -0.149775E+00  0.346E+00    0.10       1.0  T
 128    -12.3939680  0.589951E+00  0.821E+00    0.01       1.0  T
 129    -12.9368582 -0.542890E+00  0.445E+00    0.15       1.0  T
 130    -12.6079371  0.328921E+00  0.784E+00    0.00       1.0  T
 131    -13.0258438 -0.417907E+00  0.249E+00    0.05       1.0  T
 132    -12.8451521  0.180692E+00  0.587E+00    0.30       1.0  T
 133    -12.9487810 -0.103629E+00  0.354E+00    0.04       1.0  T
 134    -12.2577763  0.691005E+00  0.904E+00    0.01       1.0  T
 135    -12.8948198 -0.637044E+00  0.510E+00    0.17       1.0  T
 136    -12.5534135  0.341406E+00  0.821E+00    0.00       1.0  T
 137    -12.8601198 -0.306706E+00  0.570E+00    0.24       1.0  T
 138    -13.0436295 -0.183510E+00  0.224E+00    0.07       1.0  T
 139    -12.3022178  0.741412E+00  0.872E+00    0.01       1.0  T
 140    -12.8656021 -0.563384E+00  0.554E+00    0.23       1.0  T
 141    -12.5047311  0.360871E+00  0.860E+00    0.00       1.0  T
 142    -12.9846515 -0.479920E+00  0.394E+00    0.12       1.0  T
 143    -13.0389222 -0.542707E-01  0.267E+00    0.09       1.0  T
 144    -12.3638460  0.675076E+00  0.835E+00    0.01       1.0  T
 145    -12.8933463 -0.529500E+00  0.525E+00    0.19       1.0  T
 146    -12.6850810  0.208265E+00  0.705E+00    0.01       1.0  T
 147    -12.2742957  0.410785E+00  0.888E+00    0.00       1.0  T
 148    -12.8301411 -0.555845E+00  0.612E+00    0.46       1.0  T
 149    -12.8604256 -0.302845E-01  0.561E+00    0.23       1.0  T
 150    -12.9255067 -0.650811E-01  0.421E+00    0.03       1.0  T
 151    -12.2654629  0.660044E+00  0.895E+00    0.00       1.0  T
 152    -12.8356090 -0.570146E+00  0.599E+00    0.40       1.0  T
 153    -13.0058609 -0.170252E+00  0.274E+00    0.06       1.0  T
 154    -12.4069310  0.598930E+00  0.809E+00    0.01       1.0  T
 155    -12.8711992 -0.464268E+00  0.553E+00    0.22       1.0  T
 156    -12.5773079  0.293891E+00  0.801E+00    0.00       1.0  T
 157    -12.9824343 -0.405126E+00  0.398E+00    0.12       1.0  T
 158    -13.0376728 -0.552385E-01  0.270E+00    0.09       1.0  T
 159    -12.4046656  0.633007E+00  0.810E+00    0.01       1.0  T
 160    -12.9611433 -0.556478E+00  0.429E+00    0.14       1.0  T
 161    -12.6600978  0.301046E+00  0.729E+00    0.01       1.0  T
 162    -12.9055344 -0.245437E+00  0.403E+00    0.03       1.0  T
 163    -12.8403278  0.652066E-01  0.594E+00    0.33       1.0  T
 164    -13.0140677 -0.173740E+00  0.270E+00    0.09       1.0  T
 165    -12.2663635  0.747704E+00  0.895E+00    0.01       1.0  T
 166    -12.8985341 -0.632171E+00  0.516E+00    0.19       1.0  T
 167    -12.5132070  0.385327E+00  0.853E+00    0.00       1.0  T
 168    -12.8508443 -0.337637E+00  0.576E+00    0.29       1.0  T
 169    -12.9306269 -0.797826E-01  0.470E+00    0.16       1.0  T
 170    -12.3701326  0.560494E+00  0.837E+00    0.02       1.0  T
 171    -12.4261298 -0.559972E-01  0.797E+00    0.01       1.0  T
 172    -12.8747746 -0.448645E+00  0.541E+00    0.21       1.0  T
 173    -12.4249435  0.449831E+00  0.924E+00    0.00       1.0  T
 174    -12.8818578 -0.456914E+00  0.537E+00    0.19       1.0  T
 175    -12.8635853  0.182725E-01  0.558E+00    0.25       1.0  T
 176    -13.0256460 -0.162061E+00  0.243E+00    0.05       1.0  T
 177    -12.2577409  0.767905E+00  0.906E+00    0.01       1.0  T
 178    -12.8839566 -0.626216E+00  0.538E+00    0.20       1.0  T
 179    -12.8212487  0.627079E-01  0.561E+00    0.02       1.0  T
 180    -12.5861088  0.235140E+00  0.688E+00    0.01       1.0  T
 181    -12.8381452 -0.252036E+00  0.596E+00    0.35       1.0  T
 182    -12.9952584 -0.157113E+00  0.295E+00    0.05       1.0  T
 183    -12.4286238  0.566635E+00  0.795E+00    0.01       1.0  T
 184    -12.8586759 -0.430052E+00  0.568E+00    0.25       1.0  T
 185    -12.6583344  0.200342E+00  0.730E+00    0.01       1.0  T
 186    -12.9002963 -0.241962E+00  0.518E+00    0.18       1.0  T
 187    -13.0465432 -0.146247E+00  0.226E+00    0.08       1.0  T
 188    -12.2840651  0.762478E+00  0.883E+00    0.01       1.0  T
 189    -12.8853670 -0.601302E+00  0.526E+00    0.20       1.0  T
 190    -12.4784011  0.406966E+00  0.881E+00    0.00       1.0  T
 191    -12.8412483 -0.362847E+00  0.591E+00    0.30       1.0  T
 192    -12.8788696 -0.376213E-01  0.535E+00    0.21       1.0  T
 193    -13.0464686 -0.167599E+00  0.235E+00    0.05       1.0  T
 194    -12.2560844  0.790384E+00  0.912E+00    0.01       1.0  T
 195    -12.9558813 -0.699797E+00  0.439E+00    0.14       1.0  T
 196    -12.9380873  0.177940E-01  0.400E+00    0.04       1.0  T
 197    -12.9917876 -0.537003E-01  0.290E+00    0.05       1.0  T
 198    -12.9930685 -0.128092E-02  0.374E+00    0.12       1.0  T
 199    -12.8621640  0.130905E+00  0.538E+00    0.02       1.0  T
 200    -12.3714244  0.490740E+00  0.829E+00    0.01       1.0  T
 201    -12.8369645 -0.465540E+00  0.598E+00    0.34       1.0  T
 202    -12.9010513 -0.640868E-01  0.459E+00    0.03       1.0  T
 203    -12.8795663  0.214850E-01  0.541E+00    0.21       1.0  T
 204    -13.0401821 -0.160616E+00  0.220E+00    0.09       1.0  T
 205    -12.2642787  0.775903E+00  0.897E+00    0.01       1.0  T
 206    -12.8945867 -0.630308E+00  0.511E+00    0.18       1.0  T
 207    -12.5089985  0.385588E+00  0.857E+00    0.00       1.0  T
 208    -12.8400437 -0.331045E+00  0.593E+00    0.30       1.0  T
 209    -12.8944584 -0.544147E-01  0.510E+00    0.18       1.0  T
 210    -13.0224843 -0.128026E+00  0.271E+00    0.04       1.0  T
 211    -12.2602081  0.762276E+00  0.901E+00    0.01       1.0  T
 212    -12.8487686 -0.588561E+00  0.579E+00    0.29       1.0  T
 213    -12.7191051  0.129664E+00  0.672E+00    0.01       1.0  T
 214    -12.8890819 -0.169977E+00  0.531E+00    0.20       1.0  T
 215    -13.0424400 -0.153358E+00  0.209E+00    0.07       1.0  T
 216    -12.2653412  0.777099E+00  0.896E+00    0.01       1.0  T
 217    -12.9248444 -0.659503E+00  0.462E+00    0.15       1.0  T
 218    -12.6148018  0.310043E+00  0.769E+00    0.00       1.0  T
 219    -12.8393632 -0.224561E+00  0.593E+00    0.33       1.0  T
 220    -12.9507709 -0.111408E+00  0.419E+00    0.14       1.0  T
 221    -12.3822682  0.568503E+00  0.827E+00    0.02       1.0  T
 222    -12.9730689 -0.590801E+00  0.315E+00    0.05       1.0  T
 223    -13.0151567 -0.420878E-01  0.250E+00    0.05       1.0  T
 224    -12.3045597  0.710597E+00  0.874E+00    0.01       1.0  T
 225    -12.7042770 -0.399717E+00  0.687E+00    0.01       1.0  T
 226    -12.8346238 -0.130347E+00  0.606E+00    0.33       1.0  T
 227    -12.9547568 -0.120133E+00  0.410E+00    0.12       1.0  T
 228    -13.0110427 -0.562858E-01  0.266E+00    0.07       1.0  T
 229    -12.8841845  0.126858E+00  0.529E+00    0.21       1.0  T
 230    -12.7377521  0.146432E+00  0.654E+00    0.01       1.0  T
 231    -12.8884784 -0.150726E+00  0.533E+00    0.19       1.0  T
 232    -13.0508620 -0.162384E+00  0.223E+00    0.09       1.0  T
 233    -12.2599856  0.790876E+00  0.901E+00    0.01       1.0  T
 234    -12.9811751 -0.721189E+00  0.366E+00    0.13       1.0  T
 235    -12.9175508  0.636243E-01  0.445E+00    0.03       1.0  T
 236    -13.0247535 -0.107203E+00  0.310E+00    0.10       1.0  T
 237    -13.0586408 -0.338873E-01  0.186E+00    0.10       1.0  T
 238    -12.2632309  0.795410E+00  0.898E+00    0.01       1.0  T
 239    -13.0028564 -0.739625E+00  0.279E+00    0.06       1.0  T
 240    -12.8884081  0.114448E+00  0.521E+00    0.18       1.0  T
 241    -12.5397133  0.348695E+00  0.833E+00    0.00       1.0  T
 242    -12.8390098 -0.299296E+00  0.595E+00    0.31       1.0  T
 243    -12.9164769 -0.774671E-01  0.475E+00    0.16       1.0  T
 244    -13.0638892 -0.147412E+00  0.154E+00    0.06       1.0  T
 245    -12.2594866  0.804403E+00  0.902E+00    0.01       1.0  T
 246    -12.8673435 -0.607857E+00  0.553E+00    0.24       1.0  T
 247    -12.6197319  0.247612E+00  0.765E+00    0.01       1.0  T
 248    -12.8463652 -0.226633E+00  0.582E+00    0.29       1.0  T
 249    -12.9810592 -0.134694E+00  0.375E+00    0.14       1.0  T
 250    -12.2724635  0.708596E+00  0.892E+00    0.01       1.0  T
     SCC iter.                  ...        0 min,  0.158 sec
     gradient                   ...        0 min,  0.000 sec
 * total energy  :    -6.3008430 Eh     change       -0.2861081E+00 Eh
   gradient norm :    26.3817048 Eh/α   predicted    -0.1933703E+02 (6658.64%)
   displ. norm   :     0.5584713 α      lambda       -0.1232695E+02
   maximum displ.:     0.4312174 α      in ANC's #11, #12, #8, ...

........................................................................
.............................. CYCLE    3 ..............................
........................................................................
   1    -12.9636008 -0.129636E+02  0.833E+00    0.14       0.0  T
   2    -12.1187230  0.844878E+00  0.104E+01    0.00       1.0  T
   3    -12.4450167 -0.326294E+00  0.956E+00    0.00       1.0  T
   4    -12.8224202 -0.377403E+00  0.789E+00    1.21       1.0  T
   5    -12.4514595  0.370961E+00  0.971E+00    0.00       1.0  T
   6    -12.7838410 -0.332382E+00  0.659E+00    0.02       1.0  T
   7    -12.2251423  0.558699E+00  0.972E+00    0.00       1.0  T
   8    -12.2336079 -0.846555E-02  0.955E+00    0.00       1.0  T
   9    -12.2374051 -0.379719E-02  0.949E+00    0.00       1.0  T
  10    -12.2376371 -0.232071E-03  0.947E+00    0.00       1.0  T
  11    -12.2391297 -0.149254E-02  0.945E+00    0.00       1.0  T
  12    -12.2296043  0.952537E-02  0.957E+00    0.01       1.0  T
  13    -12.4177232 -0.188119E+00  0.107E+01    0.00       1.0  T
  14    -12.7476488 -0.329926E+00  0.789E+00    0.01       1.0  T
  15    -12.2248018  0.522847E+00  0.990E+00    0.02       1.0  T
  16    -12.3157875 -0.909857E-01  0.971E+00    0.02       1.0  T
  17    -12.3980785 -0.822911E-01  0.949E+00    0.02       1.0  T
  18    -12.2649905  0.133088E+00  0.994E+00    0.02       1.0  T
  19    -12.2820120 -0.170214E-01  0.990E+00    0.02       1.0  T
  20    -12.2923859 -0.103740E-01  0.986E+00    0.02       1.0  T
  21    -12.2888023  0.358359E-02  0.944E+00    0.02       1.0  T
  22    -12.7830847 -0.494282E+00  0.833E+00    3.71       1.0  T
  23    -12.8443477 -0.612631E-01  0.667E+00    0.90       1.0  T
  24    -12.2291315  0.615216E+00  0.966E+00    0.00       1.0  T
  25    -12.8005718 -0.571440E+00  0.798E+00    3.02       1.0  T
  26    -12.2276339  0.572938E+00  0.997E+00    0.00       1.0  T
  27    -12.8370276 -0.609394E+00  0.780E+00    0.25       1.0  T
  28    -12.2121854  0.624842E+00  0.116E+01    0.00       1.0  T
  29    -12.2446902 -0.325048E-01  0.129E+01    0.00       1.0  T
  30    -12.2240677  0.206225E-01  0.110E+01    0.00       1.0  T
  31    -12.2372495 -0.131818E-01  0.952E+00    0.00       1.0  T
  32    -12.8167284 -0.579479E+00  0.758E+00    1.91       1.0  T
  33    -12.4470124  0.369716E+00  0.990E+00    0.00       1.0  T
  34    -12.8219393 -0.374927E+00  0.753E+00    1.33       1.0  T
  35    -12.4344790  0.387460E+00  0.101E+01    0.00       1.0  T
  36    -12.8240549 -0.389576E+00  0.723E+00    1.82       1.0  T
  37    -12.4530140  0.371041E+00  0.970E+00    0.00       1.0  T
  38    -12.8299466 -0.376933E+00  0.709E+00    1.06       1.0  T
  39    -12.4686539  0.361293E+00  0.952E+00    0.00       1.0  T
  40    -12.8314096 -0.362756E+00  0.700E+00    1.25       1.0  T
  41    -12.4203223  0.411087E+00  0.838E+00    0.00       1.0  T
  42    -12.8349744 -0.414652E+00  0.702E+00    0.90       1.0  T
  43    -12.8589764 -0.240020E-01  0.623E+00    0.40       1.0  T
  44    -12.2318414  0.627135E+00  0.949E+00    0.00       1.0  T
  45    -12.8346672 -0.602826E+00  0.698E+00    1.01       1.0  T
  46    -12.7773983  0.572689E-01  0.561E+00    0.00       1.0  T
  47    -12.8445621 -0.671639E-01  0.666E+00    0.72       1.0  T
  48    -13.0530894 -0.208527E+00  0.238E+00    0.07       1.0  T
  49    -12.2330174  0.820072E+00  0.954E+00    0.00       1.0  T
  50    -12.8373703 -0.604353E+00  0.684E+00    1.14       1.0  T
  51    -12.9389584 -0.101588E+00  0.491E+00    0.16       1.0  T
  52    -12.2778105  0.661148E+00  0.929E+00    0.00       1.0  T
  53    -12.8495048 -0.571694E+00  0.653E+00    0.50       1.0  T
  54    -12.4458471  0.403658E+00  0.972E+00    0.00       1.0  T
  55    -12.8448025 -0.398955E+00  0.661E+00    0.64       1.0  T
  56    -12.9519864 -0.107184E+00  0.473E+00    0.15       1.0  T
  57    -12.2408787  0.711108E+00  0.944E+00    0.00       1.0  T
  58    -12.8694801 -0.628601E+00  0.617E+00    0.27       1.0  T
  59    -12.4492696  0.420210E+00  0.974E+00    0.00       1.0  T
  60    -12.8446987 -0.395429E+00  0.658E+00    0.89       1.0  T
  61    -13.0230977 -0.178399E+00  0.298E+00    0.06       1.0  T
  62    -12.2383291  0.784769E+00  0.934E+00    0.00       1.0  T
  63    -12.8482378 -0.609909E+00  0.653E+00    0.64       1.0  T
  64    -12.9158989 -0.676611E-01  0.491E+00    0.03       1.0  T
  65    -13.0583506 -0.142452E+00  0.322E+00    0.09       1.0  T
  66    -12.8838265  0.174524E+00  0.578E+00    0.24       1.0  T
  67    -12.2800908  0.603736E+00  0.928E+00    0.00       1.0  T
  68    -12.9992850 -0.719194E+00  0.398E+00    0.12       1.0  T
  69    -12.2430156  0.756269E+00  0.934E+00    0.00       1.0  T
  70    -12.8634129 -0.620397E+00  0.621E+00    0.32       1.0  T
  71    -12.4646880  0.398725E+00  0.954E+00    0.00       1.0  T
  72    -12.8453545 -0.380667E+00  0.656E+00    0.95       1.0  T
  73    -12.9889548 -0.143600E+00  0.399E+00    0.12       1.0  T
  74    -12.2611430  0.727812E+00  0.928E+00    0.00       1.0  T
  75    -12.9014450 -0.640302E+00  0.565E+00    0.20       1.0  T
  76    -12.5012418  0.400203E+00  0.933E+00    0.00       1.0  T
  77    -12.8457901 -0.344548E+00  0.655E+00    0.96       1.0  T
  78    -12.9902239 -0.144434E+00  0.393E+00    0.12       1.0  T
  79    -12.2354584  0.754766E+00  0.939E+00    0.00       1.0  T
  80    -12.9061108 -0.670652E+00  0.556E+00    0.20       1.0  T
  81    -12.8118016  0.943092E-01  0.722E+00    0.00       1.0  T
  82    -12.8525630 -0.407613E-01  0.636E+00    0.68       1.0  T
  83    -13.0359726 -0.183410E+00  0.267E+00    0.07       1.0  T
  84    -12.5251149  0.510858E+00  0.754E+00    0.00       1.0  T
  85    -12.8659471 -0.340832E+00  0.612E+00    0.31       1.0  T
  86    -12.6400801  0.225867E+00  0.811E+00    0.01       1.0  T
  87    -12.8508330 -0.210753E+00  0.640E+00    0.63       1.0  T
  88    -12.9866208 -0.135788E+00  0.400E+00    0.13       1.0  T
  89    -12.2332313  0.753389E+00  0.941E+00    0.00       1.0  T
  90    -13.0059442 -0.772713E+00  0.376E+00    0.11       1.0  T
  91    -12.7419636  0.263981E+00  0.594E+00    0.00       1.0  T
  92    -12.9655235 -0.223560E+00  0.452E+00    0.14       1.0  T
  93    -13.0116596 -0.461361E-01  0.402E+00    0.03       1.0  T
  94    -12.8614611  0.150198E+00  0.612E+00    0.43       1.0  T
  95    -12.6250201  0.236441E+00  0.817E+00    0.01       1.0  T
  96    -12.8511146 -0.226095E+00  0.639E+00    0.65       1.0  T
  97    -13.0295220 -0.178407E+00  0.295E+00    0.09       1.0  T
  98    -12.2348241  0.794698E+00  0.938E+00    0.00       1.0  T
  99    -12.9632718 -0.728448E+00  0.458E+00    0.14       1.0  T
 100    -12.2806154  0.682656E+00  0.912E+00    0.00       1.0  T
 101    -12.9512768 -0.670661E+00  0.481E+00    0.15       1.0  T
 102    -13.0221645 -0.708877E-01  0.346E+00    0.03       1.0  T
 103    -12.9104955  0.111669E+00  0.537E+00    0.19       1.0  T
 104    -12.7099727  0.200523E+00  0.738E+00    0.01       1.0  T
 105    -12.8531877 -0.143215E+00  0.633E+00    0.63       1.0  T
 106    -13.0378169 -0.184629E+00  0.267E+00    0.08       1.0  T
 107    -12.2951532  0.742664E+00  0.900E+00    0.00       1.0  T
 108    -12.9377916 -0.642638E+00  0.502E+00    0.16       1.0  T
 109    -12.6323319  0.305460E+00  0.718E+00    0.00       1.0  T
 110    -12.9827593 -0.350427E+00  0.418E+00    0.13       1.0  T
 111    -13.0701903 -0.874310E-01  0.217E+00    0.10       1.0  T
 112    -13.0786923 -0.850196E-02  0.185E+00    0.06       1.0  T
 113    -12.9091646  0.169528E+00  0.540E+00    0.21       1.0  T
 114    -12.5208130  0.388352E+00  0.923E+00    0.00       1.0  T
 115    -12.8509551 -0.330142E+00  0.639E+00    0.77       1.0  T
 116    -13.1034257 -0.252471E+00  0.102E+00    0.08       1.0  T
 117    -12.6678238  0.435602E+00  0.754E+00    0.00       1.0  T
 118    -12.8878525 -0.220029E+00  0.575E+00    0.23       1.0  T
 119    -12.3099119  0.577941E+00  0.901E+00    0.00       1.0  T
 120    -13.0119005 -0.701989E+00  0.335E+00    0.05       1.0  T
 121    -12.8651397  0.146761E+00  0.607E+00    0.32       1.0  T
 122    -13.0085468 -0.143407E+00  0.350E+00    0.11       1.0  T
 123    -12.2346005  0.773946E+00  0.939E+00    0.00       1.0  T
 124    -13.0318373 -0.797237E+00  0.289E+00    0.06       1.0  T
 125    -12.8858585  0.145979E+00  0.578E+00    0.24       1.0  T
 126    -12.8554344  0.304241E-01  0.575E+00    0.02       1.0  T
 127    -12.8675013 -0.120669E-01  0.606E+00    0.29       1.0  T
 128    -13.0464780 -0.178977E+00  0.277E+00    0.05       1.0  T
 129    -12.5827758  0.463702E+00  0.714E+00    0.00       1.0  T
 130    -12.9609192 -0.378143E+00  0.457E+00    0.14       1.0  T
 131    -12.2512121  0.709707E+00  0.928E+00    0.00       1.0  T
 132    -13.0013536 -0.750142E+00  0.379E+00    0.12       1.0  T
 133    -13.0311817 -0.298281E-01  0.265E+00    0.04       1.0  T
 134    -12.9763760  0.548057E-01  0.392E+00    0.04       1.0  T
 135    -12.8618403  0.114536E+00  0.611E+00    0.40       1.0  T
 136    -13.0083429 -0.146503E+00  0.327E+00    0.05       1.0  T
 137    -13.0735736 -0.652307E-01  0.250E+00    0.08       1.0  T
 138    -12.9906937  0.828799E-01  0.362E+00    0.05       1.0  T
 139    -13.0522622 -0.615685E-01  0.321E+00    0.10       1.0  T
 140    -13.0223831  0.298791E-01  0.303E+00    0.05       1.0  T
 141    -12.4906082  0.531775E+00  0.777E+00    0.00       1.0  T
 142    -12.9267705 -0.436162E+00  0.514E+00    0.17       1.0  T
 143    -12.2526313  0.674139E+00  0.928E+00    0.00       1.0  T
 144    -13.0068262 -0.754195E+00  0.365E+00    0.11       1.0  T
 145    -13.0397022 -0.328760E-01  0.250E+00    0.04       1.0  T
 146    -12.9767139  0.629882E-01  0.390E+00    0.04       1.0  T
 147    -12.8631373  0.113577E+00  0.608E+00    0.39       1.0  T
 148    -13.0225448 -0.159407E+00  0.298E+00    0.05       1.0  T
 149    -13.0575076 -0.349629E-01  0.229E+00    0.05       1.0  T
 150    -13.0198006  0.377070E-01  0.302E+00    0.06       1.0  T
 151    -13.0440563 -0.242557E-01  0.337E+00    0.10       1.0  T
 152    -12.9336753  0.110381E+00  0.488E+00    0.03       1.0  T
 153    -12.8958879  0.377874E-01  0.567E+00    0.22       1.0  T
 154    -12.4401170  0.455771E+00  0.828E+00    0.00       1.0  T
 155    -12.8626843 -0.422567E+00  0.566E+00    0.02       1.0  T
 156    -12.8581426  0.454163E-02  0.619E+00    0.49       1.0  T
 157    -13.0440243 -0.185882E+00  0.328E+00    0.11       1.0  T
 158    -12.2618225  0.782202E+00  0.928E+00    0.00       1.0  T
 159    -13.0325826 -0.770760E+00  0.283E+00    0.06       1.0  T
 160    -12.9679361  0.646465E-01  0.470E+00    0.15       1.0  T
 161    -13.0866871 -0.118751E+00  0.184E+00    0.05       1.0  T
 162    -13.0307076  0.559795E-01  0.294E+00    0.05       1.0  T
 163    -12.9343897  0.963179E-01  0.517E+00    0.17       1.0  T
 164    -12.7464943  0.187895E+00  0.660E+00    0.00       1.0  T
 165    -13.0366219 -0.290128E+00  0.277E+00    0.08       1.0  T
 166    -13.0186742  0.179477E-01  0.286E+00    0.04       1.0  T
 167    -13.0138428  0.483140E-02  0.339E+00    0.11       1.0  T
 168    -12.2794268  0.734416E+00  0.911E+00    0.00       1.0  T
 169    -12.9422306 -0.662804E+00  0.488E+00    0.16       1.0  T
 170    -12.7435114  0.198719E+00  0.634E+00    0.00       1.0  T
 171    -13.0115705 -0.268059E+00  0.350E+00    0.11       1.0  T
 172    -13.0198323 -0.826174E-02  0.350E+00    0.13       1.0  T
 173    -12.8737494  0.146083E+00  0.622E+00    0.01       1.0  T
 174    -12.8628359  0.109135E-01  0.609E+00    0.39       1.0  T
 175    -13.0820453 -0.219209E+00  0.166E+00    0.07       1.0  T
 176    -12.7728393  0.309206E+00  0.571E+00    0.00       1.0  T
 177    -13.0378184 -0.264979E+00  0.268E+00    0.07       1.0  T
 178    -12.9361360  0.101682E+00  0.509E+00    0.18       1.0  T
 179    -12.8723446  0.637914E-01  0.639E+00    0.01       1.0  T
 180    -12.8652137  0.713097E-02  0.604E+00    0.36       1.0  T
 181    -12.8310740  0.341397E-01  0.535E+00    0.01       1.0  T
 182    -12.8729540 -0.418801E-01  0.550E+00    0.03       1.0  T
 183    -12.8601326  0.128215E-01  0.614E+00    0.44       1.0  T
 184    -13.0772247 -0.217092E+00  0.228E+00    0.10       1.0  T
 185    -12.3088060  0.768419E+00  0.909E+00    0.00       1.0  T
 186    -12.9967620 -0.687956E+00  0.384E+00    0.12       1.0  T
 187    -12.6092383  0.387524E+00  0.707E+00    0.00       1.0  T
 188    -12.9761343 -0.366896E+00  0.426E+00    0.13       1.0  T
 189    -13.1097840 -0.133650E+00  0.140E-01    0.07       1.0  T
 190    -13.0180177  0.917664E-01  0.308E+00    0.05       1.0  T
 191    -12.8867354  0.131282E+00  0.573E+00    0.26       1.0  T
 192    -12.8643330  0.224024E-01  0.626E+00    0.01       1.0  T
 193    -12.8663570 -0.202400E-02  0.601E+00    0.35       1.0  T
 194    -12.7670624  0.992946E-01  0.593E+00    0.00       1.0  T
 195    -12.9172718 -0.150209E+00  0.488E+00    0.03       1.0  T
 196    -12.8643681  0.529037E-01  0.606E+00    0.35       1.0  T
 197    -13.1012363 -0.236868E+00  0.107E+00    0.07       1.0  T
 198    -12.7750128  0.326223E+00  0.702E+00    0.00       1.0  T
 199    -12.8770853 -0.102073E+00  0.587E+00    0.27       1.0  T
 200    -12.5184907  0.358595E+00  0.771E+00    0.00       1.0  T
 201    -13.0120245 -0.493534E+00  0.348E+00    0.11       1.0  T
 202    -12.9635374  0.484870E-01  0.366E+00    0.03       1.0  T
 203    -13.0366734 -0.731360E-01  0.274E+00    0.08       1.0  T
 204    -13.0133230  0.233505E-01  0.387E+00    0.13       1.0  T
 205    -12.7700026  0.243320E+00  0.714E+00    0.01       1.0  T
 206    -12.8611140 -0.911114E-01  0.612E+00    0.44       1.0  T
 207    -13.0941483 -0.233034E+00  0.123E+00    0.06       1.0  T
 208    -12.8158990  0.278249E+00  0.701E+00    0.01       1.0  T
 209    -12.8611843 -0.452853E-01  0.612E+00    0.43       1.0  T
 210    -12.9687991 -0.107615E+00  0.358E+00    0.03       1.0  T
 211    -13.0014682 -0.326690E-01  0.341E+00    0.05       1.0  T
 212    -13.0360369 -0.345687E-01  0.355E+00    0.11       1.0  T
 213    -13.0955716 -0.595348E-01  0.138E+00    0.10       1.0  T
 214    -12.2911837  0.804388E+00  0.912E+00    0.00       1.0  T
 215    -12.9670873 -0.675904E+00  0.443E+00    0.14       1.0  T
 216    -12.4955462  0.471541E+00  0.786E+00    0.00       1.0  T
 217    -12.9494887 -0.453942E+00  0.474E+00    0.15       1.0  T
 218    -13.0980566 -0.148568E+00  0.125E+00    0.06       1.0  T
 219    -13.0324810  0.655755E-01  0.272E+00    0.06       1.0  T
 220    -12.9089133  0.123568E+00  0.542E+00    0.22       1.0  T
 221    -12.8466277  0.622857E-01  0.645E+00    0.01       1.0  T
 222    -12.8678273 -0.211996E-01  0.599E+00    0.33       1.0  T
 223    -12.8811568 -0.133295E-01  0.486E+00    0.01       1.0  T
 224    -12.8756296  0.552719E-02  0.546E+00    0.03       1.0  T
 225    -12.8642466  0.113830E-01  0.606E+00    0.36       1.0  T
 226    -13.0998819 -0.235635E+00  0.111E+00    0.07       1.0  T
 227    -12.8241472  0.275735E+00  0.667E+00    0.00       1.0  T
 228    -12.8792684 -0.551212E-01  0.583E+00    0.26       1.0  T
 229    -12.5851539  0.294115E+00  0.723E+00    0.00       1.0  T
 230    -13.0113018 -0.426148E+00  0.348E+00    0.11       1.0  T
 231    -12.8692952  0.142007E+00  0.477E+00    0.01       1.0  T
 232    -13.0127067 -0.143412E+00  0.344E+00    0.11       1.0  T
 233    -13.1000459 -0.873392E-01  0.116E+00    0.07       1.0  T
 234    -12.8367795  0.263266E+00  0.598E+00    0.02       1.0  T
 235    -12.8628608 -0.260814E-01  0.608E+00    0.41       1.0  T
 236    -13.0827772 -0.219916E+00  0.174E+00    0.09       1.0  T
 237    -12.3149480  0.767829E+00  0.899E+00    0.00       1.0  T
 238    -12.9639169 -0.648969E+00  0.448E+00    0.14       1.0  T
 239    -12.8616171  0.102300E+00  0.523E+00    0.01       1.0  T
 240    -13.0299135 -0.168296E+00  0.297E+00    0.09       1.0  T
 241    -12.9988075  0.311059E-01  0.402E+00    0.15       1.0  T
 242    -12.8474012  0.151406E+00  0.643E+00    0.01       1.0  T
 243    -12.8668920 -0.194907E-01  0.601E+00    0.34       1.0  T
 244    -13.0933716 -0.226480E+00  0.134E+00    0.05       1.0  T
 245    -12.8761279  0.217244E+00  0.594E+00    0.02       1.0  T
 246    -12.8659682  0.101597E-01  0.602E+00    0.37       1.0  T
 247    -13.0182427 -0.152275E+00  0.292E+00    0.04       1.0  T
 248    -12.8599082  0.158335E+00  0.572E+00    0.02       1.0  T
 249    -12.8723447 -0.124366E-01  0.595E+00    0.29       1.0  T
 250    -12.9497629 -0.774181E-01  0.384E+00    0.03       1.0  T
     SCC iter.                  ...        0 min,  0.163 sec
     gradient                   ...        0 min,  0.000 sec
 * total energy  :   -12.4468999 Eh     change       -0.6146057E+01 Eh
   gradient norm :     4.2438965 Eh/α   predicted    -0.8085810E+01 (  31.56%)
   displ. norm   :     0.4526075 α      lambda       -0.1912297E+01
   maximum displ.:     0.4456089 α      in ANC's #12, #11, #1, ...

........................................................................
.............................. CYCLE    4 ..............................
........................................................................
   1    -12.9149810 -0.129150E+02  0.652E+00    0.24       0.0  T
   2    -12.1004194  0.814562E+00  0.114E+01    0.00       1.0  T
   3    -12.4251627 -0.324743E+00  0.104E+01    0.00       1.0  T
   4    -12.2813365  0.143826E+00  0.898E+00    0.00       1.0  T
   5    -12.8477134 -0.566377E+00  0.701E+00    1.04       1.0  T
   6    -12.8951721 -0.474587E-01  0.590E+00    0.29       1.0  T
   7    -12.4716411  0.423531E+00  0.980E+00    0.01       1.0  T
   8    -12.4669412  0.469994E-02  0.984E+00    0.01       1.0  T
   9    -12.4585699  0.837126E-02  0.101E+01    0.01       1.0  T
  10    -12.8842028 -0.425633E+00  0.605E+00    0.35       1.0  T
  11    -12.8055489  0.786539E-01  0.665E+00    0.04       1.0  T
  12    -12.8919085 -0.863596E-01  0.588E+00    0.32       1.0  T
  13    -13.0294572 -0.137549E+00  0.314E+00    0.12       1.0  T
  14    -12.9624881  0.669691E-01  0.429E+00    0.05       1.0  T
  15    -12.9634292 -0.941051E-03  0.480E+00    0.18       1.0  T
  16    -12.2387900  0.724639E+00  0.942E+00    0.00       1.0  T
  17    -12.8795025 -0.640713E+00  0.606E+00    0.46       1.0  T
  18    -12.9745193 -0.950167E-01  0.458E+00    0.17       1.0  T
  19    -12.3143269  0.660192E+00  0.898E+00    0.00       1.0  T
  20    -12.8800317 -0.565705E+00  0.603E+00    0.45       1.0  T
  21    -13.0611775 -0.181146E+00  0.218E+00    0.05       1.0  T
  22    -12.9186307  0.142547E+00  0.533E+00    0.24       1.0  T
  23    -12.8402731  0.783575E-01  0.565E+00    0.01       1.0  T
  24    -12.9439516 -0.103678E+00  0.492E+00    0.19       1.0  T
  25    -12.8819408  0.620107E-01  0.555E+00    0.04       1.0  T
  26    -12.9587600 -0.768192E-01  0.475E+00    0.20       1.0  T
  27    -13.1122441 -0.153484E+00  0.524E-01    0.09       1.0  T
  28    -13.0171000  0.951441E-01  0.343E+00    0.13       1.0  T
  29    -13.0613525 -0.442525E-01  0.225E+00    0.08       1.0  T
  30    -13.0450894  0.162632E-01  0.304E+00    0.14       1.0  T
  31    -13.1129526 -0.678632E-01  0.361E-01    0.08       1.0  T
  32    -13.0663809  0.465718E-01  0.229E+00    0.11       1.0  T
  33    -13.0897408 -0.233600E-01  0.156E+00    0.06       1.0  T
  34    -13.0888283  0.912492E-03  0.166E+00    0.10       1.0  T
  35    -13.0781607  0.106676E-01  0.188E+00    0.05       1.0  T
  36    -13.1092118 -0.310511E-01  0.774E-01    0.09       1.0  T
  37    -13.0891231  0.200887E-01  0.157E+00    0.06       1.0  T
  38    -13.1114020 -0.222790E-01  0.461E-01    0.08       1.0  T
  39    -13.0921289  0.192731E-01  0.144E+00    0.06       1.0  T
  40    -13.1056352 -0.135063E-01  0.835E-01    0.07       1.0  T
  41    -13.0931425  0.124927E-01  0.138E+00    0.06       1.0  T
  42    -13.1014344 -0.829186E-02  0.104E+00    0.07       1.0  T
  43    -13.0963958  0.503856E-02  0.125E+00    0.06       1.0  T
  44    -13.1032249 -0.682912E-02  0.955E-01    0.07       1.0  T
  45    -13.1050345 -0.180957E-02  0.869E-01    0.07       1.0  T
  46    -13.1127845 -0.774999E-02  0.305E-01    0.08       1.0  T
  47    -13.1132014 -0.416886E-03  0.127E-01    0.08       1.0  T
  48    -13.1119078  0.129364E-02  0.414E-01    0.09       1.0  T
  49    -13.1124452 -0.537439E-03  0.284E-01    0.09       1.0  T
  50    -13.1119744  0.470813E-03  0.396E-01    0.09       1.0  T
  51    -13.1125844 -0.610001E-03  0.271E-01    0.09       1.0  T
  52    -13.1127262 -0.141861E-03  0.261E-01    0.09       1.0  T
  53    -13.1130289 -0.302681E-03  0.176E-01    0.08       1.0  T
  54    -13.1131382 -0.109246E-03  0.144E-01    0.08       1.0  T
  55    -13.1132355 -0.973767E-04  0.949E-02    0.08       1.0  T
  56    -13.1132721 -0.365402E-04  0.713E-02    0.08       1.0  T
  57    -13.1132988 -0.267141E-04  0.420E-02    0.08       1.0  T
  58    -13.1133066 -0.785122E-05  0.290E-02    0.08       1.4  T
  59    -13.1133117 -0.502641E-05  0.134E-02    0.08       3.0  T
  60    -13.1133124 -0.706609E-06  0.973E-03    0.08       4.2  T
  61    -13.1133129 -0.490228E-06  0.517E-03    0.08       7.9  T
  62    -13.1133129 -0.113778E-07  0.537E-03    0.08       7.6  T
     SCC iter.                  ...        0 min,  0.007 sec
     gradient                   ...        0 min,  0.001 sec
 * total energy  :   -12.3463875 Eh     change        0.1005124E+00 Eh
   gradient norm :     6.4230435 Eh/α   predicted    -0.1152018E+01 (*******%)
   displ. norm   :     0.2306096 α      lambda       -0.1344878E+01
   maximum displ.:     0.2187541 α      in ANC's #12, #11, #1, ...

........................................................................
.............................. CYCLE    5 ..............................
........................................................................
   1    -12.8393425 -0.128393E+02  0.628E+00    0.00       0.0  T
   2    -12.6836556  0.155687E+00  0.895E+00    4.41       1.0  T
   3    -12.8294212 -0.145766E+00  0.705E+00    1.33       1.0  T
   4    -12.8853684 -0.559472E-01  0.596E+00    0.26       1.0  T
   5    -12.4855998  0.399769E+00  0.883E+00    0.00       1.0  T
   6    -12.5050330 -0.194332E-01  0.901E+00    0.00       1.0  T
   7    -12.5039601  0.107286E-02  0.901E+00    0.00       1.0  T
   8    -12.4329866  0.709735E-01  0.100E+01    0.00       1.0  T
   9    -12.9811173 -0.548131E+00  0.426E+00    0.14       1.0  T
  10    -13.0008639 -0.197466E-01  0.350E+00    0.05       1.0  T
  11    -12.9347690  0.660950E-01  0.504E+00    0.18       1.0  T
  12    -13.0732825 -0.138514E+00  0.250E+00    0.05       1.0  T
  13    -12.9979396  0.753430E-01  0.352E+00    0.05       1.0  T
  14    -13.0216218 -0.236822E-01  0.327E+00    0.11       1.0  T
  15    -12.8785267  0.143095E+00  0.470E+00    0.02       1.0  T
  16    -12.9977834 -0.119257E+00  0.353E+00    0.05       1.0  T
  17    -12.9457381  0.520453E-01  0.481E+00    0.17       1.0  T
  18    -13.0753099 -0.129572E+00  0.196E+00    0.06       1.0  T
  19    -12.9795883  0.957216E-01  0.436E+00    0.17       1.0  T
  20    -13.0097314 -0.301431E-01  0.301E+00    0.04       1.0  T
  21    -12.9326589  0.770725E-01  0.512E+00    0.20       1.0  T
  22    -13.0352118 -0.102553E+00  0.265E+00    0.04       1.0  T
  23    -12.9397868  0.954250E-01  0.512E+00    0.17       1.0  T
  24    -13.0277621 -0.879753E-01  0.280E+00    0.04       1.0  T
  25    -12.9544300  0.733321E-01  0.498E+00    0.16       1.0  T
  26    -13.0572389 -0.102809E+00  0.246E+00    0.05       1.0  T
  27    -13.0172390  0.399999E-01  0.407E+00    0.11       1.0  T
  28    -13.0727702 -0.555312E-01  0.244E+00    0.06       1.0  T
  29    -13.0706202  0.215004E-02  0.287E+00    0.08       1.0  T
  30    -13.0742041 -0.358387E-02  0.271E+00    0.07       1.0  T
  31    -13.0739657  0.238360E-03  0.272E+00    0.07       1.0  T
  32    -13.0752663 -0.130058E-02  0.252E+00    0.07       1.0  T
  33    -13.0763238 -0.105751E-02  0.234E+00    0.07       1.0  T
  34    -12.4292027  0.647121E+00  0.103E+01    0.00       1.0  T
  35    -12.3940791  0.351235E-01  0.122E+01    0.00       1.0  T
  36    -12.4375298 -0.434506E-01  0.101E+01    0.00       1.0  T
  37    -12.8681677 -0.430638E+00  0.607E+00    0.46       1.0  T
  38    -12.8702127 -0.204498E-02  0.616E+00    0.27       1.0  T
  39    -12.8742572 -0.404448E-02  0.595E+00    0.37       1.0  T
  40    -12.8741027  0.154456E-03  0.596E+00    0.35       1.0  T
  41    -12.8963715 -0.222688E-01  0.560E+00    0.24       1.0  T
  42    -12.8958830  0.488512E-03  0.561E+00    0.24       1.0  T
  43    -12.9929641 -0.970811E-01  0.395E+00    0.13       1.0  T
  44    -12.8686000  0.124364E+00  0.608E+00    0.44       1.0  T
  45    -12.9188802 -0.502803E-01  0.528E+00    0.19       1.0  T
  46    -12.9261632 -0.728300E-02  0.518E+00    0.18       1.0  T
  47    -12.9048805  0.212827E-01  0.553E+00    0.22       1.0  T
  48    -12.9258054 -0.209250E-01  0.521E+00    0.18       1.0  T
  49    -12.8936568  0.321487E-01  0.572E+00    0.24       1.0  T
  50    -12.9071138 -0.134570E-01  0.553E+00    0.21       1.0  T
  51    -12.8944310  0.126827E-01  0.573E+00    0.23       1.0  T
  52    -12.8944007  0.303210E-04  0.574E+00    0.23       1.0  T
  53    -13.0328728 -0.138472E+00  0.308E+00    0.11       1.0  T
  54    -12.2352591  0.797614E+00  0.946E+00    0.00       1.0  T
  55    -12.4423392 -0.207080E+00  0.990E+00    0.00       1.0  T
  56    -12.2458973  0.196442E+00  0.963E+00    0.01       1.0  T
  57    -12.2437754  0.212196E-02  0.966E+00    0.00       1.0  T
  58    -12.8601033 -0.616328E+00  0.623E+00    0.55       1.0  T
  59    -13.0040877 -0.143984E+00  0.462E+00    0.11       1.0  T
  60    -12.2485281  0.755560E+00  0.929E+00    0.01       1.0  T
  61    -12.8608056 -0.612278E+00  0.629E+00    0.55       1.0  T
  62    -12.9137660 -0.529603E-01  0.536E+00    0.20       1.0  T
  63    -12.4604678  0.453298E+00  0.965E+00    0.00       1.0  T
  64    -12.2369730  0.223495E+00  0.964E+00    0.01       1.0  T
  65    -12.8671786 -0.630206E+00  0.609E+00    0.45       1.0  T
  66    -12.8878913 -0.207128E-01  0.584E+00    0.24       1.0  T
  67    -12.2385846  0.649307E+00  0.945E+00    0.00       1.0  T
  68    -12.4387585 -0.200174E+00  0.101E+01    0.00       1.0  T
  69    -12.8721550 -0.433396E+00  0.623E+00    0.24       1.0  T
  70    -13.0277873 -0.155632E+00  0.367E+00    0.12       1.0  T
  71    -12.4979392  0.529848E+00  0.934E+00    0.01       1.0  T
  72    -12.4288979  0.690413E-01  0.105E+01    0.00       1.0  T
  73    -12.8873150 -0.458417E+00  0.502E+00    0.01       1.0  T
  74    -12.8434383  0.438767E-01  0.673E+00    0.90       1.0  T
  75    -12.8667527 -0.233144E-01  0.610E+00    0.42       1.0  T
  76    -12.4394429  0.427310E+00  0.991E+00    0.00       1.0  T
  77    -12.9115828 -0.472140E+00  0.632E+00    0.16       1.0  T
  78    -12.7109815  0.200601E+00  0.779E+00    0.00       1.0  T
  79    -12.8669523 -0.155971E+00  0.612E+00    0.42       1.0  T
  80    -12.5124221  0.354530E+00  0.922E+00    0.01       1.0  T
  81    -12.8364088 -0.323987E+00  0.695E+00    0.50       1.0  T
  82    -12.4547828  0.381626E+00  0.970E+00    0.00       1.0  T
  83    -12.8406493 -0.385867E+00  0.693E+00    0.31       1.0  T
  84    -12.7991441  0.415052E-01  0.653E+00    0.03       1.0  T
  85    -12.8575107 -0.583666E-01  0.639E+00    0.33       1.0  T
  86    -12.8890779 -0.315672E-01  0.574E+00    0.26       1.0  T
  87    -12.9399166 -0.508387E-01  0.508E+00    0.18       1.0  T
  88    -12.9677153 -0.277987E-01  0.359E+00    0.03       1.0  T
  89    -12.9261740  0.415412E-01  0.520E+00    0.19       1.0  T
  90    -12.9222668  0.390719E-02  0.523E+00    0.20       1.0  T
  91    -12.2371200  0.685147E+00  0.939E+00    0.00       1.0  T
  92    -12.8865151 -0.649395E+00  0.591E+00    0.25       1.0  T
  93    -12.9099097 -0.233946E-01  0.545E+00    0.21       1.0  T
  94    -12.5039715  0.405938E+00  0.775E+00    0.00       1.0  T
  95    -12.9459163 -0.441945E+00  0.500E+00    0.16       1.0  T
  96    -12.9092005  0.367158E-01  0.508E+00    0.03       1.0  T
  97    -12.9803487 -0.711483E-01  0.496E+00    0.13       1.0  T
  98    -12.2388303  0.741518E+00  0.940E+00    0.00       1.0  T
  99    -12.8737217 -0.634891E+00  0.608E+00    0.31       1.0  T
 100    -12.8950140 -0.212923E-01  0.564E+00    0.24       1.0  T
 101    -12.2333974  0.661617E+00  0.946E+00    0.00       1.0  T
 102    -12.6143962 -0.380999E+00  0.842E+00    0.01       1.0  T
 103    -12.8342570 -0.219861E+00  0.702E+00    1.35       1.0  T
 104    -12.4503545  0.383903E+00  0.976E+00    0.00       1.0  T
 105    -12.8316690 -0.381315E+00  0.708E+00    0.62       1.0  T
 106    -12.2328125  0.598856E+00  0.951E+00    0.00       1.0  T
 107    -12.4467983 -0.213986E+00  0.994E+00    0.00       1.0  T
 108    -12.8204097 -0.373611E+00  0.740E+00    1.45       1.0  T
 109    -12.4595221  0.360888E+00  0.966E+00    0.00       1.0  T
 110    -12.8351957 -0.375674E+00  0.698E+00    0.66       1.0  T
 111    -12.2413931  0.593803E+00  0.937E+00    0.00       1.0  T
 112    -12.8886527 -0.647260E+00  0.590E+00    0.24       1.0  T
 113    -12.8804820  0.817075E-02  0.589E+00    0.29       1.0  T
 114    -12.9693484 -0.888665E-01  0.470E+00    0.15       1.0  T
 115    -12.2798611  0.689487E+00  0.912E+00    0.00       1.0  T
 116    -12.8621257 -0.582265E+00  0.632E+00    0.43       1.0  T
 117    -12.8862228 -0.240971E-01  0.581E+00    0.27       1.0  T
 118    -12.6934999  0.192723E+00  0.638E+00    0.00       1.0  T
 119    -12.9688112 -0.275311E+00  0.458E+00    0.14       1.0  T
 120    -12.7077585  0.261053E+00  0.744E+00    0.01       1.0  T
 121    -12.8466476 -0.138889E+00  0.668E+00    0.39       1.0  T
 122    -12.2359719  0.610676E+00  0.949E+00    0.00       1.0  T
 123    -13.0237586 -0.787787E+00  0.345E+00    0.10       1.0  T
 124    -12.8968263  0.126932E+00  0.565E+00    0.25       1.0  T
 125    -12.2791640  0.617662E+00  0.915E+00    0.00       1.0  T
 126    -12.8931368 -0.613973E+00  0.585E+00    0.23       1.0  T
 127    -12.5323475  0.360789E+00  0.906E+00    0.00       1.0  T
 128    -12.8362983 -0.303951E+00  0.695E+00    0.85       1.0  T
 129    -12.2357314  0.600567E+00  0.944E+00    0.00       1.0  T
 130    -12.7581639 -0.522433E+00  0.706E+00    0.02       1.0  T
 131    -12.8471816 -0.890176E-01  0.665E+00    1.22       1.0  T
 132    -12.9834017 -0.136220E+00  0.414E+00    0.14       1.0  T
 133    -12.2428344  0.740567E+00  0.938E+00    0.00       1.0  T
 134    -12.8781232 -0.635289E+00  0.607E+00    0.28       1.0  T
 135    -12.9026556 -0.245325E-01  0.519E+00    0.03       1.0  T
 136    -12.8558359  0.468197E-01  0.639E+00    0.46       1.0  T
 137    -12.3786564  0.477180E+00  0.852E+00    0.00       1.0  T
 138    -12.8705456 -0.491889E+00  0.614E+00    0.33       1.0  T
 139    -12.9704460 -0.999004E-01  0.439E+00    0.15       1.0  T
 140    -12.2476287  0.722817E+00  0.937E+00    0.00       1.0  T
 141    -12.9047611 -0.657132E+00  0.567E+00    0.21       1.0  T
 142    -12.4685119  0.436249E+00  0.961E+00    0.00       1.0  T
 143    -12.8323990 -0.363887E+00  0.706E+00    1.01       1.0  T
 144    -12.2353410  0.597058E+00  0.945E+00    0.00       1.0  T
 145    -12.5183319 -0.282991E+00  0.924E+00    0.01       1.0  T
 146    -12.8377399 -0.319408E+00  0.692E+00    1.60       1.0  T
[...]
  24    -13.0431951  0.263393E-01  0.282E+00    0.09       1.0  T
  25    -13.0890688 -0.458737E-01  0.177E+00    0.10       1.0  T
  26    -13.1152523 -0.261834E-01  0.423E-01    0.07       1.0  T
  27    -13.0479933  0.672590E-01  0.267E+00    0.09       1.0  T
  28    -13.0770375 -0.290442E-01  0.194E+00    0.05       1.0  T
  29    -13.0445935  0.324439E-01  0.275E+00    0.09       1.0  T
  30    -13.1072561 -0.626626E-01  0.938E-01    0.06       1.0  T
  31    -13.0519493  0.553068E-01  0.259E+00    0.09       1.0  T
  32    -13.0145354  0.374140E-01  0.316E+00    0.04       1.0  T
  33    -13.0443076 -0.297723E-01  0.276E+00    0.09       1.0  T
  34    -13.0935293 -0.492217E-01  0.148E+00    0.06       1.0  T
  35    -13.0532882  0.402412E-01  0.256E+00    0.09       1.0  T
  36    -13.0250434  0.282448E-01  0.299E+00    0.04       1.0  T
  37    -13.0451242 -0.200807E-01  0.273E+00    0.09       1.0  T
  38    -13.0821834 -0.370592E-01  0.182E+00    0.05       1.0  T
  39    -13.0536743  0.285090E-01  0.255E+00    0.09       1.0  T
  40    -13.0458531  0.782126E-02  0.263E+00    0.04       1.0  T
  41    -13.0472768 -0.142376E-02  0.268E+00    0.09       1.0  T
  42    -13.0749597 -0.276828E-01  0.201E+00    0.05       1.0  T
  43    -13.0549271  0.200326E-01  0.252E+00    0.09       1.0  T
  44    -13.0590927 -0.416566E-02  0.237E+00    0.04       1.0  T
  45    -13.0510491  0.804362E-02  0.260E+00    0.09       1.0  T
  46    -13.0739808 -0.229316E-01  0.203E+00    0.05       1.0  T
  47    -13.0579511  0.160297E-01  0.246E+00    0.09       1.0  T
  48    -13.0715312 -0.135801E-01  0.209E+00    0.05       1.0  T
  49    -13.0570611  0.144701E-01  0.248E+00    0.09       1.0  T
  50    -13.0824829 -0.254218E-01  0.182E+00    0.05       1.0  T
  51    -13.0644451  0.180379E-01  0.232E+00    0.09       1.0  T
  52    -13.0887454 -0.243004E-01  0.164E+00    0.05       1.0  T
  53    -13.0675137  0.212317E-01  0.224E+00    0.09       1.0  T
  54    -13.0993470 -0.318333E-01  0.129E+00    0.06       1.0  T
  55    -13.0773663  0.219807E-01  0.201E+00    0.09       1.0  T
  56    -13.1080585 -0.306921E-01  0.908E-01    0.06       1.0  T
  57    -13.0856424  0.224161E-01  0.178E+00    0.09       1.0  T
  58    -13.1145241 -0.288817E-01  0.460E-01    0.07       1.0  T
  59    -13.0972777  0.172465E-01  0.141E+00    0.09       1.0  T
  60    -13.1167091 -0.194314E-01  0.125E-01    0.08       1.0  T
  61    -13.1056977  0.110114E-01  0.107E+00    0.09       1.0  T
  62    -13.1161733 -0.104756E-01  0.276E-01    0.08       1.0  T
  63    -13.1113285  0.484478E-02  0.753E-01    0.09       1.0  T
  64    -13.1156864 -0.435792E-02  0.351E-01    0.08       1.0  T
  65    -13.1140209  0.166555E-02  0.539E-01    0.09       1.0  T
  66    -13.1158208 -0.179990E-02  0.326E-01    0.08       1.0  T
  67    -13.1153312  0.489631E-03  0.394E-01    0.08       1.0  T
  68    -13.1161288 -0.797619E-03  0.270E-01    0.08       1.0  T
  69    -13.1160160  0.112786E-03  0.289E-01    0.08       1.0  T
  70    -13.1164876 -0.471602E-03  0.187E-01    0.08       1.0  T
  71    -13.1164792  0.841020E-05  0.188E-01    0.08       1.0  T
  72    -13.1168137 -0.334493E-03  0.133E-02    0.08       3.1  T
  73    -13.1167843  0.294240E-04  0.562E-02    0.08       1.0  T
  74    -13.1168092 -0.249873E-04  0.227E-02    0.08       1.8  T
  75    -13.1168119 -0.267213E-05  0.170E-02    0.08       2.4  T
  76    -13.1168128 -0.922094E-06  0.134E-02    0.08       3.1  T
  77    -13.1168146 -0.175369E-05  0.343E-03    0.08      11.9  T
  78    -13.1168144  0.223922E-06  0.562E-03    0.08       7.3  T
  79    -13.1168146 -0.279378E-06  0.218E-03    0.08      18.7  T
  80    -13.1168147 -0.404547E-07  0.976E-04    0.08      41.8  T
  81    -13.1168147 -0.972022E-08  0.396E-05    0.08    1029.8  T
     SCC iter.                  ...        0 min,  0.008 sec
     gradient                   ...        0 min,  0.000 sec
 * total energy  :   -13.0571592 Eh     change        0.1285682E-04 Eh
   gradient norm :     0.0018088 Eh/α   predicted    -0.6431159E-05 (-150.02%)
   displ. norm   :     0.0375524 α      lambda       -0.2113531E-04
   maximum displ.:     0.0375508 α      in ANC's #1, #8, #4, ...

........................................................................
.............................. CYCLE   27 ..............................
........................................................................
   1    -13.1158498 -0.131158E+02  0.322E-01    0.08       0.0  T
   2    -12.2261131  0.889737E+00  0.958E+00    0.00       1.0  T
   3    -13.0566789 -0.830566E+00  0.238E+00    0.05       1.0  T
   4    -13.1166650 -0.599861E-01  0.169E-01    0.07       1.0  T
   5    -13.1157206  0.944380E-03  0.431E-01    0.08       1.0  T
   6    -13.1161125 -0.391948E-03  0.370E-01    0.08       1.0  T
   7    -13.1104488  0.566370E-02  0.860E-01    0.06       1.0  T
   8    -13.1150100 -0.456112E-02  0.452E-01    0.08       1.0  T
   9    -13.1168924 -0.188242E-02  0.943E-02    0.08       1.0  T
  10    -13.1169521 -0.597139E-04  0.271E-02    0.08       1.5  T
  11    -13.1169560 -0.386669E-05  0.887E-03    0.08       4.6  T
  12    -13.1169553  0.707918E-06  0.119E-02    0.08       3.4  T
  13    -13.1169566 -0.136313E-05  0.452E-03    0.08       9.0  T
  14    -13.1169568 -0.163628E-06  0.565E-04    0.08      72.3  T
  15    -13.1169568  0.787926E-08  0.941E-04    0.08      43.4  T
     SCC iter.                  ...        0 min,  0.001 sec
     gradient                   ...        0 min,  0.001 sec
 * total energy  :   -13.0571749 Eh     change       -0.1570800E-04 Eh
   gradient norm :     0.0001526 Eh/α   predicted    -0.1057484E-04 ( -32.68%)
   displ. norm   :     0.0006608 α      lambda       -0.1333753E-07
   maximum displ.:     0.0004332 α      in ANC's #4, #5, #8, ...

........................................................................
.............................. CYCLE   28 ..............................
........................................................................
   1    -13.1169295 -0.131169E+02  0.114E-02    0.08       0.0  T
   2    -13.1121854  0.474412E-02  0.814E-01    0.07       1.0  T
   3    -13.1167685 -0.458312E-02  0.122E-01    0.08       1.0  T
   4    -13.1168899 -0.121457E-03  0.642E-02    0.08       1.0  T
   5    -13.1169288 -0.389016E-04  0.141E-02    0.08       2.9  T
   6    -13.1169299 -0.105293E-05  0.744E-03    0.08       5.5  T
   7    -13.1169303 -0.377808E-06  0.825E-04    0.08      49.5  T
   8    -13.1169303 -0.424486E-08  0.234E-04    0.08     174.1  T
     SCC iter.                  ...        0 min,  0.001 sec
     gradient                   ...        0 min,  0.000 sec
 * total energy  :   -13.0571749 Eh     change       -0.3770156E-07 Eh
   gradient norm :     0.0000767 Eh/α   predicted    -0.5644192E-08 ( -85.03%)
   displ. norm   :     0.0007841 α      lambda        0.2006011E-09
   maximum displ.:     0.0005364 α      in ANC's #4, #5, #3, ...

   *** GEOMETRY OPTIMIZATION CONVERGED AFTER 28 ITERATIONS ***

------------------------------------------------------------------------
 total energy gain   :        -7.1245822 Eh    -4470.7429 kcal/mol
 total RMSD          :         0.3161361 a0        0.1673 Å
 total power (kW/mol):      -668.0567187 (step)********** (real)
------------------------------------------------------------------------

 ANCopt (total)                0 d,  0 h,  0 min,  1.039 sec
 optimizer setup                ...        0 min,  0.000 sec (  0.007%)
 model hessian                  ...        0 min,  0.000 sec (  0.014%)
 ANC generation                 ...        0 min,  0.000 sec (  0.016%)
 coordinate transformation      ...        0 min,  0.000 sec (  0.014%)
 single point calculation       ...        0 min,  1.036 sec ( 99.696%)
 optimization log               ...        0 min,  0.001 sec (  0.072%)
 hessian update                 ...        0 min,  0.000 sec (  0.013%)
 rational function              ...        0 min,  0.001 sec (  0.087%)

================
 final structure:
================
6
 xtb: 6.2.3 (830e466)
F        -4.68604901183645   -0.27798807837628    0.08196255836571
Cl        3.29919455934204    0.18510087328393   -0.06167546551432
C        -0.69387174005741   -0.03706740397540    0.01468750212158
H        -0.67114318099048   -0.61909727656128   -0.88035359743173
H        -0.64306152832773   -0.51896668208291    0.96631465998474
H        -0.74800909813173    1.02793856771185   -0.04222565752719
 
 Bond Distances (Angstroems)
 ---------------------------
C3-H4=1.0679         C3-H5=1.0679         C3-H6=1.0679         H4-C3=1.0679         H5-C3=1.0679         H6-C3=1.0679         
 C  H  Rav=1.0679 sigma=0.0000  Rmin=1.0679  Rmax=1.0679     3
 
 selected bond angles (degree)
 --------------------
H5-C3-H4=120.00                H6-C3-H4=120.00                H6-C3-H5=120.00                
 
 selected dihedral angles (degree)
 ---------------------------------

 
 CMA Distance (Angstroems)
 ---------------------------
R(CMA):  6.8092
           -------------------------------------------------
          |                Final Singlepoint                |
           -------------------------------------------------

          ...................................................
          :                      SETUP                      :
          :.................................................:
          :  # basis functions                  21          :
          :  # atomic orbitals                  20          :
          :  # shells                           10          :
          :  # electrons                        22          :
          :  max. iterations                   250          :
          :  Hamiltonian                  GFN2-xTB          :
          :  restarted?                      false          :
          :  GBSA solvation                  false          :
          :  PC potential                    false          :
          :  electronic temp.          300.0000000     K    :
          :  accuracy                    1.0000000          :
          :  -> integral cutoff          0.2500000E+02      :
          :  -> integral neglect         0.1000000E-07      :
          :  -> SCF convergence          0.1000000E-05 Eh   :
          :  -> wf. convergence          0.1000000E-03 e    :
          :  Broyden damping             0.4000000          :
          ...................................................

 iter      E             dE          RMSdq      gap      omega  full diag
   1    -13.1169303 -0.131169E+02  0.420E-04    0.08       0.0  T
   2    -13.1169267  0.356865E-05  0.220E-02    0.08       1.9  T
   3    -13.1169296 -0.285956E-05  0.892E-03    0.08       4.6  T
   4    -13.1169300 -0.402385E-06  0.680E-03    0.08       6.0  T
   5    -13.1169302 -0.216374E-06  0.362E-03    0.08      11.3  T
   6    -13.1169303 -0.909344E-07  0.449E-05    0.08     909.0  T
   7    -13.1169303 -0.116049E-10  0.118E-05    0.08    3447.0  T

   *** convergence criteria satisfied after 7 iterations ***

         #    Occupation            Energy/Eh            Energy/eV
      -------------------------------------------------------------
         1        2.0000           -0.8681407             -23.6233
       ...           ...                  ...                  ...
         5        2.0000           -0.3830102             -10.4222
         6        1.9485           -0.2488004              -6.7702
         7        1.8862           -0.2480161              -6.7489
         8        1.8862           -0.2480161              -6.7489
         9        1.8504           -0.2477380              -6.7413
        10        1.8416           -0.2476794              -6.7397
        11        1.8415           -0.2476792              -6.7397 (HOMO)
        12        0.7457           -0.2448548              -6.6628 (LUMO)
        13                          0.2211474               6.0177
        14                          0.2363600               6.4317
        15                          0.2364136               6.4331
        16                          0.2364136               6.4331
       ...                                ...                  ...
        20                          0.3899887              10.6121
      -------------------------------------------------------------
                  HL-Gap            0.0028244 Eh            0.0769 eV
             Fermi-level           -0.2453488 Eh           -6.6763 eV

 SCC (total)                   0 d,  0 h,  0 min,  0.002 sec
 SCC setup                      ...        0 min,  0.000 sec (  2.636%)
 Dispersion                     ...        0 min,  0.000 sec (  0.396%)
 integral evaluation            ...        0 min,  0.001 sec ( 35.518%)
 zeroth order Hamiltonian       ...        0 min,  0.000 sec (  0.683%)
 iterations                     ...        0 min,  0.001 sec ( 29.441%)
 molecular gradient             ...        0 min,  0.000 sec ( 27.270%)
 printout                       ...        0 min,  0.000 sec (  2.922%)

         :::::::::::::::::::::::::::::::::::::::::::::::::::::
         ::                     SUMMARY                     ::
         :::::::::::::::::::::::::::::::::::::::::::::::::::::
         :: total energy             -13.057174889030 Eh    ::
         :: gradient norm              0.000076715306 Eh/a0 ::
         :: HOMO-LUMO gap              0.076855940759 eV    ::
         ::.................................................::
         :: SCC energy               -13.116930267196 Eh    ::
         :: -> isotropic ES            0.151313279672 Eh    ::
         :: -> anisotropic ES         -0.000670169047 Eh    ::
         :: -> anisotropic XC          0.006725993593 Eh    ::
         :: -> dispersion             -0.001169052415 Eh    ::
         :: repulsion energy           0.059757701761 Eh    ::
         :: add. restraining           0.000000031189 Eh    ::
         :::::::::::::::::::::::::::::::::::::::::::::::::::::

           -------------------------------------------------
          |                Property Printout                |
           -------------------------------------------------

    * Orbital Energies and Occupations

         #    Occupation            Energy/Eh            Energy/eV
      -------------------------------------------------------------
         1        2.0000           -0.8681407             -23.6233
         2        2.0000           -0.5347480             -14.5512
         3        2.0000           -0.4812496             -13.0955
         4        2.0000           -0.3830401             -10.4231
         5        2.0000           -0.3830102             -10.4222
         6        1.9485           -0.2488004              -6.7702
         7        1.8862           -0.2480161              -6.7489
         8        1.8862           -0.2480161              -6.7489
         9        1.8504           -0.2477380              -6.7413
        10        1.8416           -0.2476794              -6.7397
        11        1.8415           -0.2476792              -6.7397 (HOMO)
        12        0.7457           -0.2448548              -6.6628 (LUMO)
        13                          0.2211474               6.0177
        14                          0.2363600               6.4317
        15                          0.2364136               6.4331
        16                          0.2364136               6.4331
        17                          0.2366445               6.4394
        18                          0.2366445               6.4394
        19                          0.3899427              10.6109
        20                          0.3899887              10.6121
      -------------------------------------------------------------
                  HL-Gap            0.0028244 Eh            0.0769 eV
             Fermi-level           -0.2453488 Eh           -6.6763 eV

     #   Z        covCN         q      C6AA      α(0)
     1   9 F      0.000    -0.527    15.717     4.618
     2  17 Cl     0.000    -0.608   111.986    16.105
     3   6 C      2.780    -0.099    30.465     9.040
     4   1 H      0.927     0.078     2.000     2.211
     5   1 H      0.927     0.078     2.001     2.212
     6   1 H      0.927     0.078     2.002     2.212

 Mol. C6AA /au·bohr⁶  :        584.271454
 Mol. C8AA /au·bohr⁸  :      16539.178175
 Mol. α(0) /au        :         36.399048


Wiberg/Mayer (AO) data.
largest (>0.10) Wiberg bond orders for each atom
          total WBO             WBO to atom ...
     1  F   0.007
     2  Cl  0.122        C    3 0.122
     3  C   3.106        H    6 0.992    H    5 0.992    H    4 0.992    Cl   2 0.122
     4  H   0.994        C    3 0.992
     5  H   0.994        C    3 0.992
     6  H   0.994        C    3 0.992

molecular dipole:
                 x           y           z       tot (Debye)
 q only:        0.700       0.055      -0.007
   full:        0.687       0.054      -0.007       1.753
molecular quadrupole (traceless):
                xx          xy          yy          xz          yz          zz
 q only:      -65.079      -5.687      32.389       1.753       0.102      32.690
  q+dip:      -66.279      -5.789      32.987       1.785       0.104      33.292
   full:      -65.509      -5.724      32.603       1.764       0.103      32.905

           -------------------------------------------------
          |                Geometry Summary                 |
           -------------------------------------------------

      molecular mass/u    :       69.4858989
   center of mass at/Å    :        0.2522266       0.0104314      -0.0058851
  moments of inertia/u·Å² :        0.3449472E+01   0.8105540E+03   0.8105553E+03
rotational constants/cm⁻¹ :        0.4887018E+01   0.2079767E-01   0.2079763E-01

 * 3 selected distances

     #   Z        #   Z                                     value/Å
     3   6 C      4   1 H                                 1.0678829 (min)
     3   6 C      5   1 H                                 1.0678965
     3   6 C      6   1 H                                 1.0678987 (max)

 * 1 distinct bonds (by element types)

   Z      Z             #   av. dist./Å        max./Å        min./Å
   1 H    6 C           3     1.0678927     1.0678987     1.0678829


optimized geometry written to: xtbopt.xyz


           -------------------------------------------------
          | TOTAL ENERGY              -13.057174889030 Eh   |
          | GRADIENT NORM               0.000076715306 Eh/α |
          | HOMO-LUMO GAP               0.076855940759 eV   |
           -------------------------------------------------
########################################################################
[WARNING] Runtime exception occurred
-8- scf: Self consistent charge iterator did not converge
-7- scf: Self consistent charge iterator did not converge
-6- scf: Self consistent charge iterator did not converge
-5- scf: Self consistent charge iterator did not converge
-4- scf: Self consistent charge iterator did not converge
-3- scf: Self consistent charge iterator did not converge
-2- scf: Self consistent charge iterator did not converge
-1- scf: Self consistent charge iterator did not converge
########################################################################

------------------------------------------------------------------------
 * finished run on 2020/04/08 at 23:04:03.043     
------------------------------------------------------------------------
 total:
 * wall-time:     0 d,  0 h,  0 min,  1.256 sec
 *  cpu-time:     0 d,  0 h,  0 min,  1.237 sec
 * ratio c/w:     0.985 speedup
 SCF:
 * wall-time:     0 d,  0 h,  0 min,  0.191 sec
 *  cpu-time:     0 d,  0 h,  0 min,  0.186 sec
 * ratio c/w:     0.975 speedup
 ANC optimizer:
 * wall-time:     0 d,  0 h,  0 min,  1.041 sec
 *  cpu-time:     0 d,  0 h,  0 min,  1.041 sec
 * ratio c/w:     1.000 speedup

