      -----------------------------------------------------------      
     |                   =====================                   |     
     |                           x T B                           |     
     |                   =====================                   |     
     |                         S. Grimme                         |     
     |          Mulliken Center for Theoretical Chemistry        |     
     |                    University of Bonn                     |     
      -----------------------------------------------------------      

   * xtb version 6.2.3 (830e466) compiled by 'ehlert@majestix' on 2020-03-16

   xtb is free software: you can redistribute it and/or modify it under
   the terms of the GNU Lesser General Public License as published by
   the Free Software Foundation, either version 3 of the License, or
   (at your option) any later version.
   
   xtb is distributed in the hope that it will be useful,
   but WITHOUT ANY WARRANTY; without even the implied warranty of
   MERCHANTABILITY or FITNESS FOR A PARTICULAR PURPOSE.  See the
   GNU Lesser General Public License for more details.
   
   Cite this work as:
   * S. Grimme, C. Bannwarth, P. Shushkov, J. Chem. Theory Comput., 2017,
     13, 1989-2009. DOI: 10.1021/acs.jctc.7b00118
   * C. Bannwarth, S. Ehlert and S. Grimme., J. Chem. Theory Comput., 2019,
     15, 1652-1671. DOI: 10.1021/acs.jctc.8b01176
   * P. Pracht, E. Caldeweyher, S. Ehlert, S. Grimme, ChemRxiv, 2019, preprint.
     DOI: 10.26434/chemrxiv.8326202.v1
   
   for DFT-D4:
   * E. Caldeweyher, C. Bannwarth and S. Grimme, J. Chem. Phys., 2017,
     147, 034112. DOI: 10.1063/1.4993215
   * E. Caldeweyher, S. Ehlert, A. Hansen, H. Neugebauer, S. Spicher,
     C. Bannwarth and S. Grimme, J. Chem. Phys., 2019, 150, 154122.
     DOI: 10.1063/1.5090222
   
   for sTDA-xTB:
   * S. Grimme and C. Bannwarth, J. Chem. Phys., 2016, 145, 054103.
     DOI: 10.1063/1.4959605
   
   in the mass-spec context:
   * V. Asgeirsson, C. Bauer and S. Grimme, Chem. Sci., 2017, 8, 4879.
     DOI: 10.1039/c7sc00601b
   
   for metadynamics refer to:
   * S. Grimme, J. Chem. Theory Comput., 2019, 155, 2847-2862
     DOI: 10.1021/acs.jctc.9b00143
   
   with help from (in alphabetical order)
   C. Bannwarth, F. Bohle, G. Brandenburg, E. Caldeweyher, M. Checinski,
   S. Dohm, S. Ehlert, S. Ehrlich, F. März, H. Neugebauer, J. Pisarek,
   P. Pracht, P. Shushkov, and S. Spicher.
   
 * started run on 2020/04/08 at 23:03:59.851     

           -------------------------------------------------
          |                Calculation Setup                |
           -------------------------------------------------

          program call               : /home/tom/.local/bin/xtb SN2_PES_scan_0-4_xtb.xyz --chrg -1 --opt --input xcontrol_SN2_PES_scan_0-4
          coordinate file            : SN2_PES_scan_0-4_xtb.xyz
          omp threads                :                     1
          number of atoms            :                     6
          number of electrons        :                    22
          charge                     :                    -1
          spin                       :                   0.0
          first test random number   :      0.87582708170884

constraining bond 1 3 to    4.0000000 Å, actual value:    4.0000118 Å
constraining bond 2 3 to    3.5560000 Å, actual value:    3.1115547 Å

molecular fragmentation (1/2 indicates fragments):
122222
# atoms in fragment 1/2:     1     5
 fragment masses (1/2) :       19.00       50.49
CMA distance (Bohr)    :  11.688
constraining FC (au)   : 10.0000
########################################################################
[WARNING] Please study the warnings concerning your input carefully
-2- prog_main: XTBPATH is not set, using XTBHOME instead
-1- prog_main: XTBHOME is not set, using HOME instead
########################################################################
           ------------------------------------------------- 
          |                 G F N 2 - x T B                 |
          | Geometry, Frequencies, Noncovalent interactions |
          |            JCTC 2019 parametrisation            |
           ------------------------------------------------- 
             k(s)              :                1.8500
             k(p)              :                2.2300
             k(d)              :                2.2300
             k(f)              :                2.0000
             kEN (H0ij)        :               -2.0000
             D4 a1             :                0.5200
             D4 a2             :                5.0000
             D4 s6             :                1.0000
             D4 s8             :                2.7000
             D4 s9             :                5.0000
             alphaj            :                2.0000

  Z AO/shell   Hii/eV     exponent
  1     Wed Apr 25 08:07:45 CEST 2018   EN: 2.200 GM2: 0.406  GM3: 0.0800  RAES: 1.40
     1s    -10.707211    1.230000
  6     Wed Apr 25 08:07:45 CEST 2018   EN: 2.550 GM2: 0.538  GM3: 0.1500  RAES: 3.00
     2s    -13.970922    2.096432
     2p    -10.063292    1.800000
  9     Mon Apr 23 13:58:50 CEST 2018   EN: 3.980 GM2: 0.532  GM3: 0.1426  RAES: 2.40
     2s    -23.458179    2.416361
     2p    -15.746583    2.308399
 17     Mon Apr 23 14:09:22 CEST 2018   EN: 3.160 GM2: 0.249  GM3: 0.1495  RAES: 2.50
     3s    -29.278781    2.485265
     3p    -12.673758    2.199650
     3d     -0.240338    2.476089

           ------------------------------------------------- 
          |        Self-Consistent Charge Iterations        |
           ------------------------------------------------- 

          ...................................................
          :                      SETUP                      :
          :.................................................:
          :  # basis functions                  21          :
          :  # atomic orbitals                  20          :
          :  # shells                           10          :
          :  # electrons                        22          :
          :  max. iterations                   250          :
          :  Hamiltonian                  GFN2-xTB          :
          :  restarted?                      false          :
          :  GBSA solvation                  false          :
          :  PC potential                    false          :
          :  electronic temp.          300.0000000     K    :
          :  accuracy                    1.0000000          :
          :  -> integral cutoff          0.2500000E+02      :
          :  -> integral neglect         0.1000000E-07      :
          :  -> SCF convergence          0.1000000E-05 Eh   :
          :  -> wf. convergence          0.1000000E-03 e    :
          :  Broyden damping             0.4000000          :
          ...................................................

 iter      E             dE          RMSdq      gap      omega  full diag
   1    -12.8262986 -0.128263E+02  0.103E+01    1.24       0.0  T
   2    -12.0831741  0.743125E+00  0.105E+01    0.00       1.0  T
   3    -13.0597014 -0.976527E+00  0.487E+00    0.44       1.0  T
   4    -13.0021619  0.575395E-01  0.519E+00    0.73       1.0  T
   5    -12.6049947  0.397167E+00  0.102E+01    0.06       1.0  T
   6    -12.6057700 -0.775358E-03  0.102E+01    0.06       1.0  T
   7    -12.1766044  0.429166E+00  0.105E+01    0.00       1.0  T
   8    -12.3342911 -0.157687E+00  0.882E+00    0.00       1.0  T
   9    -12.1946390  0.139652E+00  0.973E+00    0.00       1.0  T
  10    -12.1946034  0.355716E-04  0.975E+00    0.00       1.0  T
  11    -12.1920237  0.257974E-02  0.991E+00    0.00       1.0  T
  12    -12.1942584 -0.223474E-02  0.977E+00    0.00       1.0  T
  13    -13.0326725 -0.838414E+00  0.453E+00    0.57       1.0  T
  14    -13.0236405  0.903200E-02  0.431E+00    0.63       1.0  T
  15    -13.0223765  0.126404E-02  0.438E+00    0.63       1.0  T
  16    -13.0166051  0.577135E-02  0.428E+00    0.67       1.0  T
  17    -13.0228105 -0.620541E-02  0.397E+00    0.65       1.0  T
  18    -13.0306904 -0.787990E-02  0.367E+00    0.62       1.0  T
  19    -12.5687479  0.461943E+00  0.736E+00    0.00       1.0  T
  20    -13.0285257 -0.459778E+00  0.414E+00    0.61       1.0  T
  21    -13.0401435 -0.116177E-01  0.347E+00    0.58       1.0  T
  22    -13.0494518 -0.930830E-02  0.299E+00    0.40       1.0  T
  23    -12.1875635  0.861888E+00  0.993E+00    0.00       1.0  T
  24    -13.0345416 -0.846978E+00  0.418E+00    0.58       1.0  T
  25    -13.0491945 -0.146529E-01  0.325E+00    0.54       1.0  T
  26    -12.1904054  0.858789E+00  0.972E+00    0.00       1.0  T
  27    -13.0222565 -0.831851E+00  0.481E+00    0.62       1.0  T
  28    -13.0535312 -0.312747E-01  0.321E+00    0.51       1.0  T
  29    -12.1947723  0.858759E+00  0.950E+00    0.00       1.0  T
  30    -13.0169620 -0.822190E+00  0.508E+00    0.63       1.0  T
  31    -13.0537417 -0.367798E-01  0.330E+00    0.51       1.0  T
  32    -13.0589894 -0.524769E-02  0.281E+00    0.47       1.0  T
  33    -12.1931398  0.865850E+00  0.955E+00    0.00       1.0  T
  34    -13.0193143 -0.826174E+00  0.500E+00    0.62       1.0  T
  35    -13.0538927 -0.345784E-01  0.327E+00    0.50       1.0  T
  36    -13.0588362 -0.494343E-02  0.280E+00    0.45       1.0  T
  37    -12.1927531  0.866083E+00  0.958E+00    0.00       1.0  T
  38    -13.0183986 -0.825645E+00  0.501E+00    0.63       1.0  T
  39    -13.0539100 -0.355115E-01  0.324E+00    0.50       1.0  T
  40    -13.0599510 -0.604100E-02  0.273E+00    0.35       1.0  T
  41    -12.1917070  0.868244E+00  0.965E+00    0.00       1.0  T
  42    -13.0193499 -0.827643E+00  0.495E+00    0.62       1.0  T
  43    -13.0538135 -0.344637E-01  0.321E+00    0.50       1.0  T
  44    -13.0853306 -0.315170E-01  0.214E+00    0.19       1.0  T
  45    -12.1927356  0.892595E+00  0.960E+00    0.00       1.0  T
  46    -13.0167413 -0.824006E+00  0.503E+00    0.63       1.0  T
  47    -13.0537790 -0.370377E-01  0.319E+00    0.50       1.0  T
  48    -13.0897455 -0.359665E-01  0.202E+00    0.18       1.0  T
  49    -12.1929611  0.896784E+00  0.959E+00    0.00       1.0  T
  50    -13.0171728 -0.824212E+00  0.499E+00    0.63       1.0  T
  51    -13.0535169 -0.363441E-01  0.318E+00    0.50       1.0  T
  52    -13.0927570 -0.392401E-01  0.194E+00    0.17       1.0  T
  53    -12.1930107  0.899746E+00  0.959E+00    0.00       1.0  T
  54    -13.0180749 -0.825064E+00  0.494E+00    0.63       1.0  T
  55    -13.0532952 -0.352203E-01  0.317E+00    0.51       1.0  T
  56    -13.0976073 -0.443121E-01  0.180E+00    0.16       1.0  T
  57    -12.1933063  0.904301E+00  0.958E+00    0.00       1.0  T
  58    -13.0182345 -0.824928E+00  0.492E+00    0.63       1.0  T
  59    -13.0531448 -0.349103E-01  0.317E+00    0.51       1.0  T
  60    -13.0931971 -0.400523E-01  0.192E+00    0.17       1.0  T
  61    -12.1927147  0.900482E+00  0.962E+00    0.00       1.0  T
  62    -13.0208324 -0.828118E+00  0.482E+00    0.62       1.0  T
  63    -13.0529014 -0.320690E-01  0.317E+00    0.51       1.0  T
  64    -13.1031136 -0.502122E-01  0.163E+00    0.15       1.0  T
  65    -12.1935696  0.909544E+00  0.957E+00    0.00       1.0  T
  66    -13.0189304 -0.825361E+00  0.489E+00    0.63       1.0  T
  67    -13.0529357 -0.340053E-01  0.317E+00    0.51       1.0  T
  68    -13.0872573 -0.343216E-01  0.208E+00    0.18       1.0  T
  69    -12.1919879  0.895269E+00  0.966E+00    0.00       1.0  T
  70    -13.0243242 -0.832336E+00  0.467E+00    0.61       1.0  T
  71    -13.0525552 -0.282310E-01  0.318E+00    0.51       1.0  T
  72    -13.1133384 -0.607832E-01  0.126E+00    0.13       1.0  T
  73    -12.1965926  0.916746E+00  0.951E+00    0.00       1.0  T
  74    -13.0164377 -0.819845E+00  0.498E+00    0.63       1.0  T
  75    -13.0529597 -0.365220E-01  0.317E+00    0.51       1.0  T
  76    -13.0760008 -0.230412E-01  0.234E+00    0.21       1.0  T
  77    -12.1910608  0.884940E+00  0.972E+00    0.00       1.0  T
  78    -13.0277030 -0.836642E+00  0.452E+00    0.60       1.0  T
  79    -13.0521965 -0.244935E-01  0.319E+00    0.51       1.0  T
  80    -13.1260040 -0.738075E-01  0.549E-01    0.11       1.0  T
  81    -13.0742213  0.517827E-01  0.238E+00    0.21       1.0  T
  82    -12.1899015  0.884320E+00  0.980E+00    0.00       1.0  T
  83    -13.0339498 -0.844048E+00  0.422E+00    0.58       1.0  T
  84    -13.0525553 -0.186055E-01  0.313E+00    0.51       1.0  T
  85    -12.2698753  0.782680E+00  0.911E+00    0.00       1.0  T
  86    -13.0169744 -0.747099E+00  0.497E+00    0.63       1.0  T
  87    -13.0527004 -0.357260E-01  0.319E+00    0.51       1.0  T
  88    -13.0616020 -0.890157E-02  0.266E+00    0.28       1.0  T
  89    -12.1901617  0.871440E+00  0.978E+00    0.00       1.0  T
  90    -13.0303051 -0.840143E+00  0.442E+00    0.59       1.0  T
  91    -13.0519541 -0.216490E-01  0.321E+00    0.51       1.0  T
  92    -13.1163284 -0.643743E-01  0.114E+00    0.08       1.0  T
  93    -13.0520001  0.643282E-01  0.312E+00    0.51       1.0  T
  94    -12.1921630  0.859837E+00  0.966E+00    0.00       1.0  T
  95    -13.0241097 -0.831947E+00  0.466E+00    0.61       1.0  T
  96    -13.0526446 -0.285350E-01  0.316E+00    0.51       1.0  T
  97    -13.0314017  0.212429E-01  0.312E+00    0.05       1.0  T
  98    -13.0455666 -0.141649E-01  0.358E+00    0.54       1.0  T
  99    -13.1023273 -0.567606E-01  0.166E+00    0.15       1.0  T
 100    -12.1918541  0.910473E+00  0.968E+00    0.00       1.0  T
 101    -13.0269523 -0.835098E+00  0.455E+00    0.60       1.0  T
 102    -13.0525268 -0.255745E-01  0.316E+00    0.51       1.0  T
 103    -12.9326241  0.119903E+00  0.441E+00    0.03       1.0  T
 104    -13.0408613 -0.108237E+00  0.386E+00    0.55       1.0  T
 105    -13.0548726 -0.140113E-01  0.287E+00    0.50       1.0  T
 106    -12.1903492  0.864523E+00  0.977E+00    0.00       1.0  T
 107    -13.0325708 -0.842222E+00  0.430E+00    0.58       1.0  T
 108    -13.0522414 -0.196706E-01  0.317E+00    0.51       1.0  T
 109    -12.8428996  0.209342E+00  0.531E+00    0.02       1.0  T
 110    -13.0368551 -0.193956E+00  0.409E+00    0.57       1.0  T
 111    -13.0541396 -0.172845E-01  0.296E+00    0.51       1.0  T
 112    -12.1916466  0.862493E+00  0.969E+00    0.00       1.0  T
 113    -13.0277258 -0.836079E+00  0.453E+00    0.60       1.0  T
 114    -13.0522422 -0.245163E-01  0.319E+00    0.51       1.0  T
 115    -13.1201399 -0.678977E-01  0.948E-01    0.12       1.0  T
 116    -12.2452523  0.874888E+00  0.924E+00    0.00       1.0  T
 117    -13.0172943 -0.772042E+00  0.496E+00    0.63       1.0  T
 118    -13.0526813 -0.353870E-01  0.319E+00    0.51       1.0  T
 119    -13.0817192 -0.290378E-01  0.221E+00    0.19       1.0  T
 120    -12.1911906  0.890529E+00  0.972E+00    0.00       1.0  T
 121    -13.0294365 -0.838246E+00  0.446E+00    0.59       1.0  T
 122    -13.0516813 -0.222448E-01  0.323E+00    0.51       1.0  T
 123    -13.0944955 -0.428142E-01  0.188E+00    0.16       1.0  T
 124    -12.1917636  0.902732E+00  0.968E+00    0.00       1.0  T
 125    -13.0268660 -0.835102E+00  0.457E+00    0.60       1.0  T
 126    -13.0519182 -0.250522E-01  0.322E+00    0.51       1.0  T
 127    -13.0969823 -0.450641E-01  0.181E+00    0.16       1.0  T
 128    -12.1919722  0.905010E+00  0.967E+00    0.00       1.0  T
 129    -13.0258439 -0.833872E+00  0.462E+00    0.60       1.0  T
 130    -13.0519580 -0.261141E-01  0.322E+00    0.51       1.0  T
 131    -13.0910458 -0.390878E-01  0.198E+00    0.17       1.0  T
 132    -12.1914311  0.899615E+00  0.970E+00    0.00       1.0  T
 133    -13.0275843 -0.836153E+00  0.455E+00    0.60       1.0  T
 134    -13.0518063 -0.242220E-01  0.323E+00    0.51       1.0  T
 135    -13.0997112 -0.479049E-01  0.173E+00    0.16       1.0  T
 136    -12.1921058  0.907605E+00  0.966E+00    0.00       1.0  T
 137    -13.0247489 -0.832643E+00  0.467E+00    0.61       1.0  T
 138    -13.0520207 -0.272718E-01  0.322E+00    0.51       1.0  T
 139    -13.0911487 -0.391280E-01  0.197E+00    0.17       1.0  T
 140    -12.1913587  0.899790E+00  0.971E+00    0.00       1.0  T
 141    -13.0273629 -0.836004E+00  0.456E+00    0.60       1.0  T
 142    -13.0517658 -0.244029E-01  0.323E+00    0.51       1.0  T
 143    -13.0997857 -0.480199E-01  0.173E+00    0.16       1.0  T
 144    -12.1920180  0.907768E+00  0.967E+00    0.00       1.0  T
 145    -13.0245591 -0.832541E+00  0.468E+00    0.61       1.0  T
 146    -13.0520047 -0.274457E-01  0.322E+00    0.51       1.0  T
 147    -13.0937175 -0.417128E-01  0.191E+00    0.17       1.0  T
 148    -12.1914817  0.902236E+00  0.970E+00    0.00       1.0  T
 149    -13.0264465 -0.834965E+00  0.460E+00    0.60       1.0  T
 150    -13.0517927 -0.253463E-01  0.323E+00    0.51       1.0  T
 151    -13.0977442 -0.459515E-01  0.179E+00    0.16       1.0  T
 152    -12.1917503  0.905994E+00  0.969E+00    0.00       1.0  T
 153    -13.0251600 -0.833410E+00  0.466E+00    0.61       1.0  T
 154    -13.0519090 -0.267491E-01  0.323E+00    0.51       1.0  T
 155    -13.0971723 -0.452633E-01  0.181E+00    0.16       1.0  T
 156    -12.1916868  0.905486E+00  0.969E+00    0.00       1.0  T
 157    -13.0252273 -0.833541E+00  0.466E+00    0.61       1.0  T
 158    -13.0518721 -0.266448E-01  0.323E+00    0.51       1.0  T
 159    -13.0964997 -0.446276E-01  0.183E+00    0.16       1.0  T
 160    -12.1915798  0.904920E+00  0.970E+00    0.00       1.0  T
 161    -13.0254544 -0.833875E+00  0.465E+00    0.61       1.0  T
 162    -13.0518332 -0.263788E-01  0.323E+00    0.51       1.0  T
 163    -13.0981747 -0.463415E-01  0.178E+00    0.16       1.0  T
 164    -12.1916911  0.906484E+00  0.969E+00    0.00       1.0  T
 165    -13.0248221 -0.833131E+00  0.468E+00    0.61       1.0  T
 166    -13.0518821 -0.270600E-01  0.323E+00    0.51       1.0  T
 167    -13.0977885 -0.459064E-01  0.179E+00    0.16       1.0  T
 168    -12.1916333  0.906155E+00  0.969E+00    0.00       1.0  T
 169    -13.0248859 -0.833253E+00  0.468E+00    0.61       1.0  T
 170    -13.0518511 -0.269652E-01  0.324E+00    0.51       1.0  T
 171    -13.0976929 -0.458418E-01  0.179E+00    0.16       1.0  T
 172    -12.1915841  0.906109E+00  0.970E+00    0.00       1.0  T
 173    -13.0249116 -0.833327E+00  0.468E+00    0.61       1.0  T
 174    -13.0518324 -0.269208E-01  0.324E+00    0.51       1.0  T
 175    -13.0986020 -0.467696E-01  0.177E+00    0.16       1.0  T
 176    -12.1916352  0.906967E+00  0.969E+00    0.00       1.0  T
 177    -13.0245397 -0.832905E+00  0.470E+00    0.61       1.0  T
 178    -13.0518573 -0.273176E-01  0.324E+00    0.51       1.0  T
 179    -13.0987036 -0.468463E-01  0.176E+00    0.16       1.0  T
 180    -12.1916219  0.907082E+00  0.969E+00    0.00       1.0  T
 181    -13.0244426 -0.832821E+00  0.470E+00    0.61       1.0  T
 182    -13.0518474 -0.274048E-01  0.324E+00    0.51       1.0  T
 183    -13.0985317 -0.466843E-01  0.177E+00    0.16       1.0  T
 184    -12.1915739  0.906958E+00  0.970E+00    0.00       1.0  T
 185    -13.0244890 -0.832915E+00  0.470E+00    0.61       1.0  T
 186    -13.0518249 -0.273358E-01  0.324E+00    0.51       1.0  T
 187    -13.0990045 -0.471797E-01  0.176E+00    0.16       1.0  T
 188    -12.1915865  0.907418E+00  0.970E+00    0.00       1.0  T
 189    -13.0242901 -0.832704E+00  0.471E+00    0.61       1.0  T
 190    -13.0518338 -0.275437E-01  0.324E+00    0.51       1.0  T
 191    -13.0994842 -0.476504E-01  0.174E+00    0.16       1.0  T
 192    -12.1916100  0.907874E+00  0.970E+00    0.00       1.0  T
 193    -13.0240553 -0.832445E+00  0.472E+00    0.61       1.0  T
 194    -13.0518445 -0.277893E-01  0.324E+00    0.51       1.0  T
 195    -13.0994642 -0.476196E-01  0.174E+00    0.16       1.0  T
 196    -12.1915857  0.907879E+00  0.970E+00    0.00       1.0  T
 197    -13.0240258 -0.832440E+00  0.473E+00    0.61       1.0  T
 198    -13.0518298 -0.278040E-01  0.324E+00    0.51       1.0  T
 199    -13.0994399 -0.476101E-01  0.174E+00    0.16       1.0  T
 200    -12.1915546  0.907885E+00  0.970E+00    0.00       1.0  T
 201    -13.0240263 -0.832472E+00  0.473E+00    0.61       1.0  T
 202    -13.0518149 -0.277885E-01  0.324E+00    0.51       1.0  T
 203    -13.0998338 -0.480189E-01  0.173E+00    0.16       1.0  T
 204    -12.1915663  0.908268E+00  0.970E+00    0.00       1.0  T
 205    -13.0238510 -0.832285E+00  0.474E+00    0.61       1.0  T
 206    -13.0518238 -0.279728E-01  0.324E+00    0.51       1.0  T
 207    -13.1003079 -0.484841E-01  0.172E+00    0.15       1.0  T
 208    -12.1915946  0.908713E+00  0.970E+00    0.00       1.0  T
 209    -13.0236132 -0.832019E+00  0.475E+00    0.61       1.0  T
 210    -13.0518388 -0.282255E-01  0.324E+00    0.51       1.0  T
 211    -13.1004136 -0.485748E-01  0.171E+00    0.15       1.0  T
 212    -12.1915885  0.908825E+00  0.970E+00    0.00       1.0  T
 213    -13.0235283 -0.831940E+00  0.475E+00    0.61       1.0  T
 214    -13.0518326 -0.283043E-01  0.324E+00    0.51       1.0  T
 215    -13.1002480 -0.484154E-01  0.172E+00    0.15       1.0  T
 216    -12.1915488  0.908699E+00  0.970E+00    0.00       1.0  T
 217    -13.0235884 -0.832040E+00  0.475E+00    0.61       1.0  T
 218    -13.0518095 -0.282211E-01  0.324E+00    0.51       1.0  T
 219    -13.1002990 -0.484895E-01  0.172E+00    0.15       1.0  T
 220    -12.1915266  0.908772E+00  0.970E+00    0.00       1.0  T
 221    -13.0235740 -0.832047E+00  0.475E+00    0.61       1.0  T
 222    -13.0518001 -0.282262E-01  0.324E+00    0.51       1.0  T
 223    -13.1008167 -0.490165E-01  0.170E+00    0.15       1.0  T
 224    -12.1915579  0.909259E+00  0.970E+00    0.00       1.0  T
 225    -13.0233340 -0.831776E+00  0.476E+00    0.61       1.0  T
 226    -13.0518221 -0.284882E-01  0.324E+00    0.51       1.0  T
 227    -13.1014877 -0.496656E-01  0.168E+00    0.15       1.0  T
 228    -12.1916174  0.909870E+00  0.970E+00    0.00       1.0  T
 229    -13.0229810 -0.831364E+00  0.478E+00    0.61       1.0  T
 230    -13.0518569 -0.288759E-01  0.324E+00    0.51       1.0  T
 231    -13.1017574 -0.499005E-01  0.167E+00    0.15       1.0  T
 232    -12.1916406  0.910117E+00  0.969E+00    0.00       1.0  T
 233    -13.0227945 -0.831154E+00  0.479E+00    0.61       1.0  T
 234    -13.0518651 -0.290706E-01  0.324E+00    0.51       1.0  T
 235    -13.1013065 -0.494414E-01  0.169E+00    0.15       1.0  T
 236    -12.1915786  0.909728E+00  0.970E+00    0.00       1.0  T
 237    -13.0229815 -0.831403E+00  0.478E+00    0.61       1.0  T
 238    -13.0518205 -0.288391E-01  0.324E+00    0.51       1.0  T
 239    -13.1004003 -0.485797E-01  0.171E+00    0.15       1.0  T
 240    -12.1914509  0.908949E+00  0.971E+00    0.00       1.0  T
 241    -13.0234480 -0.831997E+00  0.476E+00    0.61       1.0  T
 242    -13.0517427 -0.282947E-01  0.325E+00    0.51       1.0  T
 243    -13.1000088 -0.482661E-01  0.173E+00    0.15       1.0  T
 244    -12.1913660  0.908643E+00  0.971E+00    0.00       1.0  T
 245    -13.0237161 -0.832350E+00  0.475E+00    0.61       1.0  T
 246    -13.0517028 -0.279867E-01  0.325E+00    0.51       1.0  T
 247    -13.1011835 -0.494806E-01  0.169E+00    0.15       1.0  T
 248    -12.1914595  0.909724E+00  0.971E+00    0.00       1.0  T
 249    -13.0232041 -0.831745E+00  0.477E+00    0.61       1.0  T
 250    -13.0517796 -0.285756E-01  0.325E+00    0.51       1.0  T

   *** convergence criteria cannot be satisfied within 250 iterations ***

         #    Occupation            Energy/Eh            Energy/eV
      -------------------------------------------------------------
         1        2.0000           -0.8516397             -23.1743
       ...           ...                  ...                  ...
         5        2.0000           -0.3630785              -9.8799
         6        2.0000           -0.2755007              -7.4968
         7        2.0000           -0.2755006              -7.4968
         8        2.0000           -0.2754679              -7.4959
         9        2.0000           -0.2411410              -6.5618
        10        1.9999           -0.2329905              -6.3400
        11        1.9999           -0.2329905              -6.3400 (HOMO)
        12        0.0001           -0.2141748              -5.8280 (LUMO)
        13                          0.2408600               6.5541
        14                          0.2559132               6.9638
        15                          0.2559133               6.9638
        16                          0.2560070               6.9663
       ...                                ...                  ...
        20                          0.4101269              11.1601
      -------------------------------------------------------------
                  HL-Gap            0.0188157 Eh            0.5120 eV
             Fermi-level           -0.2232533 Eh           -6.0750 eV

 SCC (total)                   0 d,  0 h,  0 min,  0.119 sec
 SCC setup                      ...        0 min,  0.000 sec (  0.064%)
 Dispersion                     ...        0 min,  0.000 sec (  0.013%)
 integral evaluation            ...        0 min,  0.001 sec (  0.650%)
 zeroth order Hamiltonian       ...        0 min,  0.000 sec (  0.013%)
 iterations                     ...        0 min,  0.118 sec ( 98.734%)
 molecular gradient             ...        0 min,  0.001 sec (  0.457%)
 printout                       ...        0 min,  0.000 sec (  0.050%)

         :::::::::::::::::::::::::::::::::::::::::::::::::::::
         ::                     SUMMARY                     ::
         :::::::::::::::::::::::::::::::::::::::::::::::::::::
         :: total energy              -5.938081212950 Eh    ::
         :: gradient norm             23.722767737404 Eh/a0 ::
         :: HOMO-LUMO gap              0.512000734717 eV    ::
         ::.................................................::
         :: SCC energy               -13.051779630472 Eh    ::
         :: -> isotropic ES            0.322756743399 Eh    ::
         :: -> anisotropic ES         -0.004795542490 Eh    ::
         :: -> anisotropic XC          0.008006078267 Eh    ::
         :: -> dispersion             -0.001506728835 Eh    ::
         :: repulsion energy           0.059791183048 Eh    ::
         :: add. restraining           7.053981490667 Eh    ::
         :::::::::::::::::::::::::::::::::::::::::::::::::::::

      ----------------------------------------------------------- 
     |                   =====================                   |
     |                        A N C O P T                        |
     |                   =====================                   |
     |               Approximate Normal Coordinate               |
     |                Rational Function Optimizer                |
      ----------------------------------------------------------- 

          ...................................................
          :                      SETUP                      :
          :.................................................:
          :   optimization level            normal          :
          :   max. optcycles                   200          :
          :   ANC micro-cycles                  20          :
          :   degrees of freedom                12          :
          :.................................................:
          :   RF solver                   davidson          :
          :   write xtbopt.log                true          :
          :   linear?                        false          :
          :   energy convergence         0.5000000E-05 Eh   :
          :   grad. convergence          0.1000000E-02 Eh/α :
          :   maximium RF displ.         1.0000000          :
          :   Hlow (freq-cutoff)         0.1000000E-01      :
          :   Hmax (freq-cutoff)         5.0000000          :
          :   S6 in model hess.         20.0000000          :
          ...................................................

generating ANC from model Hessian ...
Using Lindh-Hessian (1995)
 Shifting diagonal of input Hessian by    4.25552186241901     
 Lowest  eigenvalues of input Hessian
    0.010000    0.010112   -0.000000   -0.000000    0.000000    0.000000
    0.000000    0.000000    4.256238    4.256360    4.256362    4.412416
    4.412480    4.693400    5.091103    5.091374   24.255893   64.255347
 Highest eigenvalues
    4.412480    4.693400    5.091103    5.091374   24.255893   64.255347
 

........................................................................
.............................. CYCLE    1 ..............................
........................................................................
   1    -13.1041007 -0.131041E+02  0.160E+00    0.15       0.0  T
   2    -12.1670504  0.937050E+00  0.102E+01    0.00       1.0  T
   3    -12.2047162 -0.376658E-01  0.946E+00    0.00       1.0  T
   4    -13.1211890 -0.916473E+00  0.899E-01    0.12       1.0  T
   5    -13.1281366 -0.694757E-02  0.353E-01    0.09       1.0  T
   6    -13.1286126 -0.475996E-03  0.199E-01    0.09       1.0  T
   7    -13.1271495  0.146310E-02  0.433E-01    0.09       1.0  T
   8    -13.1282538 -0.110431E-02  0.273E-01    0.09       1.0  T
   9    -13.1289408 -0.687020E-03  0.672E-02    0.10       1.0  T
  10    -13.1289849 -0.441351E-04  0.804E-03    0.10       5.1  T
  11    -13.1289853 -0.334709E-06  0.456E-03    0.10       8.9  T
  12    -13.1289736  0.116258E-04  0.350E-02    0.10       1.2  T
  13    -13.1289807 -0.705477E-05  0.222E-02    0.10       1.8  T
  14    -13.1289852 -0.448075E-05  0.553E-03    0.10       7.4  T
  15    -13.1289855 -0.293248E-06  0.529E-04    0.10      77.2  T
  16    -13.1289855  0.181776E-09  0.543E-04    0.10      75.2  T
     SCC iter.                  ...        0 min,  0.001 sec
     gradient                   ...        0 min,  0.001 sec
 * total energy  :    -6.0152175 Eh     change       -0.7713627E-01 Eh
   gradient norm :    23.7320404 Eh/α   predicted     0.0000000E+00 (-100.00%)
   displ. norm   :     0.9001905 α      lambda       -0.2136336E+02
   maximum displ.:     0.7795853 α      in ANC's #9, #12, #1, ...

........................................................................
.............................. CYCLE    2 ..............................
........................................................................
   1    -12.2451042 -0.122451E+02  0.935E+00    0.00       0.0  T
   2    -12.6073638 -0.362260E+00  0.978E+00    3.29       1.0  T
   3    -12.5159960  0.913677E-01  0.951E+00    0.00       1.0  T
   4    -12.7982134 -0.282217E+00  0.749E+00    1.00       1.0  T
   5    -12.9920784 -0.193865E+00  0.396E+00    0.13       1.0  T
   6    -12.7369246  0.255154E+00  0.694E+00    0.02       1.0  T
   7    -12.2256013  0.511323E+00  0.103E+01    0.00       1.0  T
   8    -12.2414822 -0.158810E-01  0.939E+00    0.00       1.0  T
   9    -12.8669252 -0.625443E+00  0.576E+00    0.38       1.0  T
  10    -13.0036000 -0.136675E+00  0.315E+00    0.13       1.0  T
  11    -12.2480634  0.755537E+00  0.910E+00    0.00       1.0  T
  12    -12.9880003 -0.739937E+00  0.346E+00    0.15       1.0  T
  13    -12.2457682  0.742232E+00  0.913E+00    0.00       1.0  T
  14    -13.0512149 -0.805447E+00  0.206E+00    0.06       1.0  T
  15    -12.2407545  0.810460E+00  0.934E+00    0.00       1.0  T
  16    -12.2462183 -0.546374E-02  0.913E+00    0.00       1.0  T
  17    -12.2502204 -0.400214E-02  0.908E+00    0.00       1.0  T
  18    -12.2474925  0.272794E-02  0.911E+00    0.00       1.0  T
  19    -12.2490281 -0.153558E-02  0.909E+00    0.00       1.0  T
  20    -12.2460150  0.301302E-02  0.913E+00    0.00       1.0  T
  21    -12.4194984 -0.173483E+00  0.803E+00    0.01       1.0  T
  22    -12.8817057 -0.462207E+00  0.548E+00    0.32       1.0  T
  23    -12.2428047  0.638901E+00  0.942E+00    0.00       1.0  T
  24    -12.8590598 -0.616255E+00  0.590E+00    0.47       1.0  T
  25    -12.2469758  0.612084E+00  0.952E+00    0.00       1.0  T
  26    -12.8467301 -0.599754E+00  0.618E+00    0.70       1.0  T
  27    -12.2473447  0.599385E+00  0.976E+00    0.00       1.0  T
  28    -12.8488804 -0.601536E+00  0.625E+00    0.30       1.0  T
  29    -12.2426660  0.606214E+00  0.102E+01    0.00       1.0  T
  30    -12.2569187 -0.142527E-01  0.911E+00    0.00       1.0  T
  31    -12.8230508 -0.566132E+00  0.694E+00    1.40       1.0  T
  32    -12.2522441  0.570807E+00  0.104E+01    0.00       1.0  T
  33    -12.2615035 -0.925937E-02  0.968E+00    0.00       1.0  T
  34    -12.2624480 -0.944521E-03  0.962E+00    0.00       1.0  T
  35    -12.2551871  0.726095E-02  0.945E+00    0.00       1.0  T
  36    -12.8437896 -0.588602E+00  0.638E+00    0.58       1.0  T
  37    -12.8059266  0.378630E-01  0.749E+00    0.06       1.0  T
  38    -12.2009329  0.604994E+00  0.106E+01    0.05       1.0  T
  39    -12.3597734 -0.158840E+00  0.123E+01    0.00       1.0  T
  40    -12.3898152 -0.300418E-01  0.110E+01    0.00       1.0  T
  41    -12.7659083 -0.376093E+00  0.861E+00    3.52       1.0  T
  42    -12.1743015  0.591607E+00  0.115E+01    0.10       1.0  T
  43    -12.2123475 -0.380460E-01  0.102E+01    0.06       1.0  T
  44    -12.4223480 -0.210001E+00  0.111E+01    0.00       1.0  T
  45    -12.2010542  0.221294E+00  0.109E+01    0.05       1.0  T
  46    -12.2107692 -0.971497E-02  0.105E+01    0.06       1.0  T
  47    -12.2065539  0.421533E-02  0.105E+01    0.07       1.0  T
  48    -12.2146657 -0.811186E-02  0.103E+01    0.05       1.0  T
  49    -12.2219404 -0.727465E-02  0.100E+01    0.04       1.0  T
  50    -12.2311366 -0.919618E-02  0.959E+00    0.03       1.0  T
  51    -12.4474700 -0.216333E+00  0.967E+00    0.02       1.0  T
  52    -12.2626455  0.184824E+00  0.978E+00    0.00       1.0  T
  53    -12.7636947 -0.501049E+00  0.910E+00    3.54       1.0  T
  54    -12.7475843  0.161104E-01  0.100E+01    3.77       1.0  T
  55    -12.7644043 -0.168200E-01  0.943E+00    3.44       1.0  T
  56    -12.8254844 -0.610801E-01  0.711E+00    0.43       1.0  T
  57    -12.2455760  0.579908E+00  0.932E+00    0.00       1.0  T
  58    -12.7846124 -0.539036E+00  0.817E+00    2.06       1.0  T
  59    -12.4426029  0.342009E+00  0.100E+01    0.02       1.0  T
  60    -12.7878336 -0.345231E+00  0.893E+00    1.06       1.0  T
  61    -12.2284991  0.559335E+00  0.104E+01    0.00       1.0  T
  62    -12.8045045 -0.576005E+00  0.751E+00    1.81       1.0  T
  63    -12.4258901  0.378614E+00  0.974E+00    0.00       1.0  T
  64    -12.8013014 -0.375411E+00  0.758E+00    1.29       1.0  T
  65    -12.2336812  0.567620E+00  0.982E+00    0.00       1.0  T
  66    -12.8308700 -0.597189E+00  0.665E+00    0.79       1.0  T
  67    -12.4141437  0.416726E+00  0.102E+01    0.00       1.0  T
  68    -12.8180880 -0.403944E+00  0.709E+00    0.62       1.0  T
  69    -12.2329547  0.585133E+00  0.980E+00    0.00       1.0  T
  70    -12.8329223 -0.599968E+00  0.658E+00    0.76       1.0  T
  71    -12.4214892  0.411433E+00  0.997E+00    0.00       1.0  T
  72    -12.8173819 -0.395893E+00  0.716E+00    0.43       1.0  T
  73    -12.2392016  0.578180E+00  0.967E+00    0.00       1.0  T
  74    -12.8186898 -0.579488E+00  0.697E+00    1.20       1.0  T
  75    -12.4436936  0.374996E+00  0.960E+00    0.01       1.0  T
  76    -12.8864964 -0.442803E+00  0.654E+00    0.16       1.0  T
  77    -12.2475257  0.638971E+00  0.945E+00    0.00       1.0  T
  78    -12.8043839 -0.556858E+00  0.741E+00    1.69       1.0  T
  79    -12.7815143  0.228696E-01  0.669E+00    0.05       1.0  T
  80    -12.2615882  0.519926E+00  0.928E+00    0.00       1.0  T
  81    -12.7837403 -0.522152E+00  0.809E+00    2.42       1.0  T
  82    -12.8598828 -0.761425E-01  0.588E+00    0.43       1.0  T
  83    -12.4152626  0.444620E+00  0.993E+00    0.00       1.0  T
  84    -12.8290099 -0.413747E+00  0.651E+00    0.63       1.0  T
  85    -12.2352102  0.593800E+00  0.959E+00    0.03       1.0  T
  86    -12.8810552 -0.645845E+00  0.566E+00    0.06       1.0  T
  87    -12.8383751  0.426801E-01  0.702E+00    0.23       1.0  T
  88    -12.2524265  0.585949E+00  0.918E+00    0.00       1.0  T
  89    -12.8038497 -0.551423E+00  0.742E+00    1.66       1.0  T
  90    -12.6529853  0.150864E+00  0.788E+00    0.03       1.0  T
  91    -12.2670047  0.385981E+00  0.897E+00    0.00       1.0  T
  92    -12.7789840 -0.511979E+00  0.822E+00    2.58       1.0  T
  93    -12.8667921 -0.878080E-01  0.575E+00    0.38       1.0  T
  94    -12.4196305  0.447162E+00  0.986E+00    0.00       1.0  T
  95    -12.8317338 -0.412103E+00  0.644E+00    0.76       1.0  T
  96    -12.2369317  0.594802E+00  0.948E+00    0.03       1.0  T
  97    -12.4760784 -0.239147E+00  0.935E+00    0.01       1.0  T
  98    -12.8007604 -0.324682E+00  0.755E+00    1.60       1.0  T
  99    -12.2567948  0.543966E+00  0.904E+00    0.00       1.0  T
 100    -12.8095028 -0.552708E+00  0.721E+00    1.49       1.0  T
 101    -12.8788987 -0.693959E-01  0.560E+00    0.06       1.0  T
 102    -12.2630243  0.615874E+00  0.904E+00    0.00       1.0  T
 103    -12.7864730 -0.523449E+00  0.794E+00    2.28       1.0  T
 104    -12.8838959 -0.974229E-01  0.551E+00    0.29       1.0  T
 105    -12.4515198  0.432376E+00  0.943E+00    0.00       1.0  T
 106    -12.8371039 -0.385584E+00  0.639E+00    0.33       1.0  T
 107    -12.2418854  0.595219E+00  0.940E+00    0.02       1.0  T
 108    -12.8900429 -0.648157E+00  0.553E+00    0.27       1.0  T
 109    -12.9644538 -0.744109E-01  0.420E+00    0.17       1.0  T
 110    -12.2516779  0.712776E+00  0.909E+00    0.02       1.0  T
 111    -13.0098781 -0.758200E+00  0.377E+00    0.12       1.0  T
 112    -12.8296986  0.180180E+00  0.656E+00    1.22       1.0  T
 113    -12.7407354  0.889631E-01  0.682E+00    0.03       1.0  T
 114    -12.9164588 -0.175723E+00  0.572E+00    0.15       1.0  T
 115    -12.2554694  0.660989E+00  0.905E+00    0.00       1.0  T
 116    -12.8268251 -0.571356E+00  0.671E+00    0.97       1.0  T
 117    -12.4718800  0.354945E+00  0.925E+00    0.01       1.0  T
 118    -12.8285201 -0.356640E+00  0.656E+00    0.52       1.0  T
 119    -12.2453363  0.583184E+00  0.926E+00    0.02       1.0  T
 120    -12.8895249 -0.644189E+00  0.556E+00    0.27       1.0  T
 121    -12.8601061  0.294188E-01  0.566E+00    0.05       1.0  T
 122    -12.2615394  0.598567E+00  0.900E+00    0.00       1.0  T
 123    -12.7987443 -0.537205E+00  0.755E+00    1.85       1.0  T
 124    -12.9323857 -0.133641E+00  0.471E+00    0.20       1.0  T
 125    -12.3900278  0.542358E+00  0.828E+00    0.03       1.0  T
 126    -12.4790807 -0.890529E-01  0.929E+00    0.01       1.0  T
 127    -12.8060873 -0.327007E+00  0.726E+00    2.07       1.0  T
 128    -12.8601176 -0.540303E-01  0.582E+00    0.35       1.0  T
 129    -12.2489891  0.611129E+00  0.915E+00    0.03       1.0  T
 130    -12.5493475 -0.300358E+00  0.875E+00    0.02       1.0  T
 131    -12.8094019 -0.260054E+00  0.723E+00    1.72       1.0  T
 132    -13.0318507 -0.222449E+00  0.320E+00    0.10       1.0  T
 133    -12.2697358  0.762115E+00  0.896E+00    0.02       1.0  T
 134    -12.9469541 -0.677218E+00  0.469E+00    0.18       1.0  T
 135    -12.8775701  0.693840E-01  0.560E+00    0.32       1.0  T
 136    -12.4552247  0.422345E+00  0.940E+00    0.00       1.0  T
 137    -12.8329333 -0.377709E+00  0.642E+00    0.80       1.0  T
 138    -12.2522116  0.580722E+00  0.911E+00    0.03       1.0  T
 139    -12.8042041 -0.551992E+00  0.645E+00    0.05       1.0  T
 140    -12.8180590 -0.138550E-01  0.697E+00    1.09       1.0  T
 141    -12.8556712 -0.376121E-01  0.595E+00    0.31       1.0  T
 142    -12.2511823  0.604489E+00  0.910E+00    0.02       1.0  T
 143    -12.9004867 -0.649304E+00  0.538E+00    0.24       1.0  T
 144    -12.8950882  0.539859E-02  0.512E+00    0.06       1.0  T
 145    -12.3322717  0.562816E+00  0.852E+00    0.00       1.0  T
 146    -12.8137913 -0.481520E+00  0.708E+00    1.41       1.0  T
 147    -12.9847480 -0.170957E+00  0.365E+00    0.08       1.0  T
 148    -12.8804716  0.104276E+00  0.578E+00    0.21       1.0  T
 149    -12.4141375  0.466334E+00  0.809E+00    0.02       1.0  T
 150    -12.8823320 -0.468194E+00  0.563E+00    0.29       1.0  T
 151    -12.9519117 -0.695797E-01  0.426E+00    0.07       1.0  T
 152    -12.8867308  0.651809E-01  0.575E+00    0.20       1.0  T
 153    -12.5172913  0.369439E+00  0.741E+00    0.02       1.0  T
 154    -12.8665831 -0.349292E+00  0.585E+00    0.36       1.0  T
 155    -12.7102223  0.156361E+00  0.719E+00    0.03       1.0  T
 156    -12.8395079 -0.129286E+00  0.637E+00    0.34       1.0  T
 157    -12.2553551  0.584153E+00  0.905E+00    0.02       1.0  T
 158    -12.8756831 -0.620328E+00  0.578E+00    0.30       1.0  T
 159    -12.6648077  0.210875E+00  0.765E+00    0.03       1.0  T
 160    -12.8346053 -0.169798E+00  0.643E+00    0.45       1.0  T
 161    -12.2626250  0.571980E+00  0.900E+00    0.02       1.0  T
 162    -12.8702531 -0.607628E+00  0.585E+00    0.33       1.0  T
 163    -12.7429153  0.127338E+00  0.692E+00    0.04       1.0  T
 164    -12.8406978 -0.977825E-01  0.634E+00    0.33       1.0  T
 165    -12.2643313  0.576367E+00  0.898E+00    0.01       1.0  T
 166    -12.8564759 -0.592145E+00  0.607E+00    0.41       1.0  T
 167    -12.6592770  0.197199E+00  0.770E+00    0.03       1.0  T
 168    -12.8371763 -0.177899E+00  0.638E+00    0.39       1.0  T
 169    -12.2578324  0.579344E+00  0.903E+00    0.01       1.0  T
 170    -12.8634402 -0.605608E+00  0.595E+00    0.36       1.0  T
 171    -12.7729686  0.904717E-01  0.660E+00    0.04       1.0  T
 172    -12.8651872 -0.922187E-01  0.604E+00    0.23       1.0  T
 173    -12.2654602  0.599727E+00  0.897E+00    0.01       1.0  T
 174    -12.8505390 -0.585079E+00  0.617E+00    0.48       1.0  T
 175    -12.6977748  0.152764E+00  0.734E+00    0.03       1.0  T
 176    -12.8452983 -0.147524E+00  0.626E+00    0.30       1.0  T
 177    -12.2582207  0.587078E+00  0.903E+00    0.01       1.0  T
 178    -12.8601538 -0.601933E+00  0.600E+00    0.39       1.0  T
 179    -12.8113850  0.487688E-01  0.618E+00    0.04       1.0  T
 180    -12.9026237 -0.912386E-01  0.557E+00    0.18       1.0  T
 181    -12.3789632  0.523660E+00  0.829E+00    0.01       1.0  T
 182    -12.8483893 -0.469426E+00  0.618E+00    0.53       1.0  T
 183    -12.8167098  0.316795E-01  0.608E+00    0.04       1.0  T
 184    -12.9563308 -0.139621E+00  0.483E+00    0.14       1.0  T
 185    -13.0110955 -0.547648E-01  0.277E+00    0.05       1.0  T
 186    -12.8631529  0.147943E+00  0.577E+00    0.45       1.0  T
 187    -12.8870168 -0.238639E-01  0.447E+00    0.03       1.0  T
 188    -13.0369061 -0.149889E+00  0.232E+00    0.08       1.0  T
 189    -12.2854333  0.751473E+00  0.880E+00    0.01       1.0  T
 190    -12.8386753 -0.553242E+00  0.646E+00    0.64       1.0  T
 191    -12.5544011  0.284274E+00  0.860E+00    0.02       1.0  T
 192    -12.8326956 -0.278295E+00  0.646E+00    1.10       1.0  T
 193    -12.9540485 -0.121353E+00  0.424E+00    0.19       1.0  T
 194    -12.2512069  0.702842E+00  0.909E+00    0.02       1.0  T
 195    -12.9378237 -0.686617E+00  0.484E+00    0.19       1.0  T
 196    -12.9080822  0.297415E-01  0.514E+00    0.23       1.0  T
 197    -12.9838047 -0.757225E-01  0.369E+00    0.15       1.0  T
 198    -12.8959351  0.878696E-01  0.537E+00    0.21       1.0  T
 199    -12.9413747 -0.454396E-01  0.464E+00    0.17       1.0  T
 200    -12.2574020  0.683973E+00  0.903E+00    0.02       1.0  T
 201    -12.9934043 -0.736002E+00  0.379E+00    0.13       1.0  T
 202    -12.8599694  0.133435E+00  0.589E+00    0.44       1.0  T
 203    -13.0119567 -0.151987E+00  0.295E+00    0.11       1.0  T
 204    -13.0030545  0.890224E-02  0.289E+00    0.05       1.0  T
 205    -12.8592647  0.143790E+00  0.588E+00    0.46       1.0  T
 206    -12.9937866 -0.134522E+00  0.336E+00    0.14       1.0  T
 207    -12.2560006  0.737786E+00  0.903E+00    0.01       1.0  T
 208    -12.8823293 -0.626329E+00  0.571E+00    0.28       1.0  T
 209    -12.6849896  0.197340E+00  0.739E+00    0.03       1.0  T
 210    -12.8380963 -0.153107E+00  0.632E+00    0.69       1.0  T
 211    -13.0603171 -0.222221E+00  0.200E+00    0.08       1.0  T
 212    -12.8322885  0.228029E+00  0.487E+00    0.03       1.0  T
 213    -12.9157761 -0.834875E-01  0.499E+00    0.22       1.0  T
 214    -13.0106565 -0.948804E-01  0.298E+00    0.12       1.0  T
 215    -13.0457308 -0.350743E-01  0.274E+00    0.09       1.0  T
 216    -12.9322024  0.113528E+00  0.474E+00    0.19       1.0  T
 217    -12.2639376  0.668265E+00  0.899E+00    0.02       1.0  T
 218    -12.8109296 -0.546992E+00  0.622E+00    0.04       1.0  T
 219    -12.8333863 -0.224567E-01  0.649E+00    1.05       1.0  T
 220    -12.9764552 -0.143069E+00  0.373E+00    0.16       1.0  T
 221    -12.2505561  0.725899E+00  0.909E+00    0.01       1.0  T
 222    -12.9909935 -0.740437E+00  0.382E+00    0.14       1.0  T
 223    -12.9148786  0.761149E-01  0.498E+00    0.22       1.0  T
 224    -13.0138580 -0.989794E-01  0.277E+00    0.09       1.0  T
 225    -13.0518909 -0.380329E-01  0.240E+00    0.07       1.0  T
 226    -12.8728876  0.179003E+00  0.562E+00    0.34       1.0  T
 227    -12.5901730  0.282715E+00  0.695E+00    0.03       1.0  T
 228    -13.0051955 -0.415022E+00  0.313E+00    0.08       1.0  T
 229    -12.8539081  0.151287E+00  0.598E+00    0.55       1.0  T
 230    -13.0089795 -0.155071E+00  0.283E+00    0.08       1.0  T
 231    -12.2546795  0.754300E+00  0.903E+00    0.01       1.0  T
 232    -12.8560572 -0.601378E+00  0.611E+00    0.41       1.0  T
 233    -12.5015818  0.354475E+00  0.897E+00    0.00       1.0  T
 234    -12.8441021 -0.342520E+00  0.618E+00    0.76       1.0  T
 235    -12.8894283 -0.453262E-01  0.580E+00    0.03       1.0  T
 236    -12.2544148  0.635013E+00  0.905E+00    0.01       1.0  T
 237    -12.8575080 -0.603093E+00  0.609E+00    0.39       1.0  T
 238    -12.5990295  0.258478E+00  0.820E+00    0.02       1.0  T
 239    -12.8396425 -0.240613E+00  0.627E+00    0.69       1.0  T
 240    -13.0578412 -0.218199E+00  0.216E+00    0.09       1.0  T
 241    -13.0364217  0.214195E-01  0.226E+00    0.06       1.0  T
 242    -12.8876359  0.148786E+00  0.535E+00    0.29       1.0  T
 243    -13.0273710 -0.139735E+00  0.253E+00    0.11       1.0  T
 244    -12.2501035  0.777268E+00  0.910E+00    0.01       1.0  T
 245    -12.8531179 -0.603014E+00  0.616E+00    0.44       1.0  T
 246    -12.5466372  0.306481E+00  0.860E+00    0.01       1.0  T
 247    -12.8448824 -0.298245E+00  0.613E+00    0.58       1.0  T
 248    -12.3111799  0.533703E+00  0.873E+00    0.02       1.0  T
 249    -13.0126920 -0.701512E+00  0.321E+00    0.10       1.0  T
 250    -12.8555696  0.157122E+00  0.593E+00    0.51       1.0  T
     SCC iter.                  ...        0 min,  0.121 sec
     gradient                   ...        0 min,  0.000 sec
 * total energy  :    -6.8877394 Eh     change       -0.8725220E+00 Eh
   gradient norm :    26.4309670 Eh/α   predicted    -0.1933750E+02 (2116.28%)
   displ. norm   :     0.5584587 α      lambda       -0.1235242E+02
   maximum displ.:     0.4313122 α      in ANC's #9, #12, #3, ...

........................................................................
.............................. CYCLE    3 ..............................
........................................................................
   1    -13.0411691 -0.130412E+02  0.421E+00    0.15       0.0  T
   2    -12.1794567  0.861712E+00  0.120E+01    0.00       1.0  T
   3    -12.2027207 -0.232641E-01  0.114E+01    0.00       1.0  T
   4    -12.9220424 -0.719322E+00  0.417E+00    0.35       1.0  T
   5    -12.1487256  0.773317E+00  0.119E+01    0.00       1.0  T
   6    -12.4279950 -0.279269E+00  0.118E+01    0.00       1.0  T
   7    -12.4289451 -0.950128E-03  0.117E+01    0.00       1.0  T
   8    -12.2363457  0.192599E+00  0.999E+00    0.01       1.0  T
   9    -12.2361475  0.198254E-03  0.980E+00    0.01       1.0  T
  10    -12.2366945 -0.546976E-03  0.986E+00    0.01       1.0  T
  11    -12.2347711  0.192335E-02  0.970E+00    0.01       1.0  T
  12    -12.2381986 -0.342749E-02  0.974E+00    0.00       1.0  T
  13    -12.2386948 -0.496193E-03  0.933E+00    0.00       1.0  T
  14    -12.8512834 -0.612589E+00  0.701E+00    1.13       1.0  T
  15    -12.2420135  0.609270E+00  0.934E+00    0.00       1.0  T
  16    -12.8473246 -0.605311E+00  0.715E+00    1.72       1.0  T
  17    -12.2436816  0.603643E+00  0.107E+01    0.00       1.0  T
  18    -12.2541594 -0.104777E-01  0.110E+01    0.00       1.0  T
  19    -12.2359538  0.182056E-01  0.935E+00    0.00       1.0  T
  20    -12.8985100 -0.662556E+00  0.612E+00    0.41       1.0  T
  21    -12.5521990  0.346311E+00  0.954E+00    0.02       1.0  T
  22    -12.9787782 -0.426579E+00  0.533E+00    0.13       1.0  T
  23    -12.2232824  0.755496E+00  0.981E+00    0.00       1.0  T
  24    -12.4915724 -0.268290E+00  0.100E+01    0.00       1.0  T
  25    -12.9259212 -0.434349E+00  0.594E+00    0.17       1.0  T
  26    -12.2297474  0.696174E+00  0.939E+00    0.00       1.0  T
  27    -12.6982564 -0.468509E+00  0.842E+00    0.04       1.0  T
  28    -12.9461848 -0.247928E+00  0.530E+00    0.17       1.0  T
  29    -12.2273626  0.718822E+00  0.941E+00    0.01       1.0  T
  30    -12.6065794 -0.379217E+00  0.900E+00    0.02       1.0  T
  31    -12.9272402 -0.320661E+00  0.581E+00    0.17       1.0  T
  32    -12.8736423  0.535979E-01  0.617E+00    0.39       1.0  T
  33    -12.8794276 -0.578534E-02  0.604E+00    0.43       1.0  T
  34    -12.8873391 -0.791155E-02  0.595E+00    0.29       1.0  T
  35    -13.0638856 -0.176546E+00  0.241E+00    0.05       1.0  T
  36    -12.8970494  0.166836E+00  0.579E+00    0.48       1.0  T
  37    -12.8814189  0.156305E-01  0.606E+00    0.69       1.0  T
  38    -12.8878753 -0.645641E-02  0.590E+00    0.60       1.0  T
  39    -12.8978182 -0.994290E-02  0.570E+00    0.40       1.0  T
  40    -12.9093813 -0.115630E-01  0.552E+00    0.29       1.0  T
  41    -13.0819508 -0.172570E+00  0.246E+00    0.09       1.0  T
  42    -12.9595353  0.122416E+00  0.464E+00    0.25       1.0  T
  43    -12.9342534  0.252818E-01  0.519E+00    0.23       1.0  T
  44    -12.2328805  0.701373E+00  0.934E+00    0.00       1.0  T
  45    -12.5236813 -0.290801E+00  0.957E+00    0.01       1.0  T
  46    -12.2274193  0.296262E+00  0.956E+00    0.00       1.0  T
  47    -12.8997878 -0.672369E+00  0.582E+00    0.44       1.0  T
  48    -12.9621723 -0.623845E-01  0.467E+00    0.24       1.0  T
  49    -12.9655822 -0.340994E-02  0.455E+00    0.23       1.0  T
  50    -12.9643697  0.121251E-02  0.461E+00    0.23       1.0  T
  51    -13.0670349 -0.102665E+00  0.271E+00    0.12       1.0  T
  52    -13.0298880  0.371470E-01  0.306E+00    0.15       1.0  T
  53    -12.2224377  0.807450E+00  0.945E+00    0.00       1.0  T
  54    -12.7509419 -0.528504E+00  0.745E+00    0.04       1.0  T
  55    -12.4765753  0.274367E+00  0.785E+00    0.00       1.0  T
  56    -12.9429467 -0.466371E+00  0.514E+00    0.27       1.0  T
  57    -12.9282357  0.147109E-01  0.527E+00    0.31       1.0  T
  58    -12.9659280 -0.376923E-01  0.452E+00    0.23       1.0  T
  59    -12.9670353 -0.110733E-02  0.452E+00    0.24       1.0  T
  60    -13.0668751 -0.998398E-01  0.275E+00    0.12       1.0  T
  61    -13.0294110  0.374641E-01  0.307E+00    0.15       1.0  T
  62    -12.2220883  0.807323E+00  0.944E+00    0.00       1.0  T
  63    -12.8353888 -0.613300E+00  0.651E+00    0.05       1.0  T
  64    -13.0850305 -0.249642E+00  0.206E+00    0.07       1.0  T
  65    -12.9457196  0.139311E+00  0.492E+00    0.27       1.0  T
  66    -12.9425632  0.315644E-02  0.494E+00    0.28       1.0  T
  67    -13.0643281 -0.121765E+00  0.285E+00    0.12       1.0  T
  68    -13.0201575  0.441706E-01  0.331E+00    0.16       1.0  T
  69    -12.2216825  0.798475E+00  0.944E+00    0.00       1.0  T
  70    -12.8388998 -0.617217E+00  0.642E+00    0.05       1.0  T
  71    -12.5388023  0.300098E+00  0.745E+00    0.00       1.0  T
  72    -12.9875217 -0.448719E+00  0.428E+00    0.20       1.0  T
  73    -12.9742921  0.132296E-01  0.438E+00    0.21       1.0  T
  74    -12.9671286  0.716345E-02  0.451E+00    0.23       1.0  T
  75    -12.9863369 -0.192082E-01  0.415E+00    0.21       1.0  T
  76    -13.0720187 -0.856818E-01  0.253E+00    0.12       1.0  T
  77    -13.0431177  0.289009E-01  0.262E+00    0.12       1.0  T
  78    -12.2220341  0.821084E+00  0.948E+00    0.00       1.0  T
  79    -13.0360670 -0.814033E+00  0.317E+00    0.14       1.0  T
  80    -13.0033584  0.327086E-01  0.372E+00    0.18       1.0  T
  81    -12.8595883  0.143770E+00  0.489E+00    0.02       1.0  T
  82    -12.9758498 -0.116261E+00  0.436E+00    0.07       1.0  T
  83    -12.4465426  0.529307E+00  0.806E+00    0.00       1.0  T
  84    -13.0282363 -0.581694E+00  0.342E+00    0.15       1.0  T
  85    -13.0044591  0.237772E-01  0.373E+00    0.17       1.0  T
  86    -12.9879822  0.164768E-01  0.429E+00    0.19       1.0  T
  87    -13.0172430 -0.292608E-01  0.339E+00    0.16       1.0  T
  88    -12.7229015  0.294342E+00  0.612E+00    0.00       1.0  T
  89    -12.9880465 -0.265145E+00  0.415E+00    0.08       1.0  T
  90    -12.9762967  0.117498E-01  0.354E+00    0.03       1.0  T
  91    -13.0139742 -0.376775E-01  0.361E+00    0.17       1.0  T
  92    -12.9852110  0.287632E-01  0.412E+00    0.20       1.0  T
  93    -13.0328301 -0.476190E-01  0.347E+00    0.15       1.0  T
  94    -13.0386477 -0.581765E-02  0.278E+00    0.13       1.0  T
  95    -12.2227389  0.815909E+00  0.942E+00    0.00       1.0  T
  96    -13.0394756 -0.816737E+00  0.305E+00    0.11       1.0  T
  97    -12.9892859  0.501898E-01  0.404E+00    0.20       1.0  T
  98    -13.0582955 -0.690096E-01  0.295E+00    0.13       1.0  T
  99    -13.0412825  0.170130E-01  0.271E+00    0.12       1.0  T
 100    -12.2226953  0.818587E+00  0.942E+00    0.00       1.0  T
 101    -13.0389126 -0.816217E+00  0.302E+00    0.13       1.0  T
 102    -13.0147416  0.241710E-01  0.344E+00    0.16       1.0  T
 103    -13.0940753 -0.793337E-01  0.157E+00    0.07       1.0  T
 104    -13.0368256  0.572497E-01  0.288E+00    0.10       1.0  T
 105    -12.2253559  0.811470E+00  0.939E+00    0.00       1.0  T
 106    -13.0269233 -0.801567E+00  0.333E+00    0.15       1.0  T
 107    -13.0339855 -0.706221E-02  0.295E+00    0.14       1.0  T
 108    -12.9909606  0.430250E-01  0.336E+00    0.04       1.0  T
 109    -13.0343946 -0.434341E-01  0.304E+00    0.10       1.0  T
 110    -13.0898849 -0.554903E-01  0.173E+00    0.07       1.0  T
 111    -13.0316711  0.582138E-01  0.308E+00    0.14       1.0  T
 112    -13.0805124 -0.488413E-01  0.237E+00    0.11       1.0  T
 113    -13.0408886  0.396238E-01  0.272E+00    0.12       1.0  T
 114    -12.2278603  0.813028E+00  0.938E+00    0.00       1.0  T
 115    -13.0423106 -0.814450E+00  0.291E+00    0.12       1.0  T
 116    -13.0002411  0.420695E-01  0.378E+00    0.18       1.0  T
 117    -13.0708052 -0.705641E-01  0.264E+00    0.12       1.0  T
 118    -13.0431144  0.276908E-01  0.263E+00    0.11       1.0  T
 119    -12.2233256  0.819789E+00  0.941E+00    0.00       1.0  T
 120    -13.0328909 -0.809565E+00  0.314E+00    0.14       1.0  T
 121    -13.0227033  0.101876E-01  0.324E+00    0.15       1.0  T
 122    -13.1002863 -0.775830E-01  0.149E+00    0.08       1.0  T
 123    -13.0355609  0.647253E-01  0.287E+00    0.10       1.0  T
 124    -12.2254204  0.810141E+00  0.939E+00    0.00       1.0  T
 125    -13.0182351 -0.792815E+00  0.349E+00    0.16       1.0  T
 126    -13.0339482 -0.157131E-01  0.294E+00    0.14       1.0  T
 127    -13.0960171 -0.620689E-01  0.150E+00    0.07       1.0  T
 128    -13.0394813  0.565358E-01  0.279E+00    0.10       1.0  T
 129    -12.3331341  0.706347E+00  0.876E+00    0.00       1.0  T
 130    -13.0402235 -0.707089E+00  0.296E+00    0.13       1.0  T
 131    -13.0142117  0.260118E-01  0.346E+00    0.16       1.0  T
 132    -13.0479751 -0.337634E-01  0.315E+00    0.14       1.0  T
 133    -13.0419173  0.605779E-02  0.267E+00    0.12       1.0  T
 134    -12.2464306  0.795487E+00  0.927E+00    0.00       1.0  T
 135    -13.0385876 -0.792157E+00  0.297E+00    0.13       1.0  T
 136    -13.0151224  0.234652E-01  0.343E+00    0.16       1.0  T
 137    -13.0677943 -0.526719E-01  0.269E+00    0.12       1.0  T
 138    -13.0424699  0.253244E-01  0.264E+00    0.11       1.0  T
 139    -12.2250944  0.817376E+00  0.940E+00    0.00       1.0  T
 140    -13.0191698 -0.794075E+00  0.344E+00    0.16       1.0  T
 141    -13.0308872 -0.117173E-01  0.302E+00    0.14       1.0  T
 142    -13.0990380 -0.681508E-01  0.139E+00    0.07       1.0  T
 143    -13.0371016  0.619363E-01  0.282E+00    0.10       1.0  T
 144    -12.2680724  0.769029E+00  0.914E+00    0.00       1.0  T
 145    -13.0338919 -0.765819E+00  0.310E+00    0.14       1.0  T
 146    -13.0265286  0.736331E-02  0.314E+00    0.15       1.0  T
 147    -13.0836261 -0.570975E-01  0.227E+00    0.11       1.0  T
 148    -13.0429956  0.406305E-01  0.264E+00    0.11       1.0  T
 149    -12.2625859  0.780410E+00  0.917E+00    0.00       1.0  T
 150    -13.0324755 -0.769890E+00  0.312E+00    0.14       1.0  T
 151    -13.0221606  0.103149E-01  0.325E+00    0.15       1.0  T
 152    -13.0675301 -0.453695E-01  0.267E+00    0.12       1.0  T
 153    -13.0418378  0.256923E-01  0.264E+00    0.11       1.0  T
 154    -12.2279523  0.813885E+00  0.938E+00    0.00       1.0  T
 155    -13.0144919 -0.786540E+00  0.354E+00    0.17       1.0  T
 156    -13.0306222 -0.161302E-01  0.303E+00    0.14       1.0  T
 157    -13.0976586 -0.670364E-01  0.169E+00    0.10       1.0  T
 158    -13.0353206  0.623380E-01  0.282E+00    0.10       1.0  T
 159    -12.2282628  0.807058E+00  0.937E+00    0.00       1.0  T
 160    -13.0110120 -0.782749E+00  0.363E+00    0.17       1.0  T
 161    -13.0315568 -0.205448E-01  0.300E+00    0.14       1.0  T
 162    -13.0979476 -0.663908E-01  0.167E+00    0.10       1.0  T
 163    -13.0370641  0.608835E-01  0.277E+00    0.10       1.0  T
 164    -12.2319257  0.805138E+00  0.935E+00    0.00       1.0  T
 165    -13.0161231 -0.784197E+00  0.351E+00    0.16       1.0  T
 166    -13.0290532 -0.129301E-01  0.307E+00    0.15       1.0  T
 167    -13.0992506 -0.701974E-01  0.161E+00    0.09       1.0  T
 168    -13.0412653  0.579853E-01  0.267E+00    0.10       1.0  T
 169    -12.2594485  0.781817E+00  0.919E+00    0.00       1.0  T
 170    -13.0317008 -0.772252E+00  0.313E+00    0.14       1.0  T
 171    -13.0260676  0.563320E-02  0.315E+00    0.15       1.0  T
 172    -13.0935873 -0.675197E-01  0.189E+00    0.10       1.0  T
 173    -13.0430835  0.505038E-01  0.262E+00    0.11       1.0  T
 174    -12.3042225  0.738861E+00  0.894E+00    0.00       1.0  T
 175    -13.0338192 -0.729597E+00  0.307E+00    0.14       1.0  T
 176    -13.0235543  0.102649E-01  0.321E+00    0.15       1.0  T
 177    -13.0893325 -0.657782E-01  0.204E+00    0.11       1.0  T
 178    -13.0425700  0.467625E-01  0.262E+00    0.11       1.0  T
 179    -12.2616388  0.780931E+00  0.918E+00    0.00       1.0  T
 180    -13.0242248 -0.762586E+00  0.330E+00    0.15       1.0  T
 181    -13.0278280 -0.360324E-02  0.310E+00    0.15       1.0  T
 182    -13.1005239 -0.726959E-01  0.154E+00    0.09       1.0  T
 183    -13.0406312  0.598927E-01  0.268E+00    0.10       1.0  T
 184    -12.2824383  0.758193E+00  0.906E+00    0.00       1.0  T
 185    -13.0290141 -0.746576E+00  0.319E+00    0.15       1.0  T
 186    -13.0261738  0.284033E-02  0.314E+00    0.15       1.0  T
 187    -13.0934627 -0.672889E-01  0.187E+00    0.10       1.0  T
 188    -13.0417641  0.516986E-01  0.264E+00    0.11       1.0  T
 189    -12.2681992  0.773565E+00  0.914E+00    0.00       1.0  T
 190    -13.0245491 -0.756350E+00  0.330E+00    0.15       1.0  T
 191    -13.0256830 -0.113390E-02  0.315E+00    0.15       1.0  T
 192    -13.0940663 -0.683833E-01  0.183E+00    0.10       1.0  T
 193    -13.0406589  0.534074E-01  0.266E+00    0.10       1.0  T
 194    -12.2579241  0.782735E+00  0.920E+00    0.00       1.0  T
 195    -13.0229936 -0.765069E+00  0.333E+00    0.15       1.0  T
 196    -13.0256698 -0.267616E-02  0.315E+00    0.15       1.0  T
 197    -13.0985979 -0.729282E-01  0.163E+00    0.10       1.0  T
 198    -13.0403683  0.582297E-01  0.267E+00    0.10       1.0  T
 199    -12.2697136  0.770655E+00  0.914E+00    0.00       1.0  T
 200    -13.0266721 -0.756958E+00  0.324E+00    0.15       1.0  T
 201    -13.0244725  0.219967E-02  0.318E+00    0.15       1.0  T
 202    -13.0941634 -0.696909E-01  0.182E+00    0.10       1.0  T
 203    -13.0412458  0.529176E-01  0.264E+00    0.10       1.0  T
 204    -12.2634548  0.777791E+00  0.917E+00    0.00       1.0  T
 205    -13.0235467 -0.760092E+00  0.331E+00    0.15       1.0  T
 206    -13.0246744 -0.112762E-02  0.318E+00    0.15       1.0  T
 207    -13.0954547 -0.707803E-01  0.175E+00    0.10       1.0  T
 208    -13.0403187  0.551360E-01  0.266E+00    0.10       1.0  T
 209    -12.2599285  0.780390E+00  0.919E+00    0.00       1.0  T
 210    -13.0222440 -0.762316E+00  0.335E+00    0.16       1.0  T
 211    -13.0250827 -0.283865E-02  0.317E+00    0.15       1.0  T
 212    -13.0996157 -0.745330E-01  0.156E+00    0.10       1.0  T
 213    -13.0399934  0.596223E-01  0.267E+00    0.10       1.0  T
 214    -12.2703762  0.769617E+00  0.913E+00    0.00       1.0  T
 215    -13.0248224 -0.754446E+00  0.328E+00    0.15       1.0  T
 216    -13.0246712  0.151217E-03  0.318E+00    0.15       1.0  T
 217    -13.0974552 -0.727840E-01  0.166E+00    0.10       1.0  T
 218    -13.0410555  0.563997E-01  0.264E+00    0.10       1.0  T
 219    -12.2685567  0.772499E+00  0.914E+00    0.00       1.0  T
 220    -13.0234924 -0.754936E+00  0.331E+00    0.15       1.0  T
 221    -13.0246296 -0.113714E-02  0.318E+00    0.15       1.0  T
 222    -13.0967837 -0.721541E-01  0.168E+00    0.10       1.0  T
 223    -13.0411373  0.556464E-01  0.263E+00    0.10       1.0  T
 224    -12.2650415  0.776096E+00  0.916E+00    0.00       1.0  T
 225    -13.0226030 -0.757561E+00  0.333E+00    0.16       1.0  T
 226    -13.0251323 -0.252931E-02  0.317E+00    0.15       1.0  T
 227    -13.0994220 -0.742897E-01  0.156E+00    0.10       1.0  T
 228    -13.0408852  0.585368E-01  0.264E+00    0.10       1.0  T
 229    -12.2707265  0.770159E+00  0.913E+00    0.00       1.0  T
 230    -13.0236247 -0.752898E+00  0.331E+00    0.15       1.0  T
 231    -13.0253372 -0.171254E-02  0.317E+00    0.15       1.0  T
 232    -13.0995728 -0.742356E-01  0.155E+00    0.10       1.0  T
 233    -13.0415631  0.580098E-01  0.262E+00    0.10       1.0  T
 234    -12.2728571  0.768706E+00  0.912E+00    0.00       1.0  T
 235    -13.0236350 -0.750778E+00  0.330E+00    0.15       1.0  T
 236    -13.0253652 -0.173018E-02  0.317E+00    0.15       1.0  T
 237    -13.0988311 -0.734659E-01  0.158E+00    0.10       1.0  T
 238    -13.0424254  0.564057E-01  0.260E+00    0.10       1.0  T
 239    -12.2712968  0.771129E+00  0.913E+00    0.00       1.0  T
 240    -13.0236129 -0.752316E+00  0.330E+00    0.15       1.0  T
 241    -13.0256480 -0.203508E-02  0.316E+00    0.15       1.0  T
 242    -13.0990054 -0.733574E-01  0.157E+00    0.10       1.0  T
 243    -13.0430430  0.559624E-01  0.259E+00    0.10       1.0  T
 244    -12.2717211  0.771322E+00  0.913E+00    0.00       1.0  T
 245    -13.0238287 -0.752108E+00  0.329E+00    0.15       1.0  T
 246    -13.0259760 -0.214724E-02  0.315E+00    0.15       1.0  T
 247    -13.0992298 -0.732539E-01  0.155E+00    0.10       1.0  T
 248    -13.0437725  0.554573E-01  0.257E+00    0.10       1.0  T
 249    -12.2722123  0.771560E+00  0.913E+00    0.00       1.0  T
 250    -13.0240670 -0.751855E+00  0.329E+00    0.15       1.0  T
     SCC iter.                  ...        0 min,  0.112 sec
     gradient                   ...        0 min,  0.000 sec
 * total energy  :   -12.5229012 Eh     change       -0.5635162E+01 Eh
   gradient norm :     4.2375705 Eh/α   predicted    -0.8102421E+01 (  43.78%)
   displ. norm   :     0.4525773 α      lambda       -0.1909453E+01
   maximum displ.:     0.4455899 α      in ANC's #12, #9, #3, ...

........................................................................
.............................. CYCLE    4 ..............................
........................................................................
   1    -13.0043938 -0.130044E+02  0.308E+00    0.32       0.0  T
   2    -12.1300426  0.874351E+00  0.117E+01    0.00       1.0  T
   3    -12.1854608 -0.554182E-01  0.106E+01    0.00       1.0  T
   4    -12.1744189  0.110418E-01  0.110E+01    0.00       1.0  T
   5    -12.5136365 -0.339218E+00  0.101E+01    0.01       1.0  T
   6    -12.5631462 -0.495098E-01  0.963E+00    0.02       1.0  T
   7    -12.5639837 -0.837488E-03  0.962E+00    0.02       1.0  T
   8    -12.8435272 -0.279543E+00  0.136E+01    1.46       1.0  T
   9    -12.8568869 -0.133597E-01  0.928E+00    1.97       1.0  T
  10    -12.8629438 -0.605693E-02  0.783E+00    1.44       1.0  T
  11    -12.8785947 -0.156509E-01  0.709E+00    0.90       1.0  T
  12    -12.9241340 -0.455393E-01  0.638E+00    0.50       1.0  T
  13    -12.8846925  0.394415E-01  0.697E+00    0.08       1.0  T
  14    -12.9751623 -0.904698E-01  0.545E+00    0.34       1.0  T
  15    -13.0458249 -0.706626E-01  0.390E+00    0.15       1.0  T
  16    -13.0141488  0.316761E-01  0.427E+00    0.23       1.0  T
  17    -13.0503440 -0.361952E-01  0.286E+00    0.15       1.0  T
  18    -12.2123051  0.838039E+00  0.102E+01    0.00       1.0  T
  19    -12.9141391 -0.701834E+00  0.676E+00    0.59       1.0  T
  20    -12.9558910 -0.417519E-01  0.494E+00    0.08       1.0  T
  21    -13.0180697 -0.621787E-01  0.353E+00    0.25       1.0  T
  22    -12.2125222  0.805547E+00  0.973E+00    0.00       1.0  T
  23    -12.9900373 -0.777515E+00  0.467E+00    0.34       1.0  T
  24    -13.0336757 -0.436384E-01  0.374E+00    0.25       1.0  T
  25    -12.9943771  0.392986E-01  0.416E+00    0.33       1.0  T
  26    -12.2643713  0.730006E+00  0.926E+00    0.00       1.0  T
  27    -12.9544176 -0.690046E+00  0.523E+00    0.44       1.0  T
  28    -13.0223204 -0.679028E-01  0.363E+00    0.26       1.0  T
  29    -13.0005629  0.217575E-01  0.395E+00    0.32       1.0  T
  30    -12.2229147  0.777648E+00  0.949E+00    0.00       1.0  T
  31    -12.9668043 -0.743890E+00  0.496E+00    0.39       1.0  T
  32    -13.0246796 -0.578753E-01  0.366E+00    0.26       1.0  T
  33    -13.0009218  0.237578E-01  0.399E+00    0.31       1.0  T
  34    -13.0850622 -0.841404E-01  0.227E+00    0.13       1.0  T
  35    -12.2434728  0.841589E+00  0.938E+00    0.00       1.0  T
  36    -12.9888417 -0.745369E+00  0.451E+00    0.33       1.0  T
  37    -13.0288933 -0.400516E-01  0.360E+00    0.25       1.0  T
  38    -13.0048452  0.240481E-01  0.392E+00    0.30       1.0  T
  39    -13.0474994 -0.426542E-01  0.310E+00    0.17       1.0  T
  40    -12.2164510  0.831048E+00  0.958E+00    0.00       1.0  T
  41    -13.0036376 -0.787187E+00  0.427E+00    0.29       1.0  T
  42    -13.0352214 -0.315838E-01  0.346E+00    0.23       1.0  T
  43    -13.0149255  0.202959E-01  0.366E+00    0.27       1.0  T
  44    -12.2694792  0.745446E+00  0.926E+00    0.00       1.0  T
  45    -13.0294460 -0.759967E+00  0.380E+00    0.24       1.0  T
  46    -13.0341687 -0.472273E-02  0.343E+00    0.23       1.0  T
  47    -13.0388751 -0.470634E-02  0.323E+00    0.20       1.0  T
  48    -12.2169052  0.821970E+00  0.958E+00    0.00       1.0  T
  49    -13.0441358 -0.827231E+00  0.405E+00    0.20       1.0  T
  50    -13.0227386  0.213972E-01  0.353E+00    0.25       1.0  T
  51    -13.0436920 -0.209534E-01  0.307E+00    0.20       1.0  T
  52    -12.2269791  0.816713E+00  0.951E+00    0.00       1.0  T
  53    -13.0449269 -0.817948E+00  0.403E+00    0.20       1.0  T
  54    -13.0246516  0.202753E-01  0.346E+00    0.25       1.0  T
  55    -13.0483205 -0.236689E-01  0.294E+00    0.19       1.0  T
  56    -12.2493203  0.799000E+00  0.938E+00    0.00       1.0  T
  57    -13.0439220 -0.794602E+00  0.399E+00    0.20       1.0  T
  58    -13.0253705  0.185515E-01  0.344E+00    0.24       1.0  T
  59    -13.0418729 -0.165024E-01  0.305E+00    0.21       1.0  T
  60    -12.2511819  0.790691E+00  0.937E+00    0.00       1.0  T
  61    -13.0417472 -0.790565E+00  0.397E+00    0.21       1.0  T
  62    -13.0268729  0.148743E-01  0.342E+00    0.24       1.0  T
  63    -13.0353424 -0.846951E-02  0.316E+00    0.23       1.0  T
  64    -12.3281945  0.707148E+00  0.894E+00    0.00       1.0  T
  65    -13.0406046 -0.712410E+00  0.392E+00    0.21       1.0  T
  66    -13.0270566  0.135480E-01  0.340E+00    0.24       1.0  T
  67    -13.0413754 -0.143189E-01  0.304E+00    0.21       1.0  T
  68    -12.5378136  0.503562E+00  0.767E+00    0.00       1.0  T
  69    -13.0391307 -0.501317E+00  0.380E+00    0.22       1.0  T
  70    -13.0263140  0.128167E-01  0.339E+00    0.24       1.0  T
  71    -13.0660560 -0.397420E-01  0.253E+00    0.17       1.0  T
  72    -13.1169451 -0.508891E-01  0.546E-01    0.09       1.0  T
  73    -13.0313063  0.856388E-01  0.326E+00    0.23       1.0  T
  74    -12.5529051  0.478401E+00  0.756E+00    0.00       1.0  T
  75    -13.0372896 -0.484384E+00  0.376E+00    0.22       1.0  T
  76    -13.0261245  0.111651E-01  0.339E+00    0.24       1.0  T
  77    -13.0809546 -0.548301E-01  0.216E+00    0.15       1.0  T
  78    -13.0620233  0.189313E-01  0.259E+00    0.18       1.0  T
  79    -12.6369555  0.425068E+00  0.698E+00    0.00       1.0  T
  80    -13.0390848 -0.402129E+00  0.362E+00    0.22       1.0  T
  81    -13.0270980  0.119867E-01  0.333E+00    0.24       1.0  T
  82    -13.1125834 -0.854854E-01  0.957E-01    0.11       1.0  T
  83    -13.0331774  0.794061E-01  0.315E+00    0.23       1.0  T
  84    -12.2939683  0.739209E+00  0.912E+00    0.00       1.0  T
  85    -13.0415144 -0.747546E+00  0.369E+00    0.21       1.0  T
  86    -13.0301641  0.113503E-01  0.325E+00    0.23       1.0  T
  87    -13.1165267 -0.863625E-01  0.626E-01    0.10       1.0  T
  88    -13.0352103  0.813164E-01  0.311E+00    0.22       1.0  T
  89    -12.3963757  0.638835E+00  0.854E+00    0.00       1.0  T
  90    -13.0424615 -0.646086E+00  0.359E+00    0.21       1.0  T
  91    -13.0302828  0.121787E-01  0.322E+00    0.23       1.0  T
  92    -13.1156800 -0.853972E-01  0.574E-01    0.08       1.0  T
  93    -13.0362719  0.794081E-01  0.312E+00    0.22       1.0  T
  94    -12.7271381  0.309134E+00  0.630E+00    0.01       1.0  T
  95    -13.0412988 -0.314161E+00  0.341E+00    0.21       1.0  T
  96    -13.0309641  0.103347E-01  0.319E+00    0.24       1.0  T
  97    -13.0641910 -0.332268E-01  0.233E+00    0.05       1.0  T
  98    -13.0382523  0.259387E-01  0.318E+00    0.22       1.0  T
  99    -13.1169007 -0.786484E-01  0.519E-01    0.09       1.0  T
 100    -13.0361315  0.807692E-01  0.311E+00    0.22       1.0  T
 101    -12.6983143  0.337817E+00  0.652E+00    0.00       1.0  T
 102    -13.0412325 -0.342918E+00  0.338E+00    0.21       1.0  T
 103    -13.0319303  0.930224E-02  0.317E+00    0.23       1.0  T
 104    -13.0760348 -0.441045E-01  0.206E+00    0.06       1.0  T
 105    -13.0384294  0.376054E-01  0.314E+00    0.22       1.0  T
 106    -13.0920014 -0.535720E-01  0.163E+00    0.06       1.0  T
 107    -13.0382923  0.537091E-01  0.313E+00    0.22       1.0  T
 108    -13.0536347 -0.153424E-01  0.255E+00    0.05       1.0  T
 109    -13.0392311  0.144035E-01  0.315E+00    0.21       1.0  T
 110    -13.1157015 -0.764703E-01  0.578E-01    0.08       1.0  T
 111    -13.0374110  0.782905E-01  0.307E+00    0.22       1.0  T
 112    -12.6711356  0.366275E+00  0.673E+00    0.00       1.0  T
 113    -13.0424221 -0.371286E+00  0.331E+00    0.21       1.0  T
 114    -13.0421228  0.299345E-03  0.297E+00    0.23       1.0  T
 115    -12.9798505  0.622723E-01  0.375E+00    0.04       1.0  T
 116    -13.0409642 -0.611138E-01  0.315E+00    0.21       1.0  T
 117    -13.1096886 -0.687244E-01  0.109E+00    0.11       1.0  T
 118    -13.0378035  0.718851E-01  0.300E+00    0.22       1.0  T
 119    -12.4176192  0.620184E+00  0.842E+00    0.00       1.0  T
 120    -13.0439977 -0.626379E+00  0.334E+00    0.20       1.0  T
 121    -13.0433930  0.604701E-03  0.293E+00    0.23       1.0  T
 122    -12.9823562  0.610368E-01  0.372E+00    0.04       1.0  T
 123    -13.0413161 -0.589599E-01  0.312E+00    0.21       1.0  T
 124    -13.1155253 -0.742092E-01  0.687E-01    0.10       1.0  T
 125    -13.0378886  0.776367E-01  0.301E+00    0.22       1.0  T
 126    -12.5772875  0.460601E+00  0.740E+00    0.00       1.0  T
 127    -13.0435075 -0.466220E+00  0.326E+00    0.20       1.0  T
 128    -13.0571262 -0.136187E-01  0.266E+00    0.19       1.0  T
 129    -13.0608738 -0.374758E-02  0.241E+00    0.05       1.0  T
 130    -13.0398443  0.210295E-01  0.308E+00    0.21       1.0  T
 131    -13.1176214 -0.777770E-01  0.384E-01    0.09       1.0  T
 132    -13.0384389  0.791825E-01  0.301E+00    0.22       1.0  T
 133    -12.7434935  0.294945E+00  0.617E+00    0.01       1.0  T
 134    -13.0430094 -0.299516E+00  0.319E+00    0.21       1.0  T
 135    -13.0863480 -0.433386E-01  0.195E+00    0.15       1.0  T
 136    -13.0990375 -0.126895E-01  0.151E+00    0.13       1.0  T
 137    -13.0990968 -0.592479E-04  0.151E+00    0.13       1.0  T
 138    -13.0679543  0.311425E-01  0.239E+00    0.17       1.0  T
 139    -13.0090452  0.589090E-01  0.334E+00    0.04       1.0  T
 140    -13.0420993 -0.330540E-01  0.306E+00    0.21       1.0  T
 141    -13.1175333 -0.754341E-01  0.378E-01    0.09       1.0  T
 142    -13.0401289  0.774044E-01  0.296E+00    0.21       1.0  T
 143    -12.4142664  0.625862E+00  0.844E+00    0.00       1.0  T
 144    -13.0455726 -0.631306E+00  0.321E+00    0.20       1.0  T
 145    -13.1164627 -0.708901E-01  0.565E-01    0.10       1.0  T
 146    -13.0398822  0.765805E-01  0.294E+00    0.21       1.0  T
 147    -12.4447550  0.595127E+00  0.826E+00    0.00       1.0  T
 148    -13.0447068 -0.599952E+00  0.320E+00    0.20       1.0  T
 149    -13.0976255 -0.529186E-01  0.158E+00    0.13       1.0  T
 150    -13.0807634  0.168621E-01  0.207E+00    0.16       1.0  T
 151    -13.0280733  0.526901E-01  0.303E+00    0.04       1.0  T
 152    -13.0411133 -0.130400E-01  0.305E+00    0.21       1.0  T
 153    -13.1114279 -0.703146E-01  0.953E-01    0.11       1.0  T
 154    -13.0438569  0.675711E-01  0.286E+00    0.21       1.0  T
 155    -12.5736928  0.470164E+00  0.743E+00    0.00       1.0  T
 156    -13.0444701 -0.470777E+00  0.315E+00    0.20       1.0  T
 157    -13.1005453 -0.560752E-01  0.146E+00    0.13       1.0  T
 158    -13.0778479  0.226974E-01  0.214E+00    0.16       1.0  T
 159    -12.9192373  0.158611E+00  0.451E+00    0.03       1.0  T
 160    -13.0425223 -0.123285E+00  0.307E+00    0.21       1.0  T
 161    -13.0981310 -0.556087E-01  0.155E+00    0.13       1.0  T
 162    -13.0853130  0.128180E-01  0.193E+00    0.15       1.0  T
 163    -13.0455309  0.397821E-01  0.273E+00    0.05       1.0  T
 164    -13.0418431  0.368786E-02  0.300E+00    0.21       1.0  T
 165    -13.1139111 -0.720681E-01  0.673E-01    0.08       1.0  T
 166    -13.0409601  0.729510E-01  0.293E+00    0.21       1.0  T
 167    -12.5727237  0.468236E+00  0.744E+00    0.00       1.0  T
 168    -13.0449511 -0.472227E+00  0.310E+00    0.20       1.0  T
 169    -13.1066988 -0.617477E-01  0.108E+00    0.07       1.0  T
 170    -13.0406364  0.660623E-01  0.295E+00    0.21       1.0  T
 171    -12.6757681  0.364868E+00  0.670E+00    0.00       1.0  T
 172    -13.0435651 -0.367797E+00  0.309E+00    0.20       1.0  T
 173    -13.1167310 -0.731660E-01  0.516E-01    0.10       1.0  T
 174    -13.0430878  0.736432E-01  0.288E+00    0.21       1.0  T
 175    -12.7166940  0.326394E+00  0.639E+00    0.01       1.0  T
 176    -13.0429352 -0.326241E+00  0.309E+00    0.21       1.0  T
 177    -13.1004647 -0.575295E-01  0.146E+00    0.13       1.0  T
 178    -13.0933534  0.711127E-02  0.170E+00    0.14       1.0  T
 179    -13.1177528 -0.243994E-01  0.303E-01    0.09       1.0  T
 180    -13.0392962  0.784566E-01  0.296E+00    0.21       1.0  T
 181    -13.1069526 -0.676564E-01  0.107E+00    0.07       1.0  T
 182    -13.0409634  0.659892E-01  0.293E+00    0.21       1.0  T
 183    -12.7913590  0.249604E+00  0.577E+00    0.01       1.0  T
 184    -13.0438634 -0.252504E+00  0.303E+00    0.20       1.0  T
 185    -13.0685686 -0.247052E-01  0.225E+00    0.06       1.0  T
 186    -13.0414067  0.271619E-01  0.296E+00    0.21       1.0  T
 187    -12.8589891  0.182418E+00  0.514E+00    0.02       1.0  T
 188    -13.0426736 -0.183684E+00  0.303E+00    0.21       1.0  T
 189    -13.1049967 -0.623232E-01  0.115E+00    0.07       1.0  T
 190    -13.0401969  0.647998E-01  0.296E+00    0.21       1.0  T
 191    -12.9047935  0.135403E+00  0.466E+00    0.02       1.0  T
 192    -13.0420838 -0.137290E+00  0.302E+00    0.21       1.0  T
 193    -13.1113256 -0.692418E-01  0.832E-01    0.08       1.0  T
 194    -13.0399565  0.713692E-01  0.295E+00    0.21       1.0  T
 195    -12.9354137  0.104543E+00  0.432E+00    0.03       1.0  T
 196    -13.0418861 -0.106472E+00  0.301E+00    0.21       1.0  T
 197    -13.1059029 -0.640168E-01  0.111E+00    0.07       1.0  T
 198    -13.0401251  0.657778E-01  0.295E+00    0.21       1.0  T
 199    -12.9556590  0.844661E-01  0.407E+00    0.03       1.0  T
 200    -13.0418017 -0.861427E-01  0.300E+00    0.21       1.0  T
 201    -13.0968779 -0.550762E-01  0.146E+00    0.07       1.0  T
 202    -13.0403703  0.565076E-01  0.296E+00    0.21       1.0  T
 203    -12.9739585  0.664117E-01  0.384E+00    0.03       1.0  T
 204    -13.0417046 -0.677460E-01  0.299E+00    0.21       1.0  T
 205    -13.0871981 -0.454935E-01  0.177E+00    0.06       1.0  T
 206    -13.0405752  0.466229E-01  0.296E+00    0.21       1.0  T
 207    -12.9924234  0.481518E-01  0.358E+00    0.04       1.0  T
 208    -13.0415812 -0.491578E-01  0.298E+00    0.21       1.0  T
 209    -13.0774464 -0.358653E-01  0.203E+00    0.06       1.0  T
 210    -13.0407427  0.367037E-01  0.296E+00    0.21       1.0  T
 211    -13.0091710  0.315717E-01  0.333E+00    0.04       1.0  T
 212    -13.0414585 -0.322875E-01  0.298E+00    0.21       1.0  T
 213    -13.0679305 -0.264720E-01  0.226E+00    0.06       1.0  T
 214    -13.0408862  0.270442E-01  0.296E+00    0.21       1.0  T
 215    -13.0223885  0.184977E-01  0.312E+00    0.04       1.0  T
 216    -13.0413598 -0.189713E-01  0.297E+00    0.21       1.0  T
 217    -13.0594197 -0.180599E-01  0.244E+00    0.05       1.0  T
 218    -13.0410056  0.184141E-01  0.296E+00    0.21       1.0  T
 219    -13.0316291  0.937643E-02  0.297E+00    0.05       1.0  T
 220    -13.0412928 -0.966363E-02  0.297E+00    0.21       1.0  T
 221    -13.0527680 -0.114753E-01  0.258E+00    0.05       1.0  T
 222    -13.0410960  0.116721E-01  0.296E+00    0.21       1.0  T
 223    -13.0374366  0.365936E-02  0.287E+00    0.05       1.0  T
 224    -13.0412547 -0.381809E-02  0.296E+00    0.21       1.0  T
 225    -13.0483093 -0.705461E-02  0.267E+00    0.05       1.0  T
 226    -13.0411580  0.715133E-02  0.296E+00    0.21       1.0  T
 227    -13.0407239  0.434095E-03  0.281E+00    0.05       1.0  T
 228    -13.0412384 -0.514575E-03  0.296E+00    0.21       1.0  T
 229    -13.0457375 -0.449909E-02  0.272E+00    0.05       1.0  T
 230    -13.0411979  0.453958E-02  0.295E+00    0.21       1.0  T
[...]
  13    -13.1179183 -0.130013E-03  0.126E-01    0.09       1.0  T
  14    -13.1178002  0.118015E-03  0.158E-01    0.09       1.0  T
  15    -13.1180261 -0.225886E-03  0.380E-02    0.09       1.1  T
  16    -13.1180334 -0.726277E-05  0.979E-03    0.09       4.2  T
  17    -13.1180338 -0.370882E-06  0.866E-03    0.09       4.7  T
  18    -13.1180305  0.328615E-05  0.227E-02    0.09       1.8  T
  19    -13.1180334 -0.290720E-05  0.112E-02    0.09       3.6  T
  20    -13.1180344 -0.101374E-05  0.188E-03    0.09      21.7  T
  21    -13.1180344 -0.204930E-07  0.734E-04    0.09      55.6  T
     SCC iter.                  ...        0 min,  0.001 sec
     gradient                   ...        0 min,  0.000 sec
 * total energy  :   -13.0597707 Eh     change       -0.4055232E-03 Eh
   gradient norm :     0.0293296 Eh/α   predicted    -0.6400130E-03 (  57.82%)
   displ. norm   :     0.0990065 α      lambda       -0.2347108E-03
   maximum displ.:     0.0987740 α      in ANC's #3, #8, #1, ...

........................................................................
.............................. CYCLE   27 ..............................
........................................................................
   1    -13.1015034 -0.131015E+02  0.140E+00    0.07       0.0  T
   2    -12.8864250  0.215078E+00  0.631E+00    0.70       1.0  T
   3    -12.8384398  0.479852E-01  0.643E+00    0.04       1.0  T
   4    -12.9852915 -0.146852E+00  0.435E+00    0.25       1.0  T
   5    -12.3142712  0.671020E+00  0.907E+00    0.00       1.0  T
   6    -12.2215024  0.927687E-01  0.957E+00    0.00       1.0  T
   7    -12.3389431 -0.117441E+00  0.893E+00    0.00       1.0  T
   8    -12.9877272 -0.648784E+00  0.443E+00    0.07       1.0  T
   9    -13.1169077 -0.129180E+00  0.865E-01    0.10       1.0  T
  10    -13.0400273  0.768803E-01  0.300E+00    0.17       1.0  T
  11    -13.0540260 -0.139986E-01  0.267E+00    0.16       1.0  T
  12    -13.0601460 -0.611999E-02  0.260E+00    0.17       1.0  T
  13    -13.0992357 -0.390897E-01  0.152E+00    0.13       1.0  T
  14    -13.0906968  0.853890E-02  0.177E+00    0.14       1.0  T
  15    -13.1163002 -0.256034E-01  0.629E-01    0.08       1.0  T
  16    -13.1093694  0.693076E-02  0.108E+00    0.12       1.0  T
  17    -13.1199081 -0.105387E-01  0.112E-01    0.09       1.0  T
  18    -13.1187159  0.119224E-02  0.382E-01    0.10       1.0  T
  19    -13.1196922 -0.976261E-03  0.192E-01    0.09       1.0  T
  20    -13.1196186  0.735556E-04  0.212E-01    0.10       1.0  T
  21    -13.1199976 -0.378969E-03  0.346E-02    0.09       1.2  T
  22    -13.1200038 -0.618962E-05  0.261E-02    0.09       1.6  T
  23    -13.1200089 -0.510454E-05  0.891E-03    0.09       4.6  T
  24    -13.1200096 -0.737904E-06  0.127E-03    0.09      32.1  T
  25    -13.1200094  0.232523E-06  0.538E-03    0.09       7.6  T
     SCC iter.                  ...        0 min,  0.002 sec
     gradient                   ...        0 min,  0.000 sec
 * total energy  :   -13.0598427 Eh     change       -0.7194601E-04 Eh
   gradient norm :     0.0275348 Eh/α   predicted    -0.1185057E-03 (  64.71%)
   displ. norm   :     0.0248660 α      lambda       -0.3946915E-04
   maximum displ.:     0.0248203 α      in ANC's #3, #8, #11, ...

........................................................................
.............................. CYCLE   28 ..............................
........................................................................
   1    -13.1186694 -0.131187E+02  0.331E-01    0.10       0.0  T
   2    -12.2095006  0.909169E+00  0.968E+00    0.00       1.0  T
   3    -13.1183653 -0.908865E+00  0.393E-01    0.08       1.0  T
   4    -13.1177220  0.643257E-03  0.620E-01    0.09       1.0  T
   5    -13.1158898  0.183228E-02  0.606E-01    0.10       1.0  T
   6    -13.1196461 -0.375632E-02  0.779E-02    0.09       1.0  T
   7    -13.1192269  0.419171E-03  0.229E-01    0.09       1.0  T
   8    -13.1195618 -0.334862E-03  0.121E-01    0.09       1.0  T
   9    -13.1196634 -0.101579E-03  0.497E-02    0.09       1.0  T
  10    -13.1196833 -0.199248E-04  0.151E-02    0.09       2.7  T
  11    -13.1196825  0.810383E-06  0.182E-02    0.09       2.2  T
  12    -13.1196854 -0.296563E-05  0.144E-03    0.09      28.4  T
  13    -13.1196855 -0.161261E-07  0.478E-04    0.09      85.4  T
     SCC iter.                  ...        0 min,  0.001 sec
     gradient                   ...        0 min,  0.000 sec
 * total energy  :   -13.0598591 Eh     change       -0.1641740E-04 Eh
   gradient norm :     0.0130859 Eh/α   predicted    -0.1974598E-04 (  20.27%)
   displ. norm   :     0.0025245 α      lambda       -0.3449228E-05
   maximum displ.:     0.0022446 α      in ANC's #3, #5, #8, ...

........................................................................
.............................. CYCLE   29 ..............................
........................................................................
   1    -13.1195584 -0.131196E+02  0.440E-02    0.09       0.0  T
   2    -13.0023926  0.117166E+00  0.355E+00    0.04       1.0  T
   3    -13.1194665 -0.117074E+00  0.103E-01    0.09       1.0  T
   4    -13.1179845  0.148198E-02  0.412E-01    0.08       1.0  T
   5    -13.1195535 -0.156907E-02  0.465E-02    0.09       1.0  T
   6    -13.1195708 -0.172370E-04  0.207E-02    0.09       2.0  T
   7    -13.1195747 -0.397043E-05  0.643E-03    0.09       6.3  T
   8    -13.1195751 -0.304926E-06  0.127E-03    0.09      32.2  T
   9    -13.1195751 -0.124720E-07  0.258E-04    0.09     158.4  T
     SCC iter.                  ...        0 min,  0.001 sec
     gradient                   ...        0 min,  0.000 sec
 * total energy  :   -13.0598607 Eh     change       -0.1569832E-05 Eh
   gradient norm :     0.0011659 Eh/α   predicted    -0.1723806E-05 (   9.81%)
   displ. norm   :     0.0019510 α      lambda       -0.6926098E-07
   maximum displ.:     0.0015247 α      in ANC's #3, #5, #1, ...

........................................................................
.............................. CYCLE   30 ..............................
........................................................................
   1    -13.1195914 -0.131196E+02  0.187E-02    0.09       0.0  T
   2    -13.1090681  0.105233E-01  0.108E+00    0.12       1.0  T
   3    -13.1195824 -0.105143E-01  0.362E-02    0.09       1.1  T
   4    -13.1194849  0.975057E-04  0.105E-01    0.09       1.0  T
   5    -13.1195946 -0.109677E-03  0.412E-03    0.09       9.9  T
   6    -13.1195946 -0.182321E-07  0.357E-03    0.09      11.4  T
   7    -13.1195947 -0.107011E-06  0.113E-03    0.09      36.1  T
   8    -13.1195947 -0.123132E-07  0.123E-04    0.09     331.4  T
   9    -13.1195947 -0.619451E-10  0.919E-05    0.09     444.2  T
     SCC iter.                  ...        0 min,  0.001 sec
     gradient                   ...        0 min,  0.001 sec
 * total energy  :   -13.0598607 Eh     change       -0.4251145E-07 Eh
   gradient norm :     0.0004667 Eh/α   predicted    -0.3417499E-07 ( -19.61%)
   displ. norm   :     0.0014921 α      lambda       -0.1783550E-07
   maximum displ.:     0.0010709 α      in ANC's #5, #1, #3, ...

   *** GEOMETRY OPTIMIZATION CONVERGED AFTER 30 ITERATIONS ***

------------------------------------------------------------------------
 total energy gain   :        -7.1217795 Eh    -4468.9841 kcal/mol
 total RMSD          :         0.3079709 a0        0.1630 Å
 total power (kW/mol):      -623.2743181 (step)********** (real)
------------------------------------------------------------------------

 ANCopt (total)                0 d,  0 h,  0 min,  0.662 sec
 optimizer setup                ...        0 min,  0.000 sec (  0.007%)
 model hessian                  ...        0 min,  0.000 sec (  0.020%)
 ANC generation                 ...        0 min,  0.000 sec (  0.020%)
 coordinate transformation      ...        0 min,  0.000 sec (  0.019%)
 single point calculation       ...        0 min,  0.659 sec ( 99.568%)
 optimization log               ...        0 min,  0.001 sec (  0.103%)
 hessian update                 ...        0 min,  0.000 sec (  0.016%)
 rational function              ...        0 min,  0.001 sec (  0.122%)

================
 final structure:
================
6
 xtb: 6.2.3 (830e466)
F        -4.61604317321146   -0.27407248812223    0.07742157670689
Cl        2.92582997564879    0.16403263568636   -0.05818137864301
C        -0.62377748132563   -0.03308204154968    0.01510346646454
H        -0.59261407936147   -0.61462565341978   -0.88009043336176
H        -0.56594971827085   -0.51463476847570    0.96653600730969
H        -0.67038552347937    1.03230231588103   -0.04207923847610
 
 Bond Distances (Angstroems)
 ---------------------------
C3-H4=1.0680         C3-H5=1.0679         C3-H6=1.0679         H4-C3=1.0680         H5-C3=1.0679         H6-C3=1.0679         
 C  H  Rav=1.0679 sigma=0.0000  Rmin=1.0679  Rmax=1.0680     3
 
 selected bond angles (degree)
 --------------------
H5-C3-H4=119.98                H6-C3-H4=119.98                H6-C3-H5=119.99                
 
 selected dihedral angles (degree)
 ---------------------------------

 
 CMA Distance (Angstroems)
 ---------------------------
R(CMA):  6.4978
           -------------------------------------------------
          |                Final Singlepoint                |
           -------------------------------------------------

          ...................................................
          :                      SETUP                      :
          :.................................................:
          :  # basis functions                  21          :
          :  # atomic orbitals                  20          :
          :  # shells                           10          :
          :  # electrons                        22          :
          :  max. iterations                   250          :
          :  Hamiltonian                  GFN2-xTB          :
          :  restarted?                      false          :
          :  GBSA solvation                  false          :
          :  PC potential                    false          :
          :  electronic temp.          300.0000000     K    :
          :  accuracy                    1.0000000          :
          :  -> integral cutoff          0.2500000E+02      :
          :  -> integral neglect         0.1000000E-07      :
          :  -> SCF convergence          0.1000000E-05 Eh   :
          :  -> wf. convergence          0.1000000E-03 e    :
          :  Broyden damping             0.4000000          :
          ...................................................

 iter      E             dE          RMSdq      gap      omega  full diag
   1    -13.1195947 -0.131196E+02  0.117E-04    0.09       0.0  T
   2    -13.1195947  0.192473E-07  0.177E-03    0.09      23.1  T
   3    -13.1195946  0.784002E-07  0.329E-03    0.09      12.4  T
   4    -13.1195947 -0.766027E-07  0.166E-03    0.09      24.5  T
   5    -13.1195947 -0.210182E-07  0.719E-05    0.09     567.5  T
   6    -13.1195947 -0.310809E-10  0.513E-05    0.09     796.2  T

   *** convergence criteria satisfied after 6 iterations ***

         #    Occupation            Energy/Eh            Energy/eV
      -------------------------------------------------------------
         1        2.0000           -0.8656031             -23.5543
       ...           ...                  ...                  ...
         5        2.0000           -0.3802888             -10.3482
         6        1.9997           -0.2496490              -6.7933
         7        1.9759           -0.2454197              -6.6782
         8        1.9759           -0.2454195              -6.6782
         9        1.8517           -0.2436315              -6.6295
        10        1.8430           -0.2435725              -6.6279
        11        1.8429           -0.2435724              -6.6279 (HOMO)
        12        0.5108           -0.2402164              -6.5366 (LUMO)
        13                          0.2243861               6.1059
        14                          0.2390103               6.5038
        15                          0.2392520               6.5104
        16                          0.2392522               6.5104
       ...                                ...                  ...
        20                          0.3929247              10.6920
      -------------------------------------------------------------
                  HL-Gap            0.0033559 Eh            0.0913 eV
             Fermi-level           -0.2412329 Eh           -6.5643 eV

 SCC (total)                   0 d,  0 h,  0 min,  0.002 sec
 SCC setup                      ...        0 min,  0.000 sec (  3.019%)
 Dispersion                     ...        0 min,  0.000 sec (  0.441%)
 integral evaluation            ...        0 min,  0.001 sec ( 37.866%)
 zeroth order Hamiltonian       ...        0 min,  0.000 sec (  0.721%)
 iterations                     ...        0 min,  0.000 sec ( 25.658%)
 molecular gradient             ...        0 min,  0.001 sec ( 28.503%)
 printout                       ...        0 min,  0.000 sec (  2.685%)

         :::::::::::::::::::::::::::::::::::::::::::::::::::::
         ::                     SUMMARY                     ::
         :::::::::::::::::::::::::::::::::::::::::::::::::::::
         :: total energy             -13.059860721807 Eh    ::
         :: gradient norm              0.000466743401 Eh/a0 ::
         :: HOMO-LUMO gap              0.091319755628 eV    ::
         ::.................................................::
         :: SCC energy               -13.119594698851 Eh    ::
         :: -> isotropic ES            0.154183204519 Eh    ::
         :: -> anisotropic ES         -0.000730621893 Eh    ::
         :: -> anisotropic XC          0.006747311451 Eh    ::
         :: -> dispersion             -0.001356120336 Eh    ::
         :: repulsion energy           0.059736716452 Eh    ::
         :: add. restraining           0.000001025166 Eh    ::
         :::::::::::::::::::::::::::::::::::::::::::::::::::::

           -------------------------------------------------
          |                Property Printout                |
           -------------------------------------------------

    * Orbital Energies and Occupations

         #    Occupation            Energy/Eh            Energy/eV
      -------------------------------------------------------------
         1        2.0000           -0.8656031             -23.5543
         2        2.0000           -0.5304722             -14.4349
         3        2.0000           -0.4784249             -13.0186
         4        2.0000           -0.3803483             -10.3498
         5        2.0000           -0.3802888             -10.3482
         6        1.9997           -0.2496490              -6.7933
         7        1.9759           -0.2454197              -6.6782
         8        1.9759           -0.2454195              -6.6782
         9        1.8517           -0.2436315              -6.6295
        10        1.8430           -0.2435725              -6.6279
        11        1.8429           -0.2435724              -6.6279 (HOMO)
        12        0.5108           -0.2402164              -6.5366 (LUMO)
        13                          0.2243861               6.1059
        14                          0.2390103               6.5038
        15                          0.2392520               6.5104
        16                          0.2392522               6.5104
        17                          0.2404781               6.5437
        18                          0.2404781               6.5437
        19                          0.3928195              10.6892
        20                          0.3929247              10.6920
      -------------------------------------------------------------
                  HL-Gap            0.0033559 Eh            0.0913 eV
             Fermi-level           -0.2412329 Eh           -6.5643 eV

     #   Z        covCN         q      C6AA      α(0)
     1   9 F      0.000    -0.533    15.800     4.630
     2  17 Cl     0.000    -0.621   112.456    16.139
     3   6 C      2.780    -0.090    30.229     9.005
     4   1 H      0.927     0.081     1.966     2.192
     5   1 H      0.927     0.081     1.967     2.193
     6   1 H      0.927     0.081     1.968     2.194

 Mol. C6AA /au·bohr⁶  :        583.062178
 Mol. C8AA /au·bohr⁸  :      16525.042510
 Mol. α(0) /au        :         36.353496


Wiberg/Mayer (AO) data.
largest (>0.10) Wiberg bond orders for each atom
          total WBO             WBO to atom ...
     1  F   0.006
     2  Cl  0.381        C    3 0.381
     3  C   3.361        H    6 0.992    H    5 0.992    H    4 0.992    Cl   2 0.381
     4  H   0.993        C    3 0.992
     5  H   0.993        C    3 0.992
     6  H   0.993        C    3 0.992

molecular dipole:
                 x           y           z       tot (Debye)
 q only:        1.035       0.074      -0.006
   full:        1.057       0.075      -0.006       2.692
molecular quadrupole (traceless):
                xx          xy          yy          xz          yz          zz
 q only:      -59.697      -5.231      29.710       1.592       0.093      29.987
  q+dip:      -60.520      -5.302      30.119       1.613       0.094      30.400
   full:      -59.529      -5.219      29.626       1.585       0.092      29.903

           -------------------------------------------------
          |                Geometry Summary                 |
           -------------------------------------------------

      molecular mass/u    :       69.4858989
   center of mass at/Å    :        0.0963695       0.0016324      -0.0052628
  moments of inertia/u·Å² :        0.3450032E+01   0.7178160E+03   0.7178177E+03
rotational constants/cm⁻¹ :        0.4886225E+01   0.2348461E-01   0.2348456E-01

 * 3 selected distances

     #   Z        #   Z                                     value/Å
     3   6 C      4   1 H                                 1.0679589 (max)
     3   6 C      5   1 H                                 1.0679237 (min)
     3   6 C      6   1 H                                 1.0679354

 * 1 distinct bonds (by element types)

   Z      Z             #   av. dist./Å        max./Å        min./Å
   1 H    6 C           3     1.0679393     1.0679589     1.0679237


optimized geometry written to: xtbopt.xyz


           -------------------------------------------------
          | TOTAL ENERGY              -13.059860721807 Eh   |
          | GRADIENT NORM               0.000466743401 Eh/α |
          | HOMO-LUMO GAP               0.091319755628 eV   |
           -------------------------------------------------
########################################################################
[WARNING] Runtime exception occurred
-6- scf: Self consistent charge iterator did not converge
-5- scf: Self consistent charge iterator did not converge
-4- scf: Self consistent charge iterator did not converge
-3- scf: Self consistent charge iterator did not converge
-2- scf: Self consistent charge iterator did not converge
-1- scf: Self consistent charge iterator did not converge
########################################################################

------------------------------------------------------------------------
 * finished run on 2020/04/08 at 23:04:00.642     
------------------------------------------------------------------------
 total:
 * wall-time:     0 d,  0 h,  0 min,  0.791 sec
 *  cpu-time:     0 d,  0 h,  0 min,  0.790 sec
 * ratio c/w:     0.999 speedup
 SCF:
 * wall-time:     0 d,  0 h,  0 min,  0.119 sec
 *  cpu-time:     0 d,  0 h,  0 min,  0.119 sec
 * ratio c/w:     1.000 speedup
 ANC optimizer:
 * wall-time:     0 d,  0 h,  0 min,  0.664 sec
 *  cpu-time:     0 d,  0 h,  0 min,  0.663 sec
 * ratio c/w:     0.999 speedup

