      -----------------------------------------------------------      
     |                   =====================                   |     
     |                           x T B                           |     
     |                   =====================                   |     
     |                         S. Grimme                         |     
     |          Mulliken Center for Theoretical Chemistry        |     
     |                    University of Bonn                     |     
      -----------------------------------------------------------      

   * xtb version 6.2.3 (830e466) compiled by 'ehlert@majestix' on 2020-03-16

   xtb is free software: you can redistribute it and/or modify it under
   the terms of the GNU Lesser General Public License as published by
   the Free Software Foundation, either version 3 of the License, or
   (at your option) any later version.
   
   xtb is distributed in the hope that it will be useful,
   but WITHOUT ANY WARRANTY; without even the implied warranty of
   MERCHANTABILITY or FITNESS FOR A PARTICULAR PURPOSE.  See the
   GNU Lesser General Public License for more details.
   
   Cite this work as:
   * S. Grimme, C. Bannwarth, P. Shushkov, J. Chem. Theory Comput., 2017,
     13, 1989-2009. DOI: 10.1021/acs.jctc.7b00118
   * C. Bannwarth, S. Ehlert and S. Grimme., J. Chem. Theory Comput., 2019,
     15, 1652-1671. DOI: 10.1021/acs.jctc.8b01176
   * P. Pracht, E. Caldeweyher, S. Ehlert, S. Grimme, ChemRxiv, 2019, preprint.
     DOI: 10.26434/chemrxiv.8326202.v1
   
   for DFT-D4:
   * E. Caldeweyher, C. Bannwarth and S. Grimme, J. Chem. Phys., 2017,
     147, 034112. DOI: 10.1063/1.4993215
   * E. Caldeweyher, S. Ehlert, A. Hansen, H. Neugebauer, S. Spicher,
     C. Bannwarth and S. Grimme, J. Chem. Phys., 2019, 150, 154122.
     DOI: 10.1063/1.5090222
   
   for sTDA-xTB:
   * S. Grimme and C. Bannwarth, J. Chem. Phys., 2016, 145, 054103.
     DOI: 10.1063/1.4959605
   
   in the mass-spec context:
   * V. Asgeirsson, C. Bauer and S. Grimme, Chem. Sci., 2017, 8, 4879.
     DOI: 10.1039/c7sc00601b
   
   for metadynamics refer to:
   * S. Grimme, J. Chem. Theory Comput., 2019, 155, 2847-2862
     DOI: 10.1021/acs.jctc.9b00143
   
   with help from (in alphabetical order)
   C. Bannwarth, F. Bohle, G. Brandenburg, E. Caldeweyher, M. Checinski,
   S. Dohm, S. Ehlert, S. Ehrlich, F. März, H. Neugebauer, J. Pisarek,
   P. Pracht, P. Shushkov, and S. Spicher.
   
 * started run on 2020/04/08 at 13:05:40.872     

           -------------------------------------------------
          |                Calculation Setup                |
           -------------------------------------------------

          program call               : /home/tom/.local/bin/xtb SN2_PES_scan_4-4_xtb.xyz --chrg -1 --opt --input xcontrol_SN2_PES_scan_4-4
          coordinate file            : SN2_PES_scan_4-4_xtb.xyz
          omp threads                :                     2
          number of atoms            :                     6
          number of electrons        :                    22
          charge                     :                    -1
          spin                       :                   0.0
          first test random number   :      0.77165820663373

constraining bond 1 3 to    2.0000000 Å, actual value:    2.4992631 Å
constraining bond 2 3 to    3.5560000 Å, actual value:    3.1116115 Å

molecular fragmentation (1/2 indicates fragments):
122222
# atoms in fragment 1/2:     1     5
 fragment masses (1/2) :       19.00       50.49
CMA distance (Bohr)    :   8.855
constraining FC (au)   : 10.0000
########################################################################
[WARNING] Please study the warnings concerning your input carefully
-2- prog_main: XTBPATH is not set, using XTBHOME instead
-1- prog_main: XTBHOME is not set, using HOME instead
########################################################################
           ------------------------------------------------- 
          |                 G F N 2 - x T B                 |
          | Geometry, Frequencies, Noncovalent interactions |
          |            JCTC 2019 parametrisation            |
           ------------------------------------------------- 
             k(s)              :                1.8500
             k(p)              :                2.2300
             k(d)              :                2.2300
             k(f)              :                2.0000
             kEN (H0ij)        :               -2.0000
             D4 a1             :                0.5200
             D4 a2             :                5.0000
             D4 s6             :                1.0000
             D4 s8             :                2.7000
             D4 s9             :                5.0000
             alphaj            :                2.0000

  Z AO/shell   Hii/eV     exponent
  1     Wed Apr 25 08:07:45 CEST 2018   EN: 2.200 GM2: 0.406  GM3: 0.0800  RAES: 1.40
     1s    -10.707211    1.230000
  6     Wed Apr 25 08:07:45 CEST 2018   EN: 2.550 GM2: 0.538  GM3: 0.1500  RAES: 3.00
     2s    -13.970922    2.096432
     2p    -10.063292    1.800000
  9     Mon Apr 23 13:58:50 CEST 2018   EN: 3.980 GM2: 0.532  GM3: 0.1426  RAES: 2.40
     2s    -23.458179    2.416361
     2p    -15.746583    2.308399
 17     Mon Apr 23 14:09:22 CEST 2018   EN: 3.160 GM2: 0.249  GM3: 0.1495  RAES: 2.50
     3s    -29.278781    2.485265
     3p    -12.673758    2.199650
     3d     -0.240338    2.476089

           ------------------------------------------------- 
          |        Self-Consistent Charge Iterations        |
           ------------------------------------------------- 

          ...................................................
          :                      SETUP                      :
          :.................................................:
          :  # basis functions                  21          :
          :  # atomic orbitals                  20          :
          :  # shells                           10          :
          :  # electrons                        22          :
          :  max. iterations                   250          :
          :  Hamiltonian                  GFN2-xTB          :
          :  restarted?                      false          :
          :  GBSA solvation                  false          :
          :  PC potential                    false          :
          :  electronic temp.          300.0000000     K    :
          :  accuracy                    1.0000000          :
          :  -> integral cutoff          0.2500000E+02      :
          :  -> integral neglect         0.1000000E-07      :
          :  -> SCF convergence          0.1000000E-05 Eh   :
          :  -> wf. convergence          0.1000000E-03 e    :
          :  Broyden damping             0.4000000          :
          ...................................................

 iter      E             dE          RMSdq      gap      omega  full diag
   1    -12.9838905 -0.129839E+02  0.853E+00    1.62       0.0  T
   2    -12.2838947  0.699996E+00  0.101E+01    0.08       1.0  T
   3    -13.0484776 -0.764583E+00  0.575E+00    0.81       1.0  T
   4    -13.0335794  0.148983E-01  0.605E+00    0.29       1.0  T
   5    -12.6509937  0.382586E+00  0.112E+01    0.12       1.0  T
   6    -12.4289864  0.222007E+00  0.108E+01    0.02       1.0  T
   7    -13.1484075 -0.719421E+00  0.808E-01    0.74       1.0  T
   8    -13.1488987 -0.491283E-03  0.576E-01    0.62       1.0  T
   9    -13.1248424  0.240563E-01  0.201E+00    0.67       1.0  T
  10    -13.1496298 -0.247874E-01  0.383E-01    0.68       1.0  T
  11    -13.1497834 -0.153551E-03  0.335E-01    0.63       1.0  T
  12    -13.1503224 -0.539020E-03  0.138E-01    0.63       1.0  T
  13    -13.1503744 -0.520251E-04  0.134E-01    0.61       1.0  T
  14    -13.1503971 -0.227142E-04  0.124E-01    0.61       1.0  T
  15    -13.1503820  0.151656E-04  0.162E-01    0.60       1.0  T
  16    -13.1503290  0.530089E-04  0.172E-01    0.59       1.0  T
  17    -13.1504176 -0.886769E-04  0.574E-02    0.60       1.0  T
  18    -13.1504158  0.182231E-05  0.475E-02    0.60       1.0  T
  19    -13.1504180 -0.213842E-05  0.340E-02    0.60       1.2  T
  20    -13.1504184 -0.469815E-06  0.250E-02    0.60       1.6  T
  21    -13.1504186 -0.121294E-06  0.175E-02    0.60       2.3  T
  22    -13.1504187 -0.179876E-06  0.618E-03    0.60       6.6  T
  23    -13.1504188 -0.253940E-07  0.277E-03    0.60      14.7  T
  24    -13.1504188 -0.123060E-07  0.403E-04    0.60     101.2  T
  25    -13.1504188 -0.625802E-09  0.196E-04    0.60     208.4  T

   *** convergence criteria satisfied after 25 iterations ***

         #    Occupation            Energy/Eh            Energy/eV
      -------------------------------------------------------------
         1        2.0000           -0.8427383             -22.9321
       ...           ...                  ...                  ...
         5        2.0000           -0.3630570              -9.8793
         6        2.0000           -0.2504249              -6.8144
         7        2.0000           -0.2371758              -6.4539
         8        2.0000           -0.2371757              -6.4539
         9        2.0000           -0.2297563              -6.2520
        10        2.0000           -0.2259272              -6.1478
        11        2.0000           -0.2259267              -6.1478 (HOMO)
        12        0.0000           -0.2038147              -5.5461 (LUMO)
        13                          0.2452660               6.6740
        14                          0.2668359               7.2610
        15                          0.2668372               7.2610
        16                          0.2668578               7.2616
       ...                                ...                  ...
        20                          0.4119019              11.2084
      -------------------------------------------------------------
                  HL-Gap            0.0221120 Eh            0.6017 eV
             Fermi-level           -0.2145373 Eh           -5.8379 eV

 SCC (total)                   0 d,  0 h,  0 min,  0.005 sec
 SCC setup                      ...        0 min,  0.000 sec (  1.312%)
 Dispersion                     ...        0 min,  0.000 sec (  0.364%)
 integral evaluation            ...        0 min,  0.000 sec (  8.319%)
 zeroth order Hamiltonian       ...        0 min,  0.000 sec (  0.308%)
 iterations                     ...        0 min,  0.004 sec ( 80.517%)
 molecular gradient             ...        0 min,  0.000 sec (  7.628%)
 printout                       ...        0 min,  0.000 sec (  1.123%)

         :::::::::::::::::::::::::::::::::::::::::::::::::::::
         ::                     SUMMARY                     ::
         :::::::::::::::::::::::::::::::::::::::::::::::::::::
         :: total energy               2.862868653663 Eh    ::
         :: gradient norm             43.722312211951 Eh/a0 ::
         :: HOMO-LUMO gap              0.601698905220 eV    ::
         ::.................................................::
         :: SCC energy               -13.150418773385 Eh    ::
         :: -> isotropic ES            0.166988320496 Eh    ::
         :: -> anisotropic ES         -0.000309264964 Eh    ::
         :: -> anisotropic XC          0.005740086210 Eh    ::
         :: -> dispersion             -0.001760204229 Eh    ::
         :: repulsion energy           0.059746422838 Eh    ::
         :: add. restraining          15.953542824339 Eh    ::
         :::::::::::::::::::::::::::::::::::::::::::::::::::::

      ----------------------------------------------------------- 
     |                   =====================                   |
     |                        A N C O P T                        |
     |                   =====================                   |
     |               Approximate Normal Coordinate               |
     |                Rational Function Optimizer                |
      ----------------------------------------------------------- 

          ...................................................
          :                      SETUP                      :
          :.................................................:
          :   optimization level            normal          :
          :   max. optcycles                   200          :
          :   ANC micro-cycles                  20          :
          :   degrees of freedom                12          :
          :.................................................:
          :   RF solver                   davidson          :
          :   write xtbopt.log                true          :
          :   linear?                        false          :
          :   energy convergence         0.5000000E-05 Eh   :
          :   grad. convergence          0.1000000E-02 Eh/α :
          :   maximium RF displ.         1.0000000          :
          :   Hlow (freq-cutoff)         0.1000000E-01      :
          :   Hmax (freq-cutoff)         5.0000000          :
          :   S6 in model hess.         20.0000000          :
          ...................................................

generating ANC from model Hessian ...
Using Lindh-Hessian (1995)
 Shifting diagonal of input Hessian by   0.875216943952423     
 Lowest  eigenvalues of input Hessian
    0.010000    0.010546   -0.000000    0.000000    0.000000    0.000000
    0.000000    0.000000    0.878752    1.027671    1.027720    1.313254
    1.573308    1.573413    4.768022    4.768716   20.878369   60.883238
 Highest eigenvalues
    1.573308    1.573413    4.768022    4.768716   20.878369   60.883238
 

........................................................................
.............................. CYCLE    1 ..............................
........................................................................
   1    -13.1504188 -0.131504E+02  0.121E-05    0.60       0.0  T
   2    -13.1504188  0.397726E-11  0.351E-05    0.60    1163.6  T
   3    -13.1504188 -0.388667E-11  0.154E-05    0.60    2658.8  T
     SCC iter.                  ...        0 min,  0.000 sec
     gradient                   ...        0 min,  0.000 sec
 * total energy  :     2.8628687 Eh     change       -0.3535542E-08 Eh
   gradient norm :    43.7223115 Eh/α   predicted     0.0000000E+00 (-100.00%)
   displ. norm   :     0.9444544 α      lambda       -0.4129373E+02
   maximum displ.:     0.9439038 α      in ANC's #11, #12, #6, ...

........................................................................
.............................. CYCLE    2 ..............................
........................................................................
   1    -13.1262169 -0.131262E+02  0.288E+00    2.99       0.0  T
   2    -13.1418341 -0.156172E-01  0.179E+00    1.32       1.0  T
   3    -13.1450333 -0.319926E-02  0.990E-01    0.53       1.0  T
   4    -13.1459754 -0.942057E-03  0.601E-01    0.29       1.0  T
   5    -13.1457874  0.188043E-03  0.542E-01    0.59       1.0  T
   6    -13.1445397  0.124761E-02  0.634E-01    0.23       1.0  T
   7    -13.1467665 -0.222674E-02  0.130E-01    0.32       1.0  T
   8    -13.1463302  0.436259E-03  0.347E-01    0.52       1.0  T
   9    -13.1464332 -0.103002E-03  0.295E-01    0.48       1.0  T
  10    -13.1465315 -0.983109E-04  0.246E-01    0.46       1.0  T
  11    -13.1467262 -0.194617E-03  0.123E-01    0.40       1.0  T
  12    -13.1467776 -0.514004E-04  0.711E-02    0.37       1.0  T
  13    -13.1467910 -0.134142E-04  0.514E-02    0.37       1.0  T
  14    -13.1467993 -0.833416E-05  0.357E-02    0.36       1.1  T
  15    -13.1468048 -0.552521E-05  0.172E-02    0.35       2.4  T
  16    -13.1468062 -0.140923E-05  0.734E-03    0.35       5.6  T
  17    -13.1468065 -0.285068E-06  0.140E-03    0.35      29.2  T
  18    -13.1468065 -0.912797E-08  0.312E-04    0.35     130.7  T
     SCC iter.                  ...        0 min,  0.002 sec
     gradient                   ...        0 min,  0.001 sec
 * total energy  :   -11.7001192 Eh     change       -0.1456299E+02 Eh
   gradient norm :    12.9670431 Eh/α   predicted    -0.3906374E+02 ( 168.24%)
   displ. norm   :     0.2427319 α      lambda       -0.2790002E+01
   maximum displ.:     0.2070273 α      in ANC's #11, #12, #3, ...

........................................................................
.............................. CYCLE    3 ..............................
........................................................................
   1    -12.4400264 -0.124400E+02  0.886E+00    0.02       0.0  T
   2    -12.9217772 -0.481751E+00  0.674E+00    4.38       1.0  T
   3    -13.1345794 -0.212802E+00  0.317E+00    2.65       1.0  T
   4    -13.1383340 -0.375458E-02  0.258E+00    3.12       1.0  T
   5    -13.1498063 -0.114723E-01  0.180E+00    2.55       1.0  T
   6    -13.1542260 -0.441970E-02  0.107E+00    1.20       1.0  T
   7    -13.1571070 -0.288100E-02  0.662E-01    0.77       1.0  T
   8    -13.1565797  0.527351E-03  0.748E-01    0.84       1.0  T
   9    -13.1591287 -0.254906E-02  0.512E-01    0.32       1.0  T
  10    -13.1588260  0.302697E-03  0.553E-01    0.31       1.0  T
  11    -13.1595033 -0.677234E-03  0.187E-01    0.35       1.0  T
  12    -13.1595761 -0.728106E-04  0.484E-02    0.37       1.0  T
  13    -13.1595751  0.102727E-05  0.451E-02    0.37       1.0  T
  14    -13.1595815 -0.640037E-05  0.286E-03    0.37      14.3  T
  15    -13.1595815  0.393585E-08  0.103E-03    0.37      39.6  T
  16    -13.1595815 -0.461111E-08  0.807E-04    0.37      50.6  T
     SCC iter.                  ...        0 min,  0.002 sec
     gradient                   ...        0 min,  0.000 sec
 * total energy  :   -13.0445542 Eh     change       -0.1344435E+01 Eh
   gradient norm :     1.7138538 Eh/α   predicted    -0.1477193E+01 (   9.87%)
   displ. norm   :     0.2722118 α      lambda       -0.4601975E+00
   maximum displ.:     0.2654940 α      in ANC's #12, #11, #3, ...

........................................................................
.............................. CYCLE    4 ..............................
........................................................................
   1    -12.2959557 -0.122960E+02  0.103E+01    0.00       0.0  T
   2    -12.8418874 -0.545932E+00  0.779E+00    3.85       1.0  T
   3    -13.1085120 -0.266625E+00  0.394E+00    1.71       1.0  T
   4    -13.1198724 -0.113605E-01  0.315E+00    2.36       1.0  T
   5    -13.1381915 -0.183191E-01  0.214E+00    2.22       1.0  T
   6    -13.1414760 -0.328450E-02  0.149E+00    0.95       1.0  T
   7    -13.1420533 -0.577340E-03  0.182E+00    0.17       1.0  T
   8    -13.1462290 -0.417565E-02  0.105E+00    0.64       1.0  T
   9    -13.1485920 -0.236302E-02  0.834E-01    0.46       1.0  T
  10    -13.1350480  0.135440E-01  0.175E+00    0.15       1.0  T
  11    -13.1229118  0.121361E-01  0.213E+00    0.14       1.0  T
  12    -13.1520837 -0.291718E-01  0.379E-01    0.30       1.0  T
  13    -13.1527572 -0.673533E-03  0.348E-01    0.24       1.0  T
  14    -13.1527619 -0.473620E-05  0.254E-01    0.26       1.0  T
  15    -13.1527256  0.363698E-04  0.199E-01    0.26       1.0  T
  16    -13.1527374 -0.118022E-04  0.116E-01    0.26       1.0  T
  17    -13.1527872 -0.498165E-04  0.329E-02    0.24       1.2  T
  18    -13.1527865  0.687476E-06  0.146E-02    0.24       2.8  T
  19    -13.1527871 -0.579203E-06  0.872E-03    0.24       4.7  T
  20    -13.1527875 -0.403693E-06  0.129E-03    0.24      31.6  T
  21    -13.1527875 -0.125817E-07  0.397E-04    0.24     102.9  T
     SCC iter.                  ...        0 min,  0.006 sec
     gradient                   ...        0 min,  0.000 sec
 * total energy  :   -12.7363209 Eh     change        0.3082333E+00 Eh
   gradient norm :     4.3138802 Eh/α   predicted    -0.2471489E+00 (-180.18%)
   displ. norm   :     0.1812445 α      lambda       -0.7337444E+00
   maximum displ.:     0.1767604 α      in ANC's #12, #11, #3, ...

........................................................................
.............................. CYCLE    5 ..............................
........................................................................
   1    -13.1583826 -0.131584E+02  0.101E+00    0.77       0.0  T
   2    -12.9659492  0.192433E+00  0.492E+00    0.08       1.0  T
   3    -13.1578783 -0.191929E+00  0.975E-01    0.73       1.0  T
   4    -13.1589822 -0.110383E-02  0.806E-01    0.69       1.0  T
   5    -13.1598566 -0.874437E-03  0.632E-01    0.57       1.0  T
   6    -13.1603561 -0.499494E-03  0.549E-01    0.52       1.0  T
   7    -13.1603627 -0.657147E-05  0.548E-01    0.52       1.0  T
   8    -13.1621520 -0.178937E-02  0.153E-01    0.30       1.0  T
   9    -13.1621684 -0.164055E-04  0.669E-02    0.33       1.0  T
  10    -13.1615798  0.588686E-03  0.346E-01    0.27       1.0  T
  11    -13.1620524 -0.472602E-03  0.152E-01    0.29       1.0  T
  12    -13.1621817 -0.129302E-03  0.150E-02    0.31       2.7  T
  13    -13.1621818 -0.181645E-06  0.197E-02    0.32       2.1  T
  14    -13.1621801  0.170942E-05  0.254E-02    0.32       1.6  T
  15    -13.1621820 -0.189126E-05  0.156E-02    0.32       2.6  T
  16    -13.1621832 -0.122492E-05  0.340E-03    0.31      12.0  T
  17    -13.1621833 -0.515999E-07  0.810E-04    0.31      50.4  T
     SCC iter.                  ...        0 min,  0.009 sec
     gradient                   ...        0 min,  0.001 sec
 * total energy  :   -13.1158363 Eh     change       -0.3795155E+00 Eh
   gradient norm :     0.1429720 Eh/α   predicted    -0.3789236E+00 (  -0.16%)
   displ. norm   :     0.0437816 α      lambda       -0.2671800E-02
   maximum displ.:     0.0387922 α      in ANC's #3, #6, #12, ...

........................................................................
.............................. CYCLE    6 ..............................
........................................................................
   1    -13.1676241 -0.131676E+02  0.583E-02    0.32       0.0  T
   2    -13.1675480  0.760902E-04  0.137E-01    0.30       1.0  T
   3    -13.1676324 -0.843968E-04  0.282E-02    0.32       1.4  T
   4    -13.1676304  0.200858E-05  0.267E-02    0.31       1.5  T
   5    -13.1676316 -0.125578E-05  0.206E-02    0.31       2.0  T
   6    -13.1676331 -0.146808E-05  0.775E-04    0.32      52.7  T
   7    -13.1676331  0.208775E-10  0.738E-04    0.32      55.3  T
     SCC iter.                  ...        0 min,  0.001 sec
     gradient                   ...        0 min,  0.001 sec
 * total energy  :   -13.1178513 Eh     change       -0.2014909E-02 Eh
   gradient norm :     0.0322455 Eh/α   predicted    -0.1338462E-02 ( -33.57%)
   displ. norm   :     0.1174012 α      lambda       -0.3091251E-02
   maximum displ.:     0.0896598 α      in ANC's #3, #1, #6, ...

........................................................................
.............................. CYCLE    7 ..............................
........................................................................
   1    -13.1778779 -0.131779E+02  0.127E-01    0.31       0.0  T
   2    -13.1778319  0.460193E-04  0.154E-01    0.35       1.0  T
   3    -13.1778910 -0.590802E-04  0.983E-02    0.31       1.0  T
   4    -13.1779028 -0.117661E-04  0.450E-02    0.32       1.0  T
   5    -13.1779046 -0.183151E-05  0.387E-02    0.31       1.1  T
   6    -13.1779096 -0.499284E-05  0.647E-03    0.32       6.3  T
   7    -13.1779098 -0.199515E-06  0.954E-04    0.32      42.8  T
   8    -13.1779098 -0.694413E-09  0.625E-04    0.32      65.3  T
     SCC iter.                  ...        0 min,  0.001 sec
     gradient                   ...        0 min,  0.000 sec
 * total energy  :   -13.1196879 Eh     change       -0.1836645E-02 Eh
   gradient norm :     0.0911556 Eh/α   predicted    -0.1566942E-02 ( -14.68%)
   displ. norm   :     0.4569191 α      lambda       -0.4981632E-02
   maximum displ.:     0.4168043 α      in ANC's #1, #3, #6, ...

........................................................................
.............................. CYCLE    8 ..............................
........................................................................
   1    -13.1892815 -0.131893E+02  0.532E-01    0.28       0.0  T
   2    -13.1888084  0.473051E-03  0.550E-01    0.44       1.0  T
   3    -13.1894938 -0.685324E-03  0.333E-01    0.29       1.0  T
   4    -13.1895467 -0.529642E-04  0.215E-01    0.34       1.0  T
   5    -13.1897048 -0.158115E-03  0.955E-02    0.30       1.0  T
   6    -13.1897156 -0.107948E-04  0.691E-02    0.33       1.0  T
   7    -13.1897389 -0.232170E-04  0.320E-03    0.31      12.7  T
   8    -13.1897387  0.112024E-06  0.507E-03    0.32       8.1  T
   9    -13.1897389 -0.128198E-06  0.479E-04    0.32      85.3  T
     SCC iter.                  ...        0 min,  0.001 sec
     gradient                   ...        0 min,  0.000 sec
 * total energy  :   -13.1138116 Eh     change        0.5876310E-02 Eh
   gradient norm :     0.1761319 Eh/α   predicted    -0.3010832E-02 (-151.24%)
   displ. norm   :     0.2894629 α      lambda       -0.1192506E-01
   maximum displ.:     0.2807415 α      in ANC's #1, #3, #6, ...

........................................................................
.............................. CYCLE    9 ..............................
........................................................................
   1    -13.1861905 -0.131862E+02  0.326E-01    0.34       0.0  T
   2    -13.1856614  0.529103E-03  0.398E-01    0.27       1.0  T
   3    -13.1860467 -0.385338E-03  0.269E-01    0.36       1.0  T
   4    -13.1862172 -0.170509E-03  0.112E-01    0.33       1.0  T
   5    -13.1862551 -0.378638E-04  0.584E-02    0.33       1.0  T
   6    -13.1862620 -0.692056E-05  0.401E-02    0.31       1.0  T
   7    -13.1862692 -0.715020E-05  0.118E-03    0.32      34.7  T
   8    -13.1862692 -0.230685E-08  0.682E-04    0.32      59.8  T
   9    -13.1862692 -0.234849E-08  0.143E-04    0.32     284.8  T
     SCC iter.                  ...        0 min,  0.001 sec
     gradient                   ...        0 min,  0.004 sec
 * total energy  :   -13.1208856 Eh     change       -0.7074029E-02 Eh
   gradient norm :     0.0775170 Eh/α   predicted    -0.6462113E-02 (  -8.65%)
   displ. norm   :     0.1026311 α      lambda       -0.1012838E-02
   maximum displ.:     0.0820032 α      in ANC's #2, #1, #6, ...

........................................................................
.............................. CYCLE   10 ..............................
........................................................................
   1    -13.1834523 -0.131835E+02  0.127E-01    0.32       0.0  T
   2    -13.1833600  0.923765E-04  0.159E-01    0.29       1.0  T
   3    -13.1834282 -0.682406E-04  0.110E-01    0.33       1.0  T
   4    -13.1834618 -0.336083E-04  0.312E-02    0.32       1.3  T
   5    -13.1834649 -0.313498E-05  0.122E-02    0.32       3.3  T
   6    -13.1834651 -0.205417E-06  0.815E-03    0.31       5.0  T
   7    -13.1834654 -0.297412E-06  0.502E-04    0.32      81.3  T
   8    -13.1834654 -0.659668E-10  0.306E-04    0.32     133.6  T
     SCC iter.                  ...        0 min,  0.001 sec
     gradient                   ...        0 min,  0.000 sec
 * total energy  :   -13.1212121 Eh     change       -0.3264467E-03 Eh
   gradient norm :     0.0308648 Eh/α   predicted    -0.5117547E-03 (  56.77%)
   displ. norm   :     0.2712336 α      lambda       -0.2231969E-02
   maximum displ.:     0.2348252 α      in ANC's #2, #1, #6, ...

........................................................................
.............................. CYCLE   11 ..............................
........................................................................
   1    -13.1772617 -0.131773E+02  0.366E-01    0.32       0.0  T
   2    -13.1766805  0.581164E-03  0.412E-01    0.27       1.0  T
   3    -13.1769929 -0.312403E-03  0.335E-01    0.37       1.0  T
   4    -13.1772841 -0.291194E-03  0.133E-01    0.33       1.0  T
   5    -13.1773451 -0.609975E-04  0.466E-02    0.32       1.0  T
   6    -13.1773424  0.270902E-05  0.528E-02    0.31       1.0  T
   7    -13.1773549 -0.125013E-04  0.496E-03    0.31       8.2  T
   8    -13.1773551 -0.140237E-06  0.952E-04    0.31      42.9  T
   9    -13.1773551 -0.221903E-08  0.349E-04    0.31     116.9  T
     SCC iter.                  ...        0 min,  0.002 sec
     gradient                   ...        0 min,  0.000 sec
 * total energy  :   -13.1190815 Eh     change        0.2130599E-02 Eh
   gradient norm :     0.1921126 Eh/α   predicted    -0.1198069E-02 (-156.23%)
   displ. norm   :     0.1902887 α      lambda       -0.5550846E-02
   maximum displ.:     0.1480428 α      in ANC's #2, #1, #3, ...

........................................................................
.............................. CYCLE   12 ..............................
........................................................................
   1    -13.1831602 -0.131832E+02  0.244E-01    0.31       0.0  T
   2    -13.1830653  0.948548E-04  0.211E-01    0.35       1.0  T
   3    -13.1828360  0.229314E-03  0.293E-01    0.28       1.0  T
   4    -13.1831719 -0.335878E-03  0.507E-02    0.33       1.0  T
   5    -13.1831820 -0.100996E-04  0.268E-02    0.31       1.5  T
   6    -13.1831831 -0.111403E-05  0.193E-02    0.31       2.1  T
   7    -13.1831847 -0.163071E-05  0.132E-03    0.32      30.9  T
   8    -13.1831848 -0.783655E-08  0.388E-04    0.32     105.1  T
     SCC iter.                  ...        0 min,  0.007 sec
     gradient                   ...        0 min,  0.000 sec
 * total energy  :   -13.1219413 Eh     change       -0.2859872E-02 Eh
   gradient norm :     0.0160080 Eh/α   predicted    -0.2875914E-02 (   0.56%)
   displ. norm   :     0.0344547 α      lambda       -0.2631870E-03
   maximum displ.:     0.0279225 α      in ANC's #3, #2, #1, ...

........................................................................
.............................. CYCLE   13 ..............................
........................................................................
   1    -13.1827926 -0.131828E+02  0.589E-02    0.32       0.0  T
   2    -13.1827640  0.286209E-04  0.926E-02    0.31       1.0  T
   3    -13.1827953 -0.313128E-04  0.478E-02    0.33       1.0  T
   4    -13.1828038 -0.844815E-05  0.143E-02    0.32       2.9  T
   5    -13.1828038  0.161353E-07  0.631E-03    0.32       6.5  T
   6    -13.1828039 -0.140007E-06  0.613E-04    0.32      66.6  T
   7    -13.1828039 -0.119065E-08  0.297E-04    0.32     137.4  T
     SCC iter.                  ...        0 min,  0.001 sec
     gradient                   ...        0 min,  0.000 sec
 * total energy  :   -13.1221602 Eh     change       -0.2189122E-03 Eh
   gradient norm :     0.0108958 Eh/α   predicted    -0.1317501E-03 ( -39.82%)
   displ. norm   :     0.0737242 α      lambda       -0.4217799E-03
   maximum displ.:     0.0663475 α      in ANC's #3, #6, #1, ...

........................................................................
.............................. CYCLE   14 ..............................
........................................................................
   1    -13.1809456 -0.131809E+02  0.138E-01    0.32       0.0  T
   2    -13.1807695  0.176074E-03  0.224E-01    0.29       1.0  T
   3    -13.1809604 -0.190826E-03  0.116E-01    0.34       1.0  T
   4    -13.1810099 -0.495220E-04  0.356E-02    0.32       1.1  T
   5    -13.1810102 -0.366011E-06  0.212E-02    0.32       1.9  T
   6    -13.1810120 -0.175926E-05  0.305E-03    0.32      13.4  T
   7    -13.1810120 -0.409784E-07  0.123E-03    0.32      33.2  T
   8    -13.1810120  0.618467E-08  0.162E-03    0.32      25.2  T
     SCC iter.                  ...        0 min,  0.001 sec
     gradient                   ...        0 min,  0.000 sec
 * total energy  :   -13.1223801 Eh     change       -0.2198945E-03 Eh
   gradient norm :     0.0039272 Eh/α   predicted    -0.2120312E-03 (  -3.58%)
   displ. norm   :     0.0054468 α      lambda       -0.4263245E-05
   maximum displ.:     0.0037910 α      in ANC's #2, #3, #1, ...

........................................................................
.............................. CYCLE   15 ..............................
........................................................................
   1    -13.1808524 -0.131809E+02  0.924E-03    0.32       0.0  T
   2    -13.1808513  0.111198E-05  0.173E-02    0.32       2.4  T
   3    -13.1808525 -0.125050E-05  0.535E-03    0.32       7.6  T
   4    -13.1808526 -0.722718E-07  0.277E-03    0.32      14.7  T
   5    -13.1808526 -0.134311E-07  0.422E-04    0.32      96.8  T
   6    -13.1808526 -0.327827E-09  0.106E-04    0.32     385.8  T
     SCC iter.                  ...        0 min,  0.001 sec
     gradient                   ...        0 min,  0.000 sec
 * total energy  :   -13.1223829 Eh     change       -0.2789919E-05 Eh
   gradient norm :     0.0013689 Eh/α   predicted    -0.2132364E-05 ( -23.57%)
   displ. norm   :     0.0054777 α      lambda       -0.1097548E-05
   maximum displ.:     0.0042727 α      in ANC's #1, #2, #6, ...

........................................................................
.............................. CYCLE   16 ..............................
........................................................................
   1    -13.1807450 -0.131807E+02  0.724E-03    0.32       0.0  T
   2    -13.1807443  0.733919E-06  0.136E-02    0.32       3.0  T
   3    -13.1807451 -0.796998E-06  0.398E-03    0.32      10.3  T
   4    -13.1807451 -0.278377E-07  0.426E-04    0.32      95.8  T
   5    -13.1807451 -0.797620E-10  0.232E-04    0.32     175.6  T
     SCC iter.                  ...        0 min,  0.001 sec
     gradient                   ...        0 min,  0.000 sec
 * total energy  :   -13.1223836 Eh     change       -0.7086528E-06 Eh
   gradient norm :     0.0011824 Eh/α   predicted    -0.5479808E-06 ( -22.67%)
   displ. norm   :     0.0014243 α      lambda       -0.2762648E-06
   maximum displ.:     0.0010817 α      in ANC's #1, #2, #8, ...

........................................................................
.............................. CYCLE   17 ..............................
........................................................................
   1    -13.1807618 -0.131808E+02  0.143E-03    0.32       0.0  T
   2    -13.1807618  0.116263E-07  0.186E-03    0.32      21.9  T
   3    -13.1807618 -0.101060E-07  0.117E-03    0.32      34.8  T
   4    -13.1807618 -0.356076E-08  0.478E-04    0.32      85.3  T
   5    -13.1807618 -0.685707E-09  0.777E-05    0.32     525.4  T
     SCC iter.                  ...        0 min,  0.001 sec
     gradient                   ...        0 min,  0.000 sec
 * total energy  :   -13.1223840 Eh     change       -0.3534604E-06 Eh
   gradient norm :     0.0008882 Eh/α   predicted    -0.1379197E-06 ( -60.98%)
   displ. norm   :     0.0053694 α      lambda       -0.7383593E-06
   maximum displ.:     0.0048554 α      in ANC's #1, #8, #7, ...

   *** GEOMETRY OPTIMIZATION CONVERGED AFTER 17 ITERATIONS ***

------------------------------------------------------------------------
 total energy gain   :       -15.9852526 Eh   -10030.8975 kcal/mol
 total RMSD          :         0.3522475 a0        0.1864 Å
 total power (kW/mol):     -2468.7808872 (step)********** (real)
------------------------------------------------------------------------

 ANCopt (total)                0 d,  0 h,  0 min,  0.063 sec
 optimizer setup                ...        0 min,  0.000 sec (  0.093%)
 model hessian                  ...        0 min,  0.000 sec (  0.142%)
 ANC generation                 ...        0 min,  0.000 sec (  0.103%)
 coordinate transformation      ...        0 min,  0.000 sec (  0.131%)
 single point calculation       ...        0 min,  0.055 sec ( 86.852%)
 optimization log               ...        0 min,  0.000 sec (  0.752%)
 hessian update                 ...        0 min,  0.007 sec ( 10.324%)
 rational function              ...        0 min,  0.001 sec (  0.822%)

================
 final structure:
================
6
 xtb: 6.2.3 (830e466)
F        -3.01593283442828   -0.17126893633381    0.04809856669303
Cl        2.52816042906535    0.15666701733302   -0.02642672782408
C        -1.02069208062414   -0.06196663169233    0.01640342323778
H        -0.86461111806861   -0.63353658201616   -0.87664914499787
H        -0.83432072044951   -0.53392895647231    0.95970829454227
H        -0.93553367549477    1.00397408918165   -0.04241441165110
 
 Bond Distances (Angstroems)
 ---------------------------
C3-H4=1.0717         C3-H5=1.0711         C3-H6=1.0710         H4-C3=1.0717         H5-C3=1.0711         H6-C3=1.0710         
 C  H  Rav=1.0713 sigma=0.0003  Rmin=1.0710  Rmax=1.0717     3
 
 selected bond angles (degree)
 --------------------
H5-C3-H4=118.26                H6-C3-H4=118.26                H6-C3-H5=118.24                
 
 selected dihedral angles (degree)
 ---------------------------------

 
 CMA Distance (Angstroems)
 ---------------------------
R(CMA):  4.5040
           -------------------------------------------------
          |                Final Singlepoint                |
           -------------------------------------------------

          ...................................................
          :                      SETUP                      :
          :.................................................:
          :  # basis functions                  21          :
          :  # atomic orbitals                  20          :
          :  # shells                           10          :
          :  # electrons                        22          :
          :  max. iterations                   250          :
          :  Hamiltonian                  GFN2-xTB          :
          :  restarted?                      false          :
          :  GBSA solvation                  false          :
          :  PC potential                    false          :
          :  electronic temp.          300.0000000     K    :
          :  accuracy                    1.0000000          :
          :  -> integral cutoff          0.2500000E+02      :
          :  -> integral neglect         0.1000000E-07      :
          :  -> SCF convergence          0.1000000E-05 Eh   :
          :  -> wf. convergence          0.1000000E-03 e    :
          :  Broyden damping             0.4000000          :
          ...................................................

 iter      E             dE          RMSdq      gap      omega  full diag
   1    -13.1807618 -0.131808E+02  0.295E-05    0.32       0.0  T
   2    -13.1807618  0.000000E+00  0.174E-05    0.32    2344.0  T
   3    -13.1807618  0.365930E-11  0.332E-05    0.32    1229.2  T

   *** convergence criteria satisfied after 3 iterations ***

         #    Occupation            Energy/Eh            Energy/eV
      -------------------------------------------------------------
         1        2.0000           -0.8073561             -21.9693
       ...           ...                  ...                  ...
         5        2.0000           -0.3813939             -10.3783
         6        2.0000           -0.3244787              -8.8295
         7        2.0000           -0.2944945              -8.0136
         8        2.0000           -0.2944882              -8.0134
         9        1.9997           -0.2025617              -5.5120
        10        1.9971           -0.2003480              -5.4517
        11        1.9971           -0.2003468              -5.4517 (HOMO)
        12        0.0060           -0.1886241              -5.1327 (LUMO)
        13                          0.2366267               6.4389
        14                          0.3127716               8.5109
        15                          0.3129511               8.5158
        16                          0.3129534               8.5159
       ...                                ...                  ...
        20                          0.3807705              10.3613
      -------------------------------------------------------------
                  HL-Gap            0.0117227 Eh            0.3190 eV
             Fermi-level           -0.1941331 Eh           -5.2826 eV

 SCC (total)                   0 d,  0 h,  0 min,  0.001 sec
 SCC setup                      ...        0 min,  0.000 sec (  3.479%)
 Dispersion                     ...        0 min,  0.000 sec (  0.606%)
 integral evaluation            ...        0 min,  0.000 sec ( 26.173%)
 zeroth order Hamiltonian       ...        0 min,  0.000 sec (  0.926%)
 iterations                     ...        0 min,  0.001 sec ( 40.361%)
 molecular gradient             ...        0 min,  0.000 sec ( 23.827%)
 printout                       ...        0 min,  0.000 sec (  3.288%)

         :::::::::::::::::::::::::::::::::::::::::::::::::::::
         ::                     SUMMARY                     ::
         :::::::::::::::::::::::::::::::::::::::::::::::::::::
         :: total energy             -13.122383994039 Eh    ::
         :: gradient norm              0.000888908964 Eh/a0 ::
         :: HOMO-LUMO gap              0.318991930319 eV    ::
         ::.................................................::
         :: SCC energy               -13.180761847297 Eh    ::
         :: -> isotropic ES            0.169105659358 Eh    ::
         :: -> anisotropic ES         -0.001847016271 Eh    ::
         :: -> anisotropic XC          0.005487918594 Eh    ::
         :: -> dispersion             -0.001620407289 Eh    ::
         :: repulsion energy           0.058296172515 Eh    ::
         :: add. restraining           0.000083029334 Eh    ::
         :::::::::::::::::::::::::::::::::::::::::::::::::::::

           -------------------------------------------------
          |                Property Printout                |
           -------------------------------------------------

    * Orbital Energies and Occupations

         #    Occupation            Energy/Eh            Energy/eV
      -------------------------------------------------------------
         1        2.0000           -0.8073561             -21.9693
         2        2.0000           -0.5875334             -15.9876
         3        2.0000           -0.4776375             -12.9972
         4        2.0000           -0.3814853             -10.3807
         5        2.0000           -0.3813939             -10.3783
         6        2.0000           -0.3244787              -8.8295
         7        2.0000           -0.2944945              -8.0136
         8        2.0000           -0.2944882              -8.0134
         9        1.9997           -0.2025617              -5.5120
        10        1.9971           -0.2003480              -5.4517
        11        1.9971           -0.2003468              -5.4517 (HOMO)
        12        0.0060           -0.1886241              -5.1327 (LUMO)
        13                          0.2366267               6.4389
        14                          0.3127716               8.5109
        15                          0.3129511               8.5158
        16                          0.3129534               8.5159
        17                          0.3137840               8.5385
        18                          0.3137840               8.5385
        19                          0.3799856              10.3399
        20                          0.3807705              10.3613
      -------------------------------------------------------------
                  HL-Gap            0.0117227 Eh            0.3190 eV
             Fermi-level           -0.1941331 Eh           -5.2826 eV

     #   Z        covCN         q      C6AA      α(0)
     1   9 F      0.159    -0.445    14.545     4.445
     2  17 Cl     0.000    -0.874   121.926    16.805
     3   6 C      2.939     0.001    28.017     8.681
     4   1 H      0.926     0.106     1.734     2.059
     5   1 H      0.926     0.106     1.731     2.057
     6   1 H      0.926     0.106     1.729     2.056

 Mol. C6AA /au·bohr⁶  :        574.243820
 Mol. C8AA /au·bohr⁸  :      16570.176738
 Mol. α(0) /au        :         36.103131


Wiberg/Mayer (AO) data.
largest (>0.10) Wiberg bond orders for each atom
          total WBO             WBO to atom ...
     1  F   0.733        C    3 0.730
     2  Cl  0.158        C    3 0.157
     3  C   3.847        H    4 0.987    H    5 0.987    H    6 0.987    F    1 0.730    Cl   2 0.157
     4  H   0.989        C    3 0.987
     5  H   0.989        C    3 0.987
     6  H   0.989        C    3 0.987

molecular dipole:
                 x           y           z       tot (Debye)
 q only:       -2.170      -0.147       0.012
   full:       -2.000      -0.137       0.009       5.095
molecular quadrupole (traceless):
                xx          xy          yy          xz          yz          zz
 q only:      -34.083      -3.055      16.955       0.655       0.038      17.128
  q+dip:      -35.228      -3.144      17.525       0.691       0.041      17.703
   full:      -34.412      -3.078      17.119       0.667       0.040      17.293

           -------------------------------------------------
          |                Geometry Summary                 |
           -------------------------------------------------

      molecular mass/u    :       69.4858989
   center of mass at/Å    :        0.2506718       0.0200244       0.0030924
  moments of inertia/u·Å² :        0.3409572E+01   0.4131150E+03   0.4131176E+03
rotational constants/cm⁻¹ :        0.4944208E+01   0.4080615E-01   0.4080589E-01

 * 3 selected distances

     #   Z        #   Z                                     value/Å
     3   6 C      4   1 H                                 1.0717259 (max)
     3   6 C      5   1 H                                 1.0711241
     3   6 C      6   1 H                                 1.0709534 (min)

 * 1 distinct bonds (by element types)

   Z      Z             #   av. dist./Å        max./Å        min./Å
   1 H    6 C           3     1.0712678     1.0717259     1.0709534


optimized geometry written to: xtbopt.xyz


           -------------------------------------------------
          | TOTAL ENERGY              -13.122383994039 Eh   |
          | GRADIENT NORM               0.000888908964 Eh/α |
          | HOMO-LUMO GAP               0.318991930319 eV   |
           -------------------------------------------------

------------------------------------------------------------------------
 * finished run on 2020/04/08 at 13:05:40.962     
------------------------------------------------------------------------
 total:
 * wall-time:     0 d,  0 h,  0 min,  0.090 sec
 *  cpu-time:     0 d,  0 h,  0 min,  0.091 sec
 * ratio c/w:     1.011 speedup
 SCF:
 * wall-time:     0 d,  0 h,  0 min,  0.005 sec
 *  cpu-time:     0 d,  0 h,  0 min,  0.007 sec
 * ratio c/w:     1.308 speedup
 ANC optimizer:
 * wall-time:     0 d,  0 h,  0 min,  0.065 sec
 *  cpu-time:     0 d,  0 h,  0 min,  0.070 sec
 * ratio c/w:     1.073 speedup

