      -----------------------------------------------------------      
     |                   =====================                   |     
     |                           x T B                           |     
     |                   =====================                   |     
     |                         S. Grimme                         |     
     |          Mulliken Center for Theoretical Chemistry        |     
     |                    University of Bonn                     |     
      -----------------------------------------------------------      

   * xtb version 6.2.3 (830e466) compiled by 'ehlert@majestix' on 2020-03-16

   xtb is free software: you can redistribute it and/or modify it under
   the terms of the GNU Lesser General Public License as published by
   the Free Software Foundation, either version 3 of the License, or
   (at your option) any later version.
   
   xtb is distributed in the hope that it will be useful,
   but WITHOUT ANY WARRANTY; without even the implied warranty of
   MERCHANTABILITY or FITNESS FOR A PARTICULAR PURPOSE.  See the
   GNU Lesser General Public License for more details.
   
   Cite this work as:
   * S. Grimme, C. Bannwarth, P. Shushkov, J. Chem. Theory Comput., 2017,
     13, 1989-2009. DOI: 10.1021/acs.jctc.7b00118
   * C. Bannwarth, S. Ehlert and S. Grimme., J. Chem. Theory Comput., 2019,
     15, 1652-1671. DOI: 10.1021/acs.jctc.8b01176
   * P. Pracht, E. Caldeweyher, S. Ehlert, S. Grimme, ChemRxiv, 2019, preprint.
     DOI: 10.26434/chemrxiv.8326202.v1
   
   for DFT-D4:
   * E. Caldeweyher, C. Bannwarth and S. Grimme, J. Chem. Phys., 2017,
     147, 034112. DOI: 10.1063/1.4993215
   * E. Caldeweyher, S. Ehlert, A. Hansen, H. Neugebauer, S. Spicher,
     C. Bannwarth and S. Grimme, J. Chem. Phys., 2019, 150, 154122.
     DOI: 10.1063/1.5090222
   
   for sTDA-xTB:
   * S. Grimme and C. Bannwarth, J. Chem. Phys., 2016, 145, 054103.
     DOI: 10.1063/1.4959605
   
   in the mass-spec context:
   * V. Asgeirsson, C. Bauer and S. Grimme, Chem. Sci., 2017, 8, 4879.
     DOI: 10.1039/c7sc00601b
   
   for metadynamics refer to:
   * S. Grimme, J. Chem. Theory Comput., 2019, 155, 2847-2862
     DOI: 10.1021/acs.jctc.9b00143
   
   with help from (in alphabetical order)
   C. Bannwarth, F. Bohle, G. Brandenburg, E. Caldeweyher, M. Checinski,
   S. Dohm, S. Ehlert, S. Ehrlich, F. März, H. Neugebauer, J. Pisarek,
   P. Pracht, P. Shushkov, and S. Spicher.
   
 * started run on 2020/04/08 at 13:21:28.706     

           -------------------------------------------------
          |                Calculation Setup                |
           -------------------------------------------------

          program call               : /home/tom/.local/bin/xtb SN2_PES_const_opt_xtb.xyz --chrg -1 --opt --input xcontrol_SN2_PES_const_opt
          coordinate file            : SN2_PES_const_opt_xtb.xyz
          omp threads                :                     8
          number of atoms            :                     6
          number of electrons        :                    22
          charge                     :                    -1
          spin                       :                   0.0
          first test random number   :      0.41219983856985

constraining bond 1 3 to    2.1370000 Å, actual value:    1.9994728 Å
constraining bond 2 3 to    2.0090000 Å, actual value:    2.2238531 Å

molecular fragmentation (1/2 indicates fragments):
122222
# atoms in fragment 1/2:     1     5
 fragment masses (1/2) :       19.00       50.49
CMA distance (Bohr)    :   6.724
constraining FC (au)   : 10.0000
########################################################################
[WARNING] Please study the warnings concerning your input carefully
-2- prog_main: XTBPATH is not set, using XTBHOME instead
-1- prog_main: XTBHOME is not set, using HOME instead
########################################################################
           ------------------------------------------------- 
          |                 G F N 2 - x T B                 |
          | Geometry, Frequencies, Noncovalent interactions |
          |            JCTC 2019 parametrisation            |
           ------------------------------------------------- 
             k(s)              :                1.8500
             k(p)              :                2.2300
             k(d)              :                2.2300
             k(f)              :                2.0000
             kEN (H0ij)        :               -2.0000
             D4 a1             :                0.5200
             D4 a2             :                5.0000
             D4 s6             :                1.0000
             D4 s8             :                2.7000
             D4 s9             :                5.0000
             alphaj            :                2.0000

  Z AO/shell   Hii/eV     exponent
  1     Wed Apr 25 08:07:45 CEST 2018   EN: 2.200 GM2: 0.406  GM3: 0.0800  RAES: 1.40
     1s    -10.707211    1.230000
  6     Wed Apr 25 08:07:45 CEST 2018   EN: 2.550 GM2: 0.538  GM3: 0.1500  RAES: 3.00
     2s    -13.970922    2.096432
     2p    -10.063292    1.800000
  9     Mon Apr 23 13:58:50 CEST 2018   EN: 3.980 GM2: 0.532  GM3: 0.1426  RAES: 2.40
     2s    -23.458179    2.416361
     2p    -15.746583    2.308399
 17     Mon Apr 23 14:09:22 CEST 2018   EN: 3.160 GM2: 0.249  GM3: 0.1495  RAES: 2.50
     3s    -29.278781    2.485265
     3p    -12.673758    2.199650
     3d     -0.240338    2.476089

           ------------------------------------------------- 
          |        Self-Consistent Charge Iterations        |
           ------------------------------------------------- 

          ...................................................
          :                      SETUP                      :
          :.................................................:
          :  # basis functions                  21          :
          :  # atomic orbitals                  20          :
          :  # shells                           10          :
          :  # electrons                        22          :
          :  max. iterations                   250          :
          :  Hamiltonian                  GFN2-xTB          :
          :  restarted?                      false          :
          :  GBSA solvation                  false          :
          :  PC potential                    false          :
          :  electronic temp.          300.0000000     K    :
          :  accuracy                    1.0000000          :
          :  -> integral cutoff          0.2500000E+02      :
          :  -> integral neglect         0.1000000E-07      :
          :  -> SCF convergence          0.1000000E-05 Eh   :
          :  -> wf. convergence          0.1000000E-03 e    :
          :  Broyden damping             0.4000000          :
          ...................................................

 iter      E             dE          RMSdq      gap      omega  full diag
   1    -13.1080262 -0.131080E+02  0.687E+00    4.55       0.0  T
   2    -13.1765187 -0.684924E-01  0.281E+00    2.38       1.0  T
   3    -13.2036477 -0.271291E-01  0.218E+00    3.87       1.0  T
   4    -13.2111238 -0.747613E-02  0.505E-01    3.41       1.0  T
   5    -13.2112591 -0.135261E-03  0.174E-01    3.29       1.0  T
   6    -13.2113311 -0.719735E-04  0.846E-02    3.34       1.0  T
   7    -13.2113385 -0.740014E-05  0.387E-02    3.34       1.1  T
   8    -13.2113376  0.926504E-06  0.392E-02    3.31       1.0  T
   9    -13.2113447 -0.712464E-05  0.497E-03    3.32       8.2  T
  10    -13.2113447 -0.592233E-07  0.192E-03    3.33      21.3  T
  11    -13.2113447 -0.708394E-08  0.254E-04    3.33     161.0  T
  12    -13.2113447 -0.161112E-09  0.785E-05    3.33     519.9  T

   *** convergence criteria satisfied after 12 iterations ***

         #    Occupation            Energy/Eh            Energy/eV
      -------------------------------------------------------------
         1        2.0000           -0.8511767             -23.1617
       ...           ...                  ...                  ...
         5        2.0000           -0.3282577              -8.9323
         6        2.0000           -0.2698773              -7.3437
         7        2.0000           -0.2279961              -6.2041
         8        2.0000           -0.2279960              -6.2041
         9        2.0000           -0.1997869              -5.4365
        10        2.0000           -0.1970189              -5.3612
        11        2.0000           -0.1970188              -5.3612 (HOMO)
        12                         -0.0748007              -2.0354 (LUMO)
        13                          0.2525713               6.8728
        14                          0.2525714               6.8728
        15                          0.2526947               6.8762
        16                          0.2529248               6.8824
       ...                                ...                  ...
        20                          0.4465882              12.1523
      -------------------------------------------------------------
                  HL-Gap            0.1222180 Eh            3.3257 eV
             Fermi-level           -0.1359098 Eh           -3.6983 eV

 SCC (total)                   0 d,  0 h,  0 min,  0.007 sec
 SCC setup                      ...        0 min,  0.000 sec (  1.477%)
 Dispersion                     ...        0 min,  0.000 sec (  0.285%)
 integral evaluation            ...        0 min,  0.004 sec ( 55.267%)
 zeroth order Hamiltonian       ...        0 min,  0.000 sec (  0.327%)
 iterations                     ...        0 min,  0.002 sec ( 34.834%)
 molecular gradient             ...        0 min,  0.000 sec (  6.462%)
 printout                       ...        0 min,  0.000 sec (  0.986%)

         :::::::::::::::::::::::::::::::::::::::::::::::::::::
         ::                     SUMMARY                     ::
         :::::::::::::::::::::::::::::::::::::::::::::::::::::
         :: total energy             -10.827649665532 Eh    ::
         :: gradient norm             16.426320421864 Eh/a0 ::
         :: HOMO-LUMO gap              3.325721279538 eV    ::
         ::.................................................::
         :: SCC energy               -13.211344747917 Eh    ::
         :: -> isotropic ES            0.176755107442 Eh    ::
         :: -> anisotropic ES          0.000699275930 Eh    ::
         :: -> anisotropic XC          0.004243089834 Eh    ::
         :: -> dispersion             -0.002017817356 Eh    ::
         :: repulsion energy           0.059804331682 Eh    ::
         :: add. restraining           2.323890886542 Eh    ::
         :::::::::::::::::::::::::::::::::::::::::::::::::::::

      ----------------------------------------------------------- 
     |                   =====================                   |
     |                        A N C O P T                        |
     |                   =====================                   |
     |               Approximate Normal Coordinate               |
     |                Rational Function Optimizer                |
      ----------------------------------------------------------- 

          ...................................................
          :                      SETUP                      :
          :.................................................:
          :   optimization level            normal          :
          :   max. optcycles                   200          :
          :   ANC micro-cycles                  20          :
          :   degrees of freedom                12          :
          :.................................................:
          :   RF solver                   davidson          :
          :   write xtbopt.log                true          :
          :   linear?                        false          :
          :   energy convergence         0.5000000E-05 Eh   :
          :   grad. convergence          0.1000000E-02 Eh/α :
          :   maximium RF displ.         1.0000000          :
          :   Hlow (freq-cutoff)         0.1000000E-01      :
          :   Hmax (freq-cutoff)         5.0000000          :
          :   S6 in model hess.         20.0000000          :
          ...................................................

generating ANC from model Hessian ...
Using Lindh-Hessian (1995)
 Shifting diagonal of input Hessian by   0.741520179520026     
 Lowest  eigenvalues of input Hessian
    0.010000    0.010507   -0.000000   -0.000000   -0.000000    0.000000
    0.000000    0.000000    0.763237    0.892710    0.892714    1.178995
    1.304967    1.305021    2.951149    2.952236   20.810329   60.992760
 Highest eigenvalues
    1.304967    1.305021    2.951149    2.952236   20.810329   60.992760
 

........................................................................
.............................. CYCLE    1 ..............................
........................................................................
   1    -13.2113447 -0.132113E+02  0.146E-05    3.33       0.0  T
   2    -13.2113447 -0.717648E-12  0.815E-06    3.33    5006.4  T
   3    -13.2113447 -0.182965E-12  0.281E-06    3.33   14542.0  T
     SCC iter.                  ...        0 min,  0.001 sec
     gradient                   ...        0 min,  0.000 sec
 * total energy  :   -10.8276497 Eh     change        0.1864647E-08 Eh
   gradient norm :    16.4263216 Eh/α   predicted     0.0000000E+00 (-100.00%)
   displ. norm   :     0.8593206 α      lambda       -0.1411548E+02
   maximum displ.:     0.8523674 α      in ANC's #11, #12, #3, ...

........................................................................
.............................. CYCLE    2 ..............................
........................................................................
   1    -13.1601642 -0.131602E+02  0.309E+00    8.34       0.0  T
   2    -13.1696459 -0.948170E-02  0.195E+00    5.56       1.0  T
   3    -13.1729458 -0.329988E-02  0.925E-01    3.35       1.0  T
   4    -13.1736456 -0.699759E-03  0.650E-01    2.75       1.0  T
   5    -13.1742713 -0.625713E-03  0.354E-01    2.53       1.0  T
   6    -13.1746485 -0.377198E-03  0.155E-01    2.37       1.0  T
   7    -13.1747045 -0.560347E-04  0.269E-02    2.52       1.5  T
   8    -13.1747053 -0.826227E-06  0.102E-02    2.47       4.0  T
   9    -13.1747058 -0.451412E-06  0.134E-03    2.48      30.4  T
  10    -13.1747058 -0.472158E-08  0.226E-04    2.48     180.5  T
     SCC iter.                  ...        0 min,  0.002 sec
     gradient                   ...        0 min,  0.000 sec
 * total energy  :    -3.0188431 Eh     change        0.7808807E+01 Eh
   gradient norm :    34.9327259 Eh/α   predicted    -0.1226940E+02 (-257.12%)
   displ. norm   :     0.4623318 α      lambda       -0.1609602E+02
   maximum displ.:     0.4609416 α      in ANC's #11, #12, #6, ...

........................................................................
.............................. CYCLE    3 ..............................
........................................................................
   1    -12.9684211 -0.129684E+02  0.540E+00    0.88       0.0  T
   2    -13.1533928 -0.184972E+00  0.327E+00    5.66       1.0  T
   3    -13.1922098 -0.388170E-01  0.161E+00    4.02       1.0  T
   4    -13.1962081 -0.399831E-02  0.110E+00    3.39       1.0  T
   5    -13.1981194 -0.191129E-02  0.545E-01    2.29       1.0  T
   6    -13.1997631 -0.164370E-02  0.271E-01    2.73       1.0  T
   7    -13.1998213 -0.581747E-04  0.218E-01    2.71       1.0  T
   8    -13.1999292 -0.107907E-03  0.959E-02    2.77       1.0  T
   9    -13.1999639 -0.346657E-04  0.439E-02    2.73       1.0  T
  10    -13.1999725 -0.858621E-05  0.125E-02    2.68       3.3  T
  11    -13.1999732 -0.719214E-06  0.412E-03    2.69       9.9  T
  12    -13.1999733 -0.876136E-07  0.934E-05    2.69     437.2  T
     SCC iter.                  ...        0 min,  0.002 sec
     gradient                   ...        0 min,  0.001 sec
 * total energy  :   -12.7010991 Eh     change       -0.9682256E+01 Eh
   gradient norm :     7.2381821 Eh/α   predicted    -0.9768284E+01 (   0.89%)
   displ. norm   :     0.2002275 α      lambda       -0.9994832E+00
   maximum displ.:     0.1597635 α      in ANC's #12, #11, #3, ...

........................................................................
.............................. CYCLE    4 ..............................
........................................................................
   1    -13.1773493 -0.131773E+02  0.201E+00    1.61       0.0  T
   2    -13.1933866 -0.160373E-01  0.145E+00    3.32       1.0  T
   3    -13.2031626 -0.977598E-02  0.468E-01    2.64       1.0  T
   4    -13.2035825 -0.419890E-03  0.296E-01    2.51       1.0  T
   5    -13.2035889 -0.641371E-05  0.183E-01    2.36       1.0  T
   6    -13.2036932 -0.104339E-03  0.147E-01    2.52       1.0  T
   7    -13.2037775 -0.842684E-04  0.321E-02    2.49       1.3  T
   8    -13.2037775 -0.253673E-07  0.273E-02    2.49       1.5  T
   9    -13.2037818 -0.422404E-05  0.107E-03    2.47      38.0  T
  10    -13.2037818  0.200314E-09  0.567E-04    2.47      72.0  T
     SCC iter.                  ...        0 min,  0.002 sec
     gradient                   ...        0 min,  0.001 sec
 * total energy  :   -13.0082295 Eh     change       -0.3071304E+00 Eh
   gradient norm :     2.3771237 Eh/α   predicted    -0.5197774E+00 (  69.24%)
   displ. norm   :     0.2411801 α      lambda       -0.5563474E+00
   maximum displ.:     0.2350589 α      in ANC's #12, #11, #6, ...

........................................................................
.............................. CYCLE    5 ..............................
........................................................................
   1    -13.2078218 -0.132078E+02  0.424E-01    3.29       0.0  T
   2    -13.2080002 -0.178321E-03  0.259E-01    3.27       1.0  T
   3    -13.2080315 -0.313644E-04  0.159E-01    3.33       1.0  T
   4    -13.2080609 -0.293442E-04  0.857E-02    3.30       1.0  T
   5    -13.2080712 -0.103300E-04  0.633E-02    3.30       1.0  T
   6    -13.2080835 -0.122647E-04  0.131E-02    3.30       3.1  T
   7    -13.2080837 -0.208955E-06  0.179E-03    3.30      22.8  T
   8    -13.2080837 -0.498591E-08  0.720E-04    3.30      56.7  T
     SCC iter.                  ...        0 min,  0.002 sec
     gradient                   ...        0 min,  0.001 sec
 * total energy  :   -12.9247296 Eh     change        0.8349987E-01 Eh
   gradient norm :     4.0015063 Eh/α   predicted    -0.2943546E+00 (-452.52%)
   displ. norm   :     0.1256436 α      lambda       -0.4469528E+00
   maximum displ.:     0.1119528 α      in ANC's #12, #11, #6, ...

........................................................................
.............................. CYCLE    6 ..............................
........................................................................
   1    -13.2055227 -0.132055E+02  0.358E-01    3.00       0.0  T
   2    -13.2059313 -0.408667E-03  0.100E-01    2.80       1.0  T
   3    -13.2059363 -0.498221E-05  0.646E-02    2.81       1.0  T
   4    -13.2059379 -0.157807E-05  0.360E-02    2.80       1.1  T
   5    -13.2059400 -0.213651E-05  0.196E-02    2.80       2.1  T
   6    -13.2059411 -0.104814E-05  0.648E-03    2.80       6.3  T
   7    -13.2059411 -0.602957E-07  0.322E-03    2.81      12.7  T
   8    -13.2059412 -0.527126E-07  0.491E-04    2.80      83.2  T
     SCC iter.                  ...        0 min,  0.002 sec
     gradient                   ...        0 min,  0.000 sec
 * total energy  :   -13.1486271 Eh     change       -0.2238974E+00 Eh
   gradient norm :     0.1936033 Eh/α   predicted    -0.2270044E+00 (   1.39%)
   displ. norm   :     0.0094950 α      lambda       -0.1074908E-02
   maximum displ.:     0.0052022 α      in ANC's #12, #3, #6, ...

........................................................................
.............................. CYCLE    7 ..............................
........................................................................
   1    -13.2066326 -0.132066E+02  0.372E-02    2.77       0.0  T
   2    -13.2066378 -0.519198E-05  0.229E-02    2.80       1.8  T
   3    -13.2066391 -0.132528E-05  0.117E-02    2.79       3.5  T
   4    -13.2066392 -0.797770E-07  0.770E-03    2.79       5.3  T
   5    -13.2066393 -0.848570E-07  0.406E-03    2.79      10.1  T
   6    -13.2066393 -0.537117E-07  0.468E-04    2.79      87.3  T
     SCC iter.                  ...        0 min,  0.001 sec
     gradient                   ...        0 min,  0.001 sec
 * total energy  :   -13.1491239 Eh     change       -0.4967917E-03 Eh
   gradient norm :     0.0243127 Eh/α   predicted    -0.5375024E-03 (   8.19%)
   displ. norm   :     0.0059205 α      lambda       -0.4216925E-04
   maximum displ.:     0.0045540 α      in ANC's #3, #6, #1, ...

........................................................................
.............................. CYCLE    8 ..............................
........................................................................
   1    -13.2070529 -0.132071E+02  0.119E-02    2.80       0.0  T
   2    -13.2070531 -0.223812E-06  0.518E-03    2.79       7.9  T
   3    -13.2070531 -0.114749E-08  0.254E-03    2.79      16.1  T
     SCC iter.                  ...        0 min,  0.001 sec
     gradient                   ...        0 min,  0.001 sec
 * total energy  :   -13.1491600 Eh     change       -0.3614525E-04 Eh
   gradient norm :     0.0079999 Eh/α   predicted    -0.2108517E-04 ( -41.67%)
   displ. norm   :     0.0302861 α      lambda       -0.1244204E-03
   maximum displ.:     0.0211954 α      in ANC's #3, #1, #6, ...

........................................................................
.............................. CYCLE    9 ..............................
........................................................................
   1    -13.2086053 -0.132086E+02  0.527E-02    2.80       0.0  T
   2    -13.2086083 -0.300528E-05  0.272E-02    2.79       1.5  T
   3    -13.2086084 -0.230731E-07  0.124E-02    2.79       3.3  T
   4    -13.2086084 -0.285890E-07  0.465E-03    2.79       8.8  T
   5    -13.2086084 -0.516408E-07  0.227E-03    2.79      18.0  T
   6    -13.2086085 -0.137971E-07  0.977E-04    2.79      41.8  T
     SCC iter.                  ...        0 min,  0.001 sec
     gradient                   ...        0 min,  0.000 sec
 * total energy  :   -13.1492238 Eh     change       -0.6377294E-04 Eh
   gradient norm :     0.0181076 Eh/α   predicted    -0.6226863E-04 (  -2.36%)
   displ. norm   :     0.0987119 α      lambda       -0.1463470E-03
   maximum displ.:     0.0928800 α      in ANC's #1, #3, #6, ...

........................................................................
.............................. CYCLE   10 ..............................
........................................................................
   1    -13.2100324 -0.132100E+02  0.126E-01    2.79       0.0  T
   2    -13.2100374 -0.500140E-05  0.733E-02    2.78       1.0  T
   3    -13.2100373  0.132192E-06  0.199E-02    2.78       2.1  T
   4    -13.2100376 -0.321499E-06  0.670E-03    2.78       6.1  T
   5    -13.2100377 -0.116458E-06  0.362E-03    2.78      11.3  T
   6    -13.2100378 -0.233329E-07  0.208E-03    2.78      19.6  T
   7    -13.2100378 -0.133283E-07  0.391E-04    2.78     104.4  T
     SCC iter.                  ...        0 min,  0.002 sec
     gradient                   ...        0 min,  0.001 sec
 * total energy  :   -13.1489704 Eh     change        0.2534056E-03 Eh
   gradient norm :     0.0399633 Eh/α   predicted    -0.7388383E-04 (-129.16%)
   displ. norm   :     0.0800404 α      lambda       -0.5617264E-03
   maximum displ.:     0.0767445 α      in ANC's #1, #3, #6, ...

........................................................................
.............................. CYCLE   11 ..............................
........................................................................
   1    -13.2088627 -0.132089E+02  0.999E-02    2.78       0.0  T
   2    -13.2088654 -0.268445E-05  0.586E-02    2.79       1.0  T
   3    -13.2088653  0.112036E-06  0.147E-02    2.79       2.8  T
   4    -13.2088655 -0.215005E-06  0.472E-03    2.79       8.7  T
   5    -13.2088655 -0.634299E-07  0.229E-03    2.79      17.8  T
     SCC iter.                  ...        0 min,  0.001 sec
     gradient                   ...        0 min,  0.001 sec
 * total energy  :   -13.1492485 Eh     change       -0.2781506E-03 Eh
   gradient norm :     0.0072414 Eh/α   predicted    -0.2826597E-03 (   1.62%)
   displ. norm   :     0.0033830 α      lambda       -0.6386102E-05
   maximum displ.:     0.0030586 α      in ANC's #3, #1, #6, ...

........................................................................
.............................. CYCLE   12 ..............................
........................................................................
   1    -13.2087121 -0.132087E+02  0.583E-03    2.79       0.0  T
   2    -13.2087121 -0.310755E-07  0.299E-03    2.79      13.7  T
   3    -13.2087121  0.626397E-10  0.162E-03    2.79      25.3  T
     SCC iter.                  ...        0 min,  0.001 sec
     gradient                   ...        0 min,  0.007 sec
 * total energy  :   -13.1492538 Eh     change       -0.5295037E-05 Eh
   gradient norm :     0.0038357 Eh/α   predicted    -0.3193873E-05 ( -39.68%)
   displ. norm   :     0.0105831 α      lambda       -0.1206399E-04
   maximum displ.:     0.0090269 α      in ANC's #3, #2, #6, ...

........................................................................
.............................. CYCLE   13 ..............................
........................................................................
   1    -13.2082676 -0.132083E+02  0.181E-02    2.79       0.0  T
   2    -13.2082679 -0.286836E-06  0.907E-03    2.78       4.5  T
   3    -13.2082679  0.891438E-08  0.506E-03    2.78       8.1  T
   4    -13.2082679 -0.227187E-07  0.993E-04    2.78      41.1  T
   5    -13.2082679 -0.314653E-08  0.437E-04    2.78      93.5  T
     SCC iter.                  ...        0 min,  0.002 sec
     gradient                   ...        0 min,  0.001 sec
 * total energy  :   -13.1492591 Eh     change       -0.5305901E-05 Eh
   gradient norm :     0.0029246 Eh/α   predicted    -0.6031752E-05 (  13.68%)
   displ. norm   :     0.0275973 α      lambda       -0.1095655E-04
   maximum displ.:     0.0264702 α      in ANC's #2, #3, #6, ...

........................................................................
.............................. CYCLE   14 ..............................
........................................................................
   1    -13.2078493 -0.132078E+02  0.315E-02    2.78       0.0  T
   2    -13.2078496 -0.240526E-06  0.183E-02    2.78       2.2  T
   3    -13.2078495  0.463547E-07  0.566E-03    2.78       7.2  T
   4    -13.2078496 -0.687415E-07  0.115E-03    2.78      35.4  T
   5    -13.2078496 -0.336128E-08  0.687E-04    2.78      59.4  T
   6    -13.2078496 -0.640815E-09  0.393E-04    2.78     103.9  T
     SCC iter.                  ...        0 min,  0.001 sec
     gradient                   ...        0 min,  0.001 sec
 * total energy  :   -13.1492391 Eh     change        0.2004529E-04 Eh
   gradient norm :     0.0071245 Eh/α   predicted    -0.5484013E-05 (-127.36%)
   displ. norm   :     0.0226053 α      lambda       -0.4249721E-04
   maximum displ.:     0.0214345 α      in ANC's #2, #3, #6, ...

........................................................................
.............................. CYCLE   15 ..............................
........................................................................
   1    -13.2082058 -0.132082E+02  0.263E-02    2.78       0.0  T
   2    -13.2082060 -0.189294E-06  0.152E-02    2.78       2.7  T
   3    -13.2082060  0.268126E-07  0.468E-03    2.78       8.7  T
   4    -13.2082060 -0.392017E-07  0.988E-04    2.78      41.3  T
   5    -13.2082060 -0.344433E-08  0.485E-04    2.78      84.2  T
     SCC iter.                  ...        0 min,  0.001 sec
     gradient                   ...        0 min,  0.001 sec
 * total energy  :   -13.1492603 Eh     change       -0.2122852E-04 Eh
   gradient norm :     0.0008972 Eh/α   predicted    -0.2125796E-04 (   0.14%)
   displ. norm   :     0.0001827 α      lambda       -0.1567641E-07
   maximum displ.:     0.0001165 α      in ANC's #6, #2, #3, ...

........................................................................
.............................. CYCLE   16 ..............................
........................................................................
   1    -13.2081876 -0.132082E+02  0.440E-04    2.78       0.0  T
   2    -13.2081876 -0.409727E-09  0.288E-04    2.78     141.8  T
   3    -13.2081876 -0.112093E-09  0.235E-04    2.78     173.4  T
     SCC iter.                  ...        0 min,  0.001 sec
     gradient                   ...        0 min,  0.000 sec
 * total energy  :   -13.1492603 Eh     change       -0.9167222E-08 Eh
   gradient norm :     0.0000926 Eh/α   predicted    -0.9097411E-08 (  -0.76%)
   displ. norm   :     0.0000440 α      lambda        0.1339816E-08
   maximum displ.:     0.0000304 α      in ANC's #2, #3, #1, ...

   *** GEOMETRY OPTIMIZATION CONVERGED AFTER 16 ITERATIONS ***

------------------------------------------------------------------------
 total energy gain   :        -2.3216107 Eh    -1456.8327 kcal/mol
 total RMSD          :         0.1225892 a0        0.0649 Å
 total power (kW/mol):      -380.9617467 (step)********** (real)
------------------------------------------------------------------------

 ANCopt (total)                0 d,  0 h,  0 min,  0.050 sec
 optimizer setup                ...        0 min,  0.000 sec (  0.118%)
 model hessian                  ...        0 min,  0.000 sec (  0.350%)
 ANC generation                 ...        0 min,  0.000 sec (  0.326%)
 coordinate transformation      ...        0 min,  0.000 sec (  0.154%)
 single point calculation       ...        0 min,  0.048 sec ( 94.997%)
 optimization log               ...        0 min,  0.000 sec (  0.780%)
 hessian update                 ...        0 min,  0.001 sec (  1.376%)
 rational function              ...        0 min,  0.000 sec (  0.931%)

================
 final structure:
================
6
 xtb: 6.2.3 (830e466)
F        -2.70723785487937   -0.15977136180341    0.04681782734699
Cl        1.43070514138426    0.08598337101192   -0.02235127437785
C        -0.57449304730738   -0.03313505609174    0.01119213335007
H        -0.74459607130891   -0.61915259132966   -0.86926073417789
H        -0.71998453224614   -0.52049684045641    0.95397823515091
H        -0.82730363564248    1.00650247866931   -0.04165618729223
 
 Bond Distances (Angstroems)
 ---------------------------
Cl2-C3=2.0090        C3-Cl2=2.0090        C3-H4=1.0712         C3-H5=1.0712         C3-H6=1.0712         H4-C3=1.0712         
H5-C3=1.0712         H6-C3=1.0712         
 C  H  Rav=1.0712 sigma=0.0000  Rmin=1.0712  Rmax=1.0712     3
 Cl C  Rav=2.0090 sigma=0.0000  Rmin=2.0090  Rmax=2.0090     1
 
 selected bond angles (degree)
 --------------------
H4-C3-Cl2=100.21               H5-C3-Cl2=100.21               H5-C3-H4=116.93                H6-C3-Cl2=100.21               
H6-C3-H4=116.93                H6-C3-H5=116.93                
 
 selected dihedral angles (degree)
 ---------------------------------

 
 CMA Distance (Angstroems)
 ---------------------------
R(CMA):  3.5362
           -------------------------------------------------
          |                Final Singlepoint                |
           -------------------------------------------------

          ...................................................
          :                      SETUP                      :
          :.................................................:
          :  # basis functions                  21          :
          :  # atomic orbitals                  20          :
          :  # shells                           10          :
          :  # electrons                        22          :
          :  max. iterations                   250          :
          :  Hamiltonian                  GFN2-xTB          :
          :  restarted?                      false          :
          :  GBSA solvation                  false          :
          :  PC potential                    false          :
          :  electronic temp.          300.0000000     K    :
          :  accuracy                    1.0000000          :
          :  -> integral cutoff          0.2500000E+02      :
          :  -> integral neglect         0.1000000E-07      :
          :  -> SCF convergence          0.1000000E-05 Eh   :
          :  -> wf. convergence          0.1000000E-03 e    :
          :  Broyden damping             0.4000000          :
          ...................................................

 iter      E             dE          RMSdq      gap      omega  full diag
   1    -13.2081876 -0.132082E+02  0.150E-04    2.78       0.0  T
   2    -13.2081876 -0.182752E-10  0.125E-04    2.78     326.0  T
   3    -13.2081876 -0.298730E-10  0.800E-05    2.78     510.1  T

   *** convergence criteria satisfied after 3 iterations ***

         #    Occupation            Energy/Eh            Energy/eV
      -------------------------------------------------------------
         1        2.0000           -0.8774721             -23.8772
       ...           ...                  ...                  ...
         5        2.0000           -0.3257822              -8.8650
         6        2.0000           -0.2930733              -7.9749
         7        2.0000           -0.2460836              -6.6963
         8        2.0000           -0.2460834              -6.6963
         9        2.0000           -0.1510874              -4.1113
        10        2.0000           -0.1463506              -3.9824
        11        2.0000           -0.1463506              -3.9824 (HOMO)
        12                         -0.0440699              -1.1992 (LUMO)
        13                          0.2172011               5.9103
        14                          0.2172011               5.9103
        15                          0.2182523               5.9389
        16                          0.2182524               5.9390
       ...                                ...                  ...
        20                          0.4334781              11.7955
      -------------------------------------------------------------
                  HL-Gap            0.1022807 Eh            2.7832 eV
             Fermi-level           -0.0952102 Eh           -2.5908 eV

 SCC (total)                   0 d,  0 h,  0 min,  0.002 sec
 SCC setup                      ...        0 min,  0.000 sec (  2.861%)
 Dispersion                     ...        0 min,  0.000 sec (  0.420%)
 integral evaluation            ...        0 min,  0.001 sec ( 28.099%)
 zeroth order Hamiltonian       ...        0 min,  0.000 sec (  0.750%)
 iterations                     ...        0 min,  0.001 sec ( 42.339%)
 molecular gradient             ...        0 min,  0.000 sec ( 21.640%)
 printout                       ...        0 min,  0.000 sec (  2.606%)

         :::::::::::::::::::::::::::::::::::::::::::::::::::::
         ::                     SUMMARY                     ::
         :::::::::::::::::::::::::::::::::::::::::::::::::::::
         :: total energy             -13.149260330036 Eh    ::
         :: gradient norm              0.000093082398 Eh/a0 ::
         :: HOMO-LUMO gap              2.783198619871 eV    ::
         ::.................................................::
         :: SCC energy               -13.208187570187 Eh    ::
         :: -> isotropic ES            0.200410225776 Eh    ::
         :: -> anisotropic ES         -0.000625554553 Eh    ::
         :: -> anisotropic XC          0.002101727696 Eh    ::
         :: -> dispersion             -0.002062210673 Eh    ::
         :: repulsion energy           0.058925900036 Eh    ::
         :: add. restraining           0.000001461137 Eh    ::
         :::::::::::::::::::::::::::::::::::::::::::::::::::::

           -------------------------------------------------
          |                Property Printout                |
           -------------------------------------------------

    * Orbital Energies and Occupations

         #    Occupation            Energy/Eh            Energy/eV
      -------------------------------------------------------------
         1        2.0000           -0.8774721             -23.8772
         2        2.0000           -0.4320040             -11.7554
         3        2.0000           -0.4128441             -11.2341
         4        2.0000           -0.3257835              -8.8650
         5        2.0000           -0.3257822              -8.8650
         6        2.0000           -0.2930733              -7.9749
         7        2.0000           -0.2460836              -6.6963
         8        2.0000           -0.2460834              -6.6963
         9        2.0000           -0.1510874              -4.1113
        10        2.0000           -0.1463506              -3.9824
        11        2.0000           -0.1463506              -3.9824 (HOMO)
        12                         -0.0440699              -1.1992 (LUMO)
        13                          0.2172011               5.9103
        14                          0.2172011               5.9103
        15                          0.2182523               5.9389
        16                          0.2182524               5.9390
        17                          0.2430981               6.6150
        18                          0.3126104               8.5066
        19                          0.4334636              11.7951
        20                          0.4334781              11.7955
      -------------------------------------------------------------
                  HL-Gap            0.1022807 Eh            2.7832 eV
             Fermi-level           -0.0952102 Eh           -2.5908 eV

     #   Z        covCN         q      C6AA      α(0)
     1   9 F      0.041    -0.756    19.465     5.139
     2  17 Cl     0.825    -0.492   115.358    16.431
     3   6 C      3.645     0.024    20.512     6.509
     4   1 H      0.926     0.075     2.035     2.231
     5   1 H      0.926     0.075     2.035     2.231
     6   1 H      0.926     0.075     2.035     2.231

 Mol. C6AA /au·bohr⁶  :        567.477553
 Mol. C8AA /au·bohr⁸  :      15942.620579
 Mol. α(0) /au        :         34.770852


Wiberg/Mayer (AO) data.
largest (>0.10) Wiberg bond orders for each atom
          total WBO             WBO to atom ...
     1  F   0.429        C    3 0.299    Cl   2 0.130
     2  Cl  0.777        C    3 0.640    F    1 0.130
     3  C   3.915        H    6 0.992    H    4 0.992    H    5 0.992    Cl   2 0.640    F    1 0.299
     4  H   0.994        C    3 0.992
     5  H   0.994        C    3 0.992
     6  H   0.994        C    3 0.992

molecular dipole:
                 x           y           z       tot (Debye)
 q only:        2.189       0.128      -0.040
   full:        1.921       0.112      -0.035       4.892
molecular quadrupole (traceless):
                xx          xy          yy          xz          yz          zz
 q only:      -23.286      -2.072      11.587       0.595       0.035      11.699
  q+dip:      -26.242      -2.337      13.057       0.668       0.040      13.185
   full:      -25.160      -2.240      12.519       0.641       0.038      12.641

           -------------------------------------------------
          |                Geometry Summary                 |
           -------------------------------------------------

      molecular mass/u    :       69.4858989
   center of mass at/Å    :       -0.1427723      -0.0074723       0.0039558
  moments of inertia/u·Å² :        0.3361011E+01   0.2186268E+03   0.2186268E+03
rotational constants/cm⁻¹ :        0.5015644E+01   0.7710688E-01   0.7710687E-01

 * 3 selected distances

     #   Z        #   Z                                     value/Å
     3   6 C      4   1 H                                 1.0712371
     3   6 C      5   1 H                                 1.0712306 (min)
     3   6 C      6   1 H                                 1.0712387 (max)

 * 1 distinct bonds (by element types)

   Z      Z             #   av. dist./Å        max./Å        min./Å
   1 H    6 C           3     1.0712354     1.0712387     1.0712306


optimized geometry written to: xtbopt.xyz


           -------------------------------------------------
          | TOTAL ENERGY              -13.149260330036 Eh   |
          | GRADIENT NORM               0.000093082398 Eh/α |
          | HOMO-LUMO GAP               2.783198619871 eV   |
           -------------------------------------------------

------------------------------------------------------------------------
 * finished run on 2020/04/08 at 13:21:28.817     
------------------------------------------------------------------------
 total:
 * wall-time:     0 d,  0 h,  0 min,  0.111 sec
 *  cpu-time:     0 d,  0 h,  0 min,  0.409 sec
 * ratio c/w:     3.683 speedup
 SCF:
 * wall-time:     0 d,  0 h,  0 min,  0.007 sec
 *  cpu-time:     0 d,  0 h,  0 min,  0.027 sec
 * ratio c/w:     3.960 speedup
 ANC optimizer:
 * wall-time:     0 d,  0 h,  0 min,  0.053 sec
 *  cpu-time:     0 d,  0 h,  0 min,  0.202 sec
 * ratio c/w:     3.841 speedup

