      -----------------------------------------------------------      
     |                   =====================                   |     
     |                           x T B                           |     
     |                   =====================                   |     
     |                         S. Grimme                         |     
     |          Mulliken Center for Theoretical Chemistry        |     
     |                    University of Bonn                     |     
      -----------------------------------------------------------      

   * xtb version 6.2.3 (830e466) compiled by 'ehlert@majestix' on 2020-03-16

   xtb is free software: you can redistribute it and/or modify it under
   the terms of the GNU Lesser General Public License as published by
   the Free Software Foundation, either version 3 of the License, or
   (at your option) any later version.
   
   xtb is distributed in the hope that it will be useful,
   but WITHOUT ANY WARRANTY; without even the implied warranty of
   MERCHANTABILITY or FITNESS FOR A PARTICULAR PURPOSE.  See the
   GNU Lesser General Public License for more details.
   
   Cite this work as:
   * S. Grimme, C. Bannwarth, P. Shushkov, J. Chem. Theory Comput., 2017,
     13, 1989-2009. DOI: 10.1021/acs.jctc.7b00118
   * C. Bannwarth, S. Ehlert and S. Grimme., J. Chem. Theory Comput., 2019,
     15, 1652-1671. DOI: 10.1021/acs.jctc.8b01176
   * P. Pracht, E. Caldeweyher, S. Ehlert, S. Grimme, ChemRxiv, 2019, preprint.
     DOI: 10.26434/chemrxiv.8326202.v1
   
   for DFT-D4:
   * E. Caldeweyher, C. Bannwarth and S. Grimme, J. Chem. Phys., 2017,
     147, 034112. DOI: 10.1063/1.4993215
   * E. Caldeweyher, S. Ehlert, A. Hansen, H. Neugebauer, S. Spicher,
     C. Bannwarth and S. Grimme, J. Chem. Phys., 2019, 150, 154122.
     DOI: 10.1063/1.5090222
   
   for sTDA-xTB:
   * S. Grimme and C. Bannwarth, J. Chem. Phys., 2016, 145, 054103.
     DOI: 10.1063/1.4959605
   
   in the mass-spec context:
   * V. Asgeirsson, C. Bauer and S. Grimme, Chem. Sci., 2017, 8, 4879.
     DOI: 10.1039/c7sc00601b
   
   for metadynamics refer to:
   * S. Grimme, J. Chem. Theory Comput., 2019, 155, 2847-2862
     DOI: 10.1021/acs.jctc.9b00143
   
   with help from (in alphabetical order)
   C. Bannwarth, F. Bohle, G. Brandenburg, E. Caldeweyher, M. Checinski,
   S. Dohm, S. Ehlert, S. Ehrlich, F. März, H. Neugebauer, J. Pisarek,
   P. Pracht, P. Shushkov, and S. Spicher.
   
 * started run on 2020/04/08 at 23:04:48.122     

           -------------------------------------------------
          |                Calculation Setup                |
           -------------------------------------------------

          program call               : /home/tom/.local/bin/xtb SN2_PES_scan_6-1_xtb.xyz --chrg -1 --opt --input xcontrol_SN2_PES_scan_6-1
          coordinate file            : SN2_PES_scan_6-1_xtb.xyz
          omp threads                :                     1
          number of atoms            :                     6
          number of electrons        :                    22
          charge                     :                    -1
          spin                       :                   0.0
          first test random number   :      0.55001022561959

constraining bond 1 3 to    2.2050000 Å, actual value:    1.5029598 Å
constraining bond 2 3 to    2.0830000 Å, actual value:    1.7837539 Å
########################################################################
[WARNING] Please study the warnings concerning your input carefully
-2- prog_main: XTBPATH is not set, using XTBHOME instead
-1- prog_main: XTBHOME is not set, using HOME instead
########################################################################
           ------------------------------------------------- 
          |                 G F N 2 - x T B                 |
          | Geometry, Frequencies, Noncovalent interactions |
          |            JCTC 2019 parametrisation            |
           ------------------------------------------------- 
             k(s)              :                1.8500
             k(p)              :                2.2300
             k(d)              :                2.2300
             k(f)              :                2.0000
             kEN (H0ij)        :               -2.0000
             D4 a1             :                0.5200
             D4 a2             :                5.0000
             D4 s6             :                1.0000
             D4 s8             :                2.7000
             D4 s9             :                5.0000
             alphaj            :                2.0000

  Z AO/shell   Hii/eV     exponent
  1     Wed Apr 25 08:07:45 CEST 2018   EN: 2.200 GM2: 0.406  GM3: 0.0800  RAES: 1.40
     1s    -10.707211    1.230000
  6     Wed Apr 25 08:07:45 CEST 2018   EN: 2.550 GM2: 0.538  GM3: 0.1500  RAES: 3.00
     2s    -13.970922    2.096432
     2p    -10.063292    1.800000
  9     Mon Apr 23 13:58:50 CEST 2018   EN: 3.980 GM2: 0.532  GM3: 0.1426  RAES: 2.40
     2s    -23.458179    2.416361
     2p    -15.746583    2.308399
 17     Mon Apr 23 14:09:22 CEST 2018   EN: 3.160 GM2: 0.249  GM3: 0.1495  RAES: 2.50
     3s    -29.278781    2.485265
     3p    -12.673758    2.199650
     3d     -0.240338    2.476089

           ------------------------------------------------- 
          |        Self-Consistent Charge Iterations        |
           ------------------------------------------------- 

          ...................................................
          :                      SETUP                      :
          :.................................................:
          :  # basis functions                  21          :
          :  # atomic orbitals                  20          :
          :  # shells                           10          :
          :  # electrons                        22          :
          :  max. iterations                   250          :
          :  Hamiltonian                  GFN2-xTB          :
          :  restarted?                      false          :
          :  GBSA solvation                  false          :
          :  PC potential                    false          :
          :  electronic temp.          300.0000000     K    :
          :  accuracy                    1.0000000          :
          :  -> integral cutoff          0.2500000E+02      :
          :  -> integral neglect         0.1000000E-07      :
          :  -> SCF convergence          0.1000000E-05 Eh   :
          :  -> wf. convergence          0.1000000E-03 e    :
          :  Broyden damping             0.4000000          :
          ...................................................

 iter      E             dE          RMSdq      gap      omega  full diag
   1    -13.0479061 -0.130479E+02  0.759E+00    7.85       0.0  T
   2    -13.1298662 -0.819601E-01  0.420E+00    7.59       1.0  T
   3    -13.1330259 -0.315969E-02  0.209E+00    7.87       1.0  T
   4    -13.1353718 -0.234590E-02  0.839E-01    7.96       1.0  T
   5    -13.1370428 -0.167099E-02  0.335E-01    7.90       1.0  T
   6    -13.1371937 -0.150942E-03  0.203E-01    7.84       1.0  T
   7    -13.1373311 -0.137374E-03  0.505E-02    7.87       1.0  T
   8    -13.1373337 -0.261266E-05  0.114E-02    7.86       3.6  T
   9    -13.1373340 -0.343908E-06  0.361E-03    7.86      11.3  T
  10    -13.1373341 -0.196852E-07  0.269E-04    7.86     151.6  T
  11    -13.1373341  0.163620E-10  0.188E-04    7.86     217.1  T

   *** convergence criteria satisfied after 11 iterations ***

         #    Occupation            Energy/Eh            Energy/eV
      -------------------------------------------------------------
         1        2.0000           -0.8585693             -23.3629
       ...           ...                  ...                  ...
         5        2.0000           -0.3397269              -9.2444
         6        2.0000           -0.3131487              -8.5212
         7        2.0000           -0.2389883              -6.5032
         8        2.0000           -0.2389783              -6.5029
         9        2.0000           -0.2099364              -5.7127
        10        2.0000           -0.2099106              -5.7120
        11        2.0000           -0.1707916              -4.6475 (HOMO)
        12                          0.1180740               3.2130 (LUMO)
        13                          0.2485981               6.7647
        14                          0.2485988               6.7647
        15                          0.2606533               7.0927
        16                          0.2606736               7.0933
       ...                                ...                  ...
        20                          0.4364692              11.8769
      -------------------------------------------------------------
                  HL-Gap            0.2888656 Eh            7.8604 eV
             Fermi-level           -0.0263588 Eh           -0.7173 eV

 SCC (total)                   0 d,  0 h,  0 min,  0.003 sec
 SCC setup                      ...        0 min,  0.000 sec (  2.362%)
 Dispersion                     ...        0 min,  0.000 sec (  0.500%)
 integral evaluation            ...        0 min,  0.001 sec ( 25.195%)
 zeroth order Hamiltonian       ...        0 min,  0.000 sec (  0.645%)
 iterations                     ...        0 min,  0.001 sec ( 41.005%)
 molecular gradient             ...        0 min,  0.001 sec ( 27.249%)
 printout                       ...        0 min,  0.000 sec (  2.253%)

         :::::::::::::::::::::::::::::::::::::::::::::::::::::
         ::                     SUMMARY                     ::
         :::::::::::::::::::::::::::::::::::::::::::::::::::::
         :: total energy               7.714674021196 Eh    ::
         :: gradient norm             32.740441177998 Eh/a0 ::
         :: HOMO-LUMO gap              7.860433000377 eV    ::
         ::.................................................::
         :: SCC energy               -13.137334055490 Eh    ::
         :: -> isotropic ES            0.164405269299 Eh    ::
         :: -> anisotropic ES         -0.019591848039 Eh    ::
         :: -> anisotropic XC         -0.037501378079 Eh    ::
         :: -> dispersion             -0.002483177096 Eh    ::
         :: repulsion energy           0.053823331007 Eh    ::
         :: add. restraining          20.798184696833 Eh    ::
         :::::::::::::::::::::::::::::::::::::::::::::::::::::

      ----------------------------------------------------------- 
     |                   =====================                   |
     |                        A N C O P T                        |
     |                   =====================                   |
     |               Approximate Normal Coordinate               |
     |                Rational Function Optimizer                |
      ----------------------------------------------------------- 

          ...................................................
          :                      SETUP                      :
          :.................................................:
          :   optimization level            normal          :
          :   max. optcycles                   200          :
          :   ANC micro-cycles                  20          :
          :   degrees of freedom                12          :
          :.................................................:
          :   RF solver                   davidson          :
          :   write xtbopt.log                true          :
          :   linear?                        false          :
          :   energy convergence         0.5000000E-05 Eh   :
          :   grad. convergence          0.1000000E-02 Eh/α :
          :   maximium RF displ.         1.0000000          :
          :   Hlow (freq-cutoff)         0.1000000E-01      :
          :   Hmax (freq-cutoff)         5.0000000          :
          :   S6 in model hess.         20.0000000          :
          ...................................................

generating ANC from model Hessian ...
Using Lindh-Hessian (1995)
 Shifting diagonal of input Hessian by    19.2616275253747     
 Lowest  eigenvalues of input Hessian
    0.010000    0.099690   18.197062   18.199025   -0.000000   -0.000000
   -0.000000    0.000000    0.000000    0.000000   19.383924   19.383956
   19.442936   19.672763   19.943515   19.943566   39.718259   80.677793
 Highest eigenvalues
   19.442936   19.672763   19.943515   19.943566   39.718259   80.677793
 

........................................................................
.............................. CYCLE    1 ..............................
........................................................................
   1    -13.1373341 -0.131373E+02  0.104E-05    7.86       0.0  T
   2    -13.1373341 -0.234479E-12  0.600E-06    7.86    6799.9  T
   3    -13.1373341 -0.248690E-13  0.477E-06    7.86    8549.8  T
     SCC iter.                  ...        0 min,  0.000 sec
     gradient                   ...        0 min,  0.001 sec
 * total energy  :     7.7146740 Eh     change       -0.1788336E-07 Eh
   gradient norm :    32.7404432 Eh/α   predicted     0.0000000E+00 (-100.00%)
   displ. norm   :     0.9265529 α      lambda       -0.3033575E+02
   maximum displ.:     0.7623106 α      in ANC's #12, #3, #6, ...

........................................................................
.............................. CYCLE    2 ..............................
........................................................................
   1    -13.1550826 -0.131551E+02  0.328E+00    7.07       0.0  T
   2    -13.1733040 -0.182214E-01  0.151E+00    5.43       1.0  T
   3    -13.1770031 -0.369905E-02  0.781E-01    4.06       1.0  T
   4    -13.1776806 -0.677523E-03  0.346E-01    3.39       1.0  T
   5    -13.1777732 -0.926377E-04  0.205E-01    3.64       1.0  T
   6    -13.1778413 -0.680570E-04  0.138E-01    3.49       1.0  T
   7    -13.1778875 -0.462014E-04  0.784E-02    3.65       1.0  T
   8    -13.1779044 -0.169382E-04  0.310E-02    3.59       1.3  T
   9    -13.1779080 -0.353751E-05  0.207E-03    3.56      19.7  T
  10    -13.1779080 -0.140276E-08  0.714E-04    3.56      57.2  T
     SCC iter.                  ...        0 min,  0.001 sec
     gradient                   ...        0 min,  0.001 sec
 * total energy  :    -8.4226294 Eh     change       -0.1613730E+02 Eh
   gradient norm :    17.3952292 Eh/α   predicted    -0.2818950E+02 (  74.69%)
   displ. norm   :     0.8728379 α      lambda       -0.1451028E+02
   maximum displ.:     0.7462842 α      in ANC's #12, #3, #6, ...

........................................................................
.............................. CYCLE    3 ..............................
........................................................................
   1    -12.6554817 -0.126555E+02  0.911E+00    0.70       0.0  T
   2    -12.9818219 -0.326340E+00  0.687E+00    4.80       1.0  T
   3    -13.1593507 -0.177529E+00  0.293E+00    3.14       1.0  T
   4    -13.1789546 -0.196039E-01  0.187E+00    3.07       1.0  T
   5    -13.1314984  0.474562E-01  0.302E+00    1.55       1.0  T
   6    -13.1844129 -0.529145E-01  0.116E+00    2.97       1.0  T
   7    -13.1619485  0.224644E-01  0.212E+00    1.75       1.0  T
   8    -13.1892673 -0.273189E-01  0.540E-01    2.75       1.0  T
   9    -13.1832944  0.597299E-02  0.119E+00    3.13       1.0  T
  10    -13.1884845 -0.519017E-02  0.617E-01    2.85       1.0  T
  11    -13.1902828 -0.179823E-02  0.218E-01    2.62       1.0  T
  12    -13.1904075 -0.124724E-03  0.155E-01    2.59       1.0  T
  13    -13.1905330 -0.125515E-03  0.261E-02    2.50       1.6  T
  14    -13.1905318  0.119973E-05  0.300E-02    2.50       1.4  T
  15    -13.1905367 -0.486551E-05  0.264E-03    2.51      15.4  T
  16    -13.1905367 -0.373649E-07  0.321E-04    2.51     127.1  T
     SCC iter.                  ...        0 min,  0.001 sec
     gradient                   ...        0 min,  0.001 sec
 * total energy  :   -11.1690705 Eh     change       -0.2746441E+01 Eh
   gradient norm :    14.6082449 Eh/α   predicted    -0.1278244E+02 ( 365.42%)
   displ. norm   :     0.2654595 α      lambda       -0.3696971E+01
   maximum displ.:     0.2270605 α      in ANC's #3, #12, #6, ...

........................................................................
.............................. CYCLE    4 ..............................
........................................................................
   1    -13.1785925 -0.131786E+02  0.175E+00    3.42       0.0  T
   2    -13.1884754 -0.988286E-02  0.494E-01    2.24       1.0  T
   3    -13.1886616 -0.186185E-03  0.306E-01    2.31       1.0  T
   4    -13.1888127 -0.151161E-03  0.228E-01    2.22       1.0  T
   5    -13.1888803 -0.676094E-04  0.111E-01    2.28       1.0  T
   6    -13.1887855  0.948185E-04  0.169E-01    2.16       1.0  T
   7    -13.1889216 -0.136100E-03  0.539E-02    2.21       1.0  T
   8    -13.1889360 -0.144233E-04  0.143E-02    2.23       2.8  T
   9    -13.1889372 -0.111944E-05  0.132E-03    2.24      30.9  T
  10    -13.1889372 -0.866175E-08  0.859E-05    2.24     475.3  T
     SCC iter.                  ...        0 min,  0.001 sec
     gradient                   ...        0 min,  0.001 sec
 * total energy  :   -13.1301343 Eh     change       -0.1961064E+01 Eh
   gradient norm :     0.8941311 Eh/α   predicted    -0.1978746E+01 (   0.90%)
   displ. norm   :     0.0394126 α      lambda       -0.2994511E-01
   maximum displ.:     0.0355004 α      in ANC's #12, #2, #3, ...

........................................................................
.............................. CYCLE    5 ..............................
........................................................................
   1    -13.1903697 -0.131904E+02  0.162E-01    2.39       0.0  T
   2    -13.1904461 -0.764187E-04  0.104E-01    2.27       1.0  T
   3    -13.1904859 -0.397856E-04  0.445E-02    2.31       1.0  T
   4    -13.1904883 -0.244385E-05  0.298E-02    2.30       1.4  T
   5    -13.1904894 -0.111769E-05  0.151E-02    2.30       2.7  T
   6    -13.1904901 -0.691383E-06  0.380E-03    2.30      10.8  T
   7    -13.1904901 -0.290346E-07  0.117E-03    2.30      34.9  T
     SCC iter.                  ...        0 min,  0.000 sec
     gradient                   ...        0 min,  0.001 sec
 * total energy  :   -13.1448087 Eh     change       -0.1467438E-01 Eh
   gradient norm :     0.0501417 Eh/α   predicted    -0.1499581E-01 (   2.19%)
   displ. norm   :     0.0272834 α      lambda       -0.3890810E-03
   maximum displ.:     0.0261582 α      in ANC's #2, #6, #1, ...

........................................................................
.............................. CYCLE    6 ..............................
........................................................................
   1    -13.1915225 -0.131915E+02  0.577E-02    2.30       0.0  T
   2    -13.1915235 -0.990675E-06  0.347E-02    2.30       1.2  T
   3    -13.1915228  0.692444E-06  0.191E-02    2.29       2.1  T
   4    -13.1915240 -0.116489E-05  0.514E-03    2.30       7.9  T
   5    -13.1915240 -0.209954E-07  0.130E-03    2.30      31.4  T
     SCC iter.                  ...        0 min,  0.000 sec
     gradient                   ...        0 min,  0.001 sec
 * total energy  :   -13.1450658 Eh     change       -0.2570975E-03 Eh
   gradient norm :     0.0379539 Eh/α   predicted    -0.1946838E-03 ( -24.28%)
   displ. norm   :     0.0627812 α      lambda       -0.1186028E-02
   maximum displ.:     0.0537907 α      in ANC's #1, #6, #2, ...

........................................................................
.............................. CYCLE    7 ..............................
........................................................................
   1    -13.1958205 -0.131958E+02  0.142E-01    2.28       0.0  T
   2    -13.1958277 -0.723747E-05  0.850E-02    2.30       1.0  T
   3    -13.1958261  0.159575E-05  0.592E-02    2.27       1.0  T
   4    -13.1958340 -0.790518E-05  0.111E-02    2.29       3.7  T
   5    -13.1958341 -0.888564E-07  0.416E-03    2.29       9.8  T
   6    -13.1958341 -0.194117E-07  0.272E-03    2.29      15.0  T
     SCC iter.                  ...        0 min,  0.000 sec
     gradient                   ...        0 min,  0.001 sec
 * total energy  :   -13.1454390 Eh     change       -0.3731859E-03 Eh
   gradient norm :     0.1113681 Eh/α   predicted    -0.5953503E-03 (  59.53%)
   displ. norm   :     0.5111390 α      lambda       -0.1265070E-01
   maximum displ.:     0.3760827 α      in ANC's #1, #6, #2, ...

........................................................................
.............................. CYCLE    8 ..............................
........................................................................
   1    -13.2297834 -0.132298E+02  0.112E+00    1.99       0.0  T
   2    -13.2302087 -0.425281E-03  0.632E-01    2.25       1.0  T
   3    -13.2302713 -0.625796E-04  0.471E-01    2.00       1.0  T
   4    -13.2307133 -0.442041E-03  0.875E-02    2.13       1.0  T
   5    -13.2307210 -0.766157E-05  0.449E-02    2.11       1.0  T
   6    -13.2307233 -0.233529E-05  0.296E-02    2.12       1.4  T
   7    -13.2307260 -0.267227E-05  0.788E-03    2.12       5.2  T
   8    -13.2307261 -0.128175E-06  0.395E-03    2.12      10.3  T
   9    -13.2307261 -0.257919E-07  0.806E-04    2.12      50.7  T
     SCC iter.                  ...        0 min,  0.001 sec
     gradient                   ...        0 min,  0.001 sec
 * total energy  :   -13.0517761 Eh     change        0.9366291E-01 Eh
   gradient norm :     1.5565276 Eh/α   predicted    -0.7977897E-02 (-108.52%)
   displ. norm   :     0.3739412 α      lambda       -0.2336604E+00
   maximum displ.:     0.2965588 α      in ANC's #1, #6, #2, ...

........................................................................
.............................. CYCLE    9 ..............................
........................................................................
   1    -13.2127928 -0.132128E+02  0.852E-01    2.41       0.0  T
   2    -13.2131644 -0.371610E-03  0.519E-01    2.21       1.0  T
   3    -13.2132642 -0.998050E-04  0.340E-01    2.39       1.0  T
   4    -13.2134543 -0.190099E-03  0.670E-02    2.30       1.0  T
   5    -13.2134581 -0.379710E-05  0.328E-02    2.31       1.2  T
   6    -13.2134594 -0.129192E-05  0.229E-02    2.30       1.8  T
   7    -13.2134610 -0.162790E-05  0.446E-03    2.30       9.2  T
   8    -13.2134610 -0.245709E-07  0.118E-03    2.30      34.7  T
     SCC iter.                  ...        0 min,  0.001 sec
     gradient                   ...        0 min,  0.001 sec
 * total energy  :   -13.1462530 Eh     change       -0.9447696E-01 Eh
   gradient norm :     0.0978422 Eh/α   predicted    -0.1331667E+00 (  40.95%)
   displ. norm   :     0.0733027 α      lambda       -0.1866234E-02
   maximum displ.:     0.0596130 α      in ANC's #6, #2, #7, ...

........................................................................
.............................. CYCLE   10 ..............................
........................................................................
   1    -13.2053672 -0.132054E+02  0.138E-01    2.32       0.0  T
   2    -13.2053817 -0.144764E-04  0.728E-02    2.29       1.0  T
   3    -13.2053886 -0.687854E-05  0.538E-02    2.32       1.0  T
   4    -13.2053929 -0.428695E-05  0.112E-02    2.30       3.6  T
   5    -13.2053930 -0.890930E-07  0.571E-03    2.31       7.1  T
   6    -13.2053930 -0.346945E-07  0.311E-03    2.31      13.1  T
     SCC iter.                  ...        0 min,  0.000 sec
     gradient                   ...        0 min,  0.001 sec
 * total energy  :   -13.1468842 Eh     change       -0.6311275E-03 Eh
   gradient norm :     0.0405234 Eh/α   predicted    -0.9381362E-03 (  48.64%)
   displ. norm   :     0.0181236 α      lambda       -0.1930087E-03
   maximum displ.:     0.0142779 α      in ANC's #2, #6, #1, ...

........................................................................
.............................. CYCLE   11 ..............................
........................................................................
   1    -13.2067669 -0.132068E+02  0.385E-02    2.30       0.0  T
   2    -13.2067676 -0.633085E-06  0.222E-02    2.31       1.8  T
   3    -13.2067675  0.995828E-07  0.150E-02    2.30       2.7  T
   4    -13.2067679 -0.468890E-06  0.294E-03    2.30      13.9  T
   5    -13.2067679 -0.599076E-08  0.113E-03    2.30      36.0  T
     SCC iter.                  ...        0 min,  0.000 sec
     gradient                   ...        0 min,  0.001 sec
 * total energy  :   -13.1470090 Eh     change       -0.1248125E-03 Eh
   gradient norm :     0.0129877 Eh/α   predicted    -0.9653722E-04 ( -22.65%)
   displ. norm   :     0.0086127 α      lambda       -0.5185496E-04
   maximum displ.:     0.0060178 α      in ANC's #2, #1, #7, ...

........................................................................
.............................. CYCLE   12 ..............................
........................................................................
   1    -13.2068454 -0.132068E+02  0.209E-02    2.30       0.0  T
   2    -13.2068455 -0.106306E-06  0.127E-02    2.30       3.2  T
   3    -13.2068455 -0.227284E-07  0.263E-03    2.30      15.5  T
   4    -13.2068455 -0.358311E-09  0.122E-03    2.30      33.5  T
     SCC iter.                  ...        0 min,  0.000 sec
     gradient                   ...        0 min,  0.001 sec
 * total energy  :   -13.1470432 Eh     change       -0.3421412E-04 Eh
   gradient norm :     0.0071645 Eh/α   predicted    -0.2593010E-04 ( -24.21%)
   displ. norm   :     0.0056738 α      lambda       -0.2077168E-04
   maximum displ.:     0.0046354 α      in ANC's #1, #6, #7, ...

........................................................................
.............................. CYCLE   13 ..............................
........................................................................
   1    -13.2064895 -0.132065E+02  0.139E-02    2.30       0.0  T
   2    -13.2064896 -0.819776E-07  0.820E-03    2.30       5.0  T
   3    -13.2064896  0.460311E-08  0.594E-03    2.30       6.9  T
   4    -13.2064896 -0.741364E-07  0.101E-03    2.30      40.4  T
   5    -13.2064896 -0.470054E-09  0.339E-04    2.30     120.3  T
     SCC iter.                  ...        0 min,  0.000 sec
     gradient                   ...        0 min,  0.001 sec
 * total energy  :   -13.1470572 Eh     change       -0.1398527E-04 Eh
   gradient norm :     0.0075433 Eh/α   predicted    -0.1038425E-04 ( -25.75%)
   displ. norm   :     0.0037032 α      lambda       -0.9246276E-05
   maximum displ.:     0.0025948 α      in ANC's #1, #6, #7, ...

........................................................................
.............................. CYCLE   14 ..............................
........................................................................
   1    -13.2062009 -0.132062E+02  0.831E-03    2.30       0.0  T
   2    -13.2062009 -0.395197E-07  0.466E-03    2.30       8.8  T
   3    -13.2062009 -0.132106E-07  0.361E-03    2.30      11.3  T
   4    -13.2062010 -0.226081E-07  0.590E-04    2.30      69.2  T
   5    -13.2062010 -0.180282E-09  0.253E-04    2.30     161.1  T
     SCC iter.                  ...        0 min,  0.000 sec
     gradient                   ...        0 min,  0.001 sec
 * total energy  :   -13.1470638 Eh     change       -0.6639500E-05 Eh
   gradient norm :     0.0049964 Eh/α   predicted    -0.4621681E-05 ( -30.39%)
   displ. norm   :     0.0036416 α      lambda       -0.8867177E-05
   maximum displ.:     0.0027723 α      in ANC's #7, #1, #6, ...

........................................................................
.............................. CYCLE   15 ..............................
........................................................................
   1    -13.2060118 -0.132060E+02  0.758E-03    2.30       0.0  T
   2    -13.2060119 -0.418787E-07  0.399E-03    2.30      10.2  T
   3    -13.2060119 -0.365034E-08  0.325E-03    2.30      12.6  T
   4    -13.2060119 -0.199978E-07  0.572E-04    2.30      71.3  T
   5    -13.2060119 -0.553211E-10  0.191E-04    2.30     214.3  T
     SCC iter.                  ...        0 min,  0.000 sec
     gradient                   ...        0 min,  0.001 sec
 * total energy  :   -13.1470709 Eh     change       -0.7122870E-05 Eh
   gradient norm :     0.0048658 Eh/α   predicted    -0.4434285E-05 ( -37.75%)
   displ. norm   :     0.0080515 α      lambda       -0.2026980E-04
   maximum displ.:     0.0072123 α      in ANC's #7, #1, #9, ...

........................................................................
.............................. CYCLE   16 ..............................
........................................................................
   1    -13.2058051 -0.132058E+02  0.157E-02    2.31       0.0  T
   2    -13.2058053 -0.233798E-06  0.784E-03    2.30       5.2  T
   3    -13.2058053  0.115785E-07  0.623E-03    2.30       6.5  T
   4    -13.2058054 -0.731184E-07  0.140E-03    2.30      29.1  T
   5    -13.2058054 -0.365249E-09  0.342E-04    2.30     119.5  T
     SCC iter.                  ...        0 min,  0.000 sec
     gradient                   ...        0 min,  0.001 sec
 * total energy  :   -13.1470866 Eh     change       -0.1563065E-04 Eh
   gradient norm :     0.0108964 Eh/α   predicted    -0.1013759E-04 ( -35.14%)
   displ. norm   :     0.0137820 α      lambda       -0.3237340E-04
   maximum displ.:     0.0129678 α      in ANC's #7, #1, #6, ...

........................................................................
.............................. CYCLE   17 ..............................
........................................................................
   1    -13.2057048 -0.132057E+02  0.259E-02    2.31       0.0  T
   2    -13.2057056 -0.752455E-06  0.126E-02    2.30       3.2  T
   3    -13.2057055  0.362949E-07  0.902E-03    2.30       4.5  T
   4    -13.2057057 -0.110625E-06  0.254E-03    2.30      16.1  T
   5    -13.2057057 -0.132173E-07  0.768E-04    2.30      53.1  T
     SCC iter.                  ...        0 min,  0.000 sec
     gradient                   ...        0 min,  0.001 sec
 * total energy  :   -13.1471108 Eh     change       -0.2418011E-04 Eh
   gradient norm :     0.0169766 Eh/α   predicted    -0.1618906E-04 ( -33.05%)
   displ. norm   :     0.0166638 α      lambda       -0.3637511E-04
   maximum displ.:     0.0156647 α      in ANC's #7, #6, #5, ...

........................................................................
.............................. CYCLE   18 ..............................
........................................................................
   1    -13.2058235 -0.132058E+02  0.310E-02    2.30       0.0  T
   2    -13.2058246 -0.116328E-05  0.152E-02    2.29       2.7  T
   3    -13.2058246  0.148504E-07  0.921E-03    2.30       4.4  T
   4    -13.2058246 -0.226139E-08  0.355E-03    2.29      11.5  T
   5    -13.2058247 -0.658472E-07  0.128E-03    2.30      31.9  T
   6    -13.2058247 -0.460960E-08  0.469E-04    2.30      87.1  T
     SCC iter.                  ...        0 min,  0.000 sec
     gradient                   ...        0 min,  0.001 sec
 * total energy  :   -13.1471359 Eh     change       -0.2509830E-04 Eh
   gradient norm :     0.0158301 Eh/α   predicted    -0.1819203E-04 ( -27.52%)
   displ. norm   :     0.0090059 α      lambda       -0.1892065E-04
   maximum displ.:     0.0077332 α      in ANC's #7, #6, #1, ...

........................................................................
.............................. CYCLE   19 ..............................
........................................................................
   1    -13.2060866 -0.132061E+02  0.172E-02    2.30       0.0  T
   2    -13.2060870 -0.349512E-06  0.902E-03    2.29       4.5  T
   3    -13.2060870 -0.639460E-08  0.454E-03    2.29       9.0  T
   4    -13.2060870 -0.197844E-08  0.124E-03    2.29      32.8  T
   5    -13.2060870 -0.248048E-08  0.856E-04    2.29      47.7  T
     SCC iter.                  ...        0 min,  0.000 sec
     gradient                   ...        0 min,  0.001 sec
 * total energy  :   -13.1471478 Eh     change       -0.1193097E-04 Eh
   gradient norm :     0.0073519 Eh/α   predicted    -0.9459979E-05 ( -20.71%)
   displ. norm   :     0.0020976 α      lambda       -0.3559005E-05
   maximum displ.:     0.0016633 α      in ANC's #1, #6, #2, ...

........................................................................
.............................. CYCLE   20 ..............................
........................................................................
   1    -13.2062231 -0.132062E+02  0.493E-03    2.29       0.0  T
   2    -13.2062231 -0.910970E-08  0.298E-03    2.29      13.7  T
   3    -13.2062231  0.207439E-08  0.198E-03    2.29      20.6  T
     SCC iter.                  ...        0 min,  0.000 sec
     gradient                   ...        0 min,  0.001 sec
 * total energy  :   -13.1471499 Eh     change       -0.2088181E-05 Eh
   gradient norm :     0.0014172 Eh/α   predicted    -0.1780539E-05 ( -14.73%)
   displ. norm   :     0.0016401 α      lambda       -0.2367566E-06
   maximum displ.:     0.0014017 α      in ANC's #7, #1, #9, ...
 * RMSD in coord.:     0.5635210 α      energy gain  -0.2086182E+02 Eh

generating ANC from model Hessian ...
Using Lindh-Hessian (1995)
 Shifting diagonal of input Hessian by   1.186131588625424E-002
 Lowest  eigenvalues of input Hessian
    0.010000    0.010547   -0.000000   -0.000000   -0.000000    0.000000
    0.000000    0.000000    0.029200    0.029298    0.059443    0.169297
    0.169385    0.460296    1.240075    1.241587   20.090814   60.339189
 Highest eigenvalues
    0.169385    0.460296    1.240075    1.241587   20.090814   60.339189
 

........................................................................
.............................. CYCLE   21 ..............................
........................................................................
   1    -13.2062394 -0.132062E+02  0.302E-03    2.29       0.0  T
   2    -13.2062394 -0.802274E-08  0.160E-03    2.29      25.4  T
   3    -13.2062394  0.571294E-09  0.919E-04    2.29      44.4  T
   4    -13.2062394 -0.956653E-09  0.347E-04    2.29     117.7  T
     SCC iter.                  ...        0 min,  0.000 sec
     gradient                   ...        0 min,  0.001 sec
 * total energy  :   -13.1471500 Eh     change       -0.1008882E-06 Eh
   gradient norm :     0.0007713 Eh/α   predicted     0.0000000E+00 (-100.00%)
   displ. norm   :     0.0092759 α      lambda       -0.1590647E-05
   maximum displ.:     0.0079208 α      in ANC's #2, #7, #5, ...

   *** GEOMETRY OPTIMIZATION CONVERGED AFTER 21 ITERATIONS ***

------------------------------------------------------------------------
 total energy gain   :       -20.8618240 Eh   -13090.9922 kcal/mol
 total RMSD          :         0.5635210 a0        0.2982 Å
 total power (kW/mol):     -2608.2243523 (step)********** (real)
------------------------------------------------------------------------

 ANCopt (total)                0 d,  0 h,  0 min,  0.039 sec
 optimizer setup                ...        0 min,  0.000 sec (  0.133%)
 model hessian                  ...        0 min,  0.000 sec (  0.440%)
 ANC generation                 ...        0 min,  0.000 sec (  0.319%)
 coordinate transformation      ...        0 min,  0.000 sec (  0.224%)
 single point calculation       ...        0 min,  0.037 sec ( 94.718%)
 optimization log               ...        0 min,  0.000 sec (  1.153%)
 hessian update                 ...        0 min,  0.000 sec (  0.163%)
 rational function              ...        0 min,  0.001 sec (  1.375%)

================
 final structure:
================
6
 xtb: 6.2.3 (830e466)
F        -2.78207051011158   -0.16549171819462    0.04987220507780
Cl        1.49718903002119    0.08780905512742   -0.02380812164068
C        -0.58172387003362   -0.03354292606958    0.01102607366784
H        -0.74027339532420   -0.61774889702227   -0.87164558089432
H        -0.71511689467529   -0.51911916462544    0.95559441750092
H        -0.82095435987650    1.00801365078449   -0.04233899371156
 
 Bond Distances (Angstroems)
 ---------------------------
Cl2-C3=2.0827        C3-Cl2=2.0827        C3-H4=1.0703         C3-H5=1.0704         C3-H6=1.0700         H4-C3=1.0703         
H5-C3=1.0704         H6-C3=1.0700         
 C  H  Rav=1.0702 sigma=0.0002  Rmin=1.0700  Rmax=1.0704     3
 Cl C  Rav=2.0827 sigma=0.0000  Rmin=2.0827  Rmax=2.0827     1
 
 selected bond angles (degree)
 --------------------
H4-C3-Cl2= 99.55               H5-C3-Cl2= 99.53               H5-C3-H4=117.49                H6-C3-Cl2= 99.53               
H6-C3-H4=117.20                H6-C3-H5=117.24                
 
 selected dihedral angles (degree)
 ---------------------------------

           -------------------------------------------------
          |                Final Singlepoint                |
           -------------------------------------------------

          ...................................................
          :                      SETUP                      :
          :.................................................:
          :  # basis functions                  21          :
          :  # atomic orbitals                  20          :
          :  # shells                           10          :
          :  # electrons                        22          :
          :  max. iterations                   250          :
          :  Hamiltonian                  GFN2-xTB          :
          :  restarted?                      false          :
          :  GBSA solvation                  false          :
          :  PC potential                    false          :
          :  electronic temp.          300.0000000     K    :
          :  accuracy                    1.0000000          :
          :  -> integral cutoff          0.2500000E+02      :
          :  -> integral neglect         0.1000000E-07      :
          :  -> SCF convergence          0.1000000E-05 Eh   :
          :  -> wf. convergence          0.1000000E-03 e    :
          :  Broyden damping             0.4000000          :
          ...................................................

 iter      E             dE          RMSdq      gap      omega  full diag
   1    -13.2062394 -0.132062E+02  0.127E-04    2.29       0.0  T
   2    -13.2062394 -0.797407E-11  0.992E-05    2.29     411.6  T
   3    -13.2062394 -0.434497E-11  0.710E-05    2.29     574.6  T

   *** convergence criteria satisfied after 3 iterations ***

         #    Occupation            Energy/Eh            Energy/eV
      -------------------------------------------------------------
         1        2.0000           -0.8747824             -23.8040
       ...           ...                  ...                  ...
         5        2.0000           -0.3270191              -8.8986
         6        2.0000           -0.2889204              -7.8619
         7        2.0000           -0.2456928              -6.6856
         8        2.0000           -0.2456802              -6.6853
         9        2.0000           -0.1581690              -4.3040
        10        2.0000           -0.1526678              -4.1543
        11        2.0000           -0.1526675              -4.1543 (HOMO)
        12                         -0.0684284              -1.8620 (LUMO)
        13                          0.2208779               6.0104
        14                          0.2208803               6.0105
        15                          0.2215726               6.0293
        16                          0.2215737               6.0293
       ...                                ...                  ...
        20                          0.4342318              11.8160
      -------------------------------------------------------------
                  HL-Gap            0.0842391 Eh            2.2923 eV
             Fermi-level           -0.1105480 Eh           -3.0082 eV

 SCC (total)                   0 d,  0 h,  0 min,  0.002 sec
 SCC setup                      ...        0 min,  0.000 sec (  2.766%)
 Dispersion                     ...        0 min,  0.000 sec (  0.414%)
 integral evaluation            ...        0 min,  0.001 sec ( 36.603%)
 zeroth order Hamiltonian       ...        0 min,  0.000 sec (  0.727%)
 iterations                     ...        0 min,  0.000 sec ( 16.027%)
 molecular gradient             ...        0 min,  0.001 sec ( 38.571%)
 printout                       ...        0 min,  0.000 sec (  2.752%)

         :::::::::::::::::::::::::::::::::::::::::::::::::::::
         ::                     SUMMARY                     ::
         :::::::::::::::::::::::::::::::::::::::::::::::::::::
         :: total energy             -13.147149983482 Eh    ::
         :: gradient norm              0.000773061523 Eh/a0 ::
         :: HOMO-LUMO gap              2.292262094144 eV    ::
         ::.................................................::
         :: SCC energy               -13.206239424810 Eh    ::
         :: -> isotropic ES            0.196093481517 Eh    ::
         :: -> anisotropic ES          0.000447274603 Eh    ::
         :: -> anisotropic XC          0.003641342912 Eh    ::
         :: -> dispersion             -0.002026462949 Eh    ::
         :: repulsion energy           0.059082669669 Eh    ::
         :: add. restraining           0.000006943475 Eh    ::
         :::::::::::::::::::::::::::::::::::::::::::::::::::::

           -------------------------------------------------
          |                Property Printout                |
           -------------------------------------------------

    * Orbital Energies and Occupations

         #    Occupation            Energy/Eh            Energy/eV
      -------------------------------------------------------------
         1        2.0000           -0.8747824             -23.8040
         2        2.0000           -0.4359009             -11.8615
         3        2.0000           -0.4174236             -11.3587
         4        2.0000           -0.3272127              -8.9039
         5        2.0000           -0.3270191              -8.8986
         6        2.0000           -0.2889204              -7.8619
         7        2.0000           -0.2456928              -6.6856
         8        2.0000           -0.2456802              -6.6853
         9        2.0000           -0.1581690              -4.3040
        10        2.0000           -0.1526678              -4.1543
        11        2.0000           -0.1526675              -4.1543 (HOMO)
        12                         -0.0684284              -1.8620 (LUMO)
        13                          0.2208779               6.0104
        14                          0.2208803               6.0105
        15                          0.2215726               6.0293
        16                          0.2215737               6.0293
        17                          0.2386021               6.4927
        18                          0.3051043               8.3023
        19                          0.4329356              11.7808
        20                          0.4342318              11.8160
      -------------------------------------------------------------
                  HL-Gap            0.0842391 Eh            2.2923 eV
             Fermi-level           -0.1105480 Eh           -3.0082 eV

     #   Z        covCN         q      C6AA      α(0)
     1   9 F      0.017    -0.736    19.106     5.091
     2  17 Cl     0.770    -0.511   115.949    16.472
     3   6 C      3.566     0.011    21.226     6.709
     4   1 H      0.927     0.079     1.993     2.207
     5   1 H      0.926     0.079     1.991     2.207
     6   1 H      0.927     0.078     1.996     2.209

 Mol. C6AA /au·bohr⁶  :        568.561854
 Mol. C8AA /au·bohr⁸  :      16014.868906
 Mol. α(0) /au        :         34.895170


Wiberg/Mayer (AO) data.
largest (>0.10) Wiberg bond orders for each atom
          total WBO             WBO to atom ...
     1  F   0.458        C    3 0.324    Cl   2 0.134
     2  Cl  0.753        C    3 0.614    F    1 0.134
     3  C   3.914        H    6 0.992    H    4 0.992    H    5 0.992    Cl   2 0.614    F    1 0.324
     4  H   0.994        C    3 0.992
     5  H   0.994        C    3 0.992
     6  H   0.994        C    3 0.992

molecular dipole:
                 x           y           z       tot (Debye)
 q only:        2.075       0.125      -0.040
   full:        1.893       0.115      -0.037       4.820
molecular quadrupole (traceless):
                xx          xy          yy          xz          yz          zz
 q only:      -24.357      -2.172      12.117       0.642       0.038      12.240
  q+dip:      -26.703      -2.381      13.278       0.702       0.041      13.425
   full:      -25.710      -2.294      12.787       0.677       0.040      12.923

           -------------------------------------------------
          |                Geometry Summary                 |
           -------------------------------------------------

      molecular mass/u    :       69.4858989
   center of mass at/Å    :       -0.1303358      -0.0081130       0.0039979
  moments of inertia/u·Å² :        0.3368505E+01   0.2336985E+03   0.2337059E+03
rotational constants/cm⁻¹ :        0.5004485E+01   0.7213410E-01   0.7213183E-01

 * 3 selected distances

     #   Z        #   Z                                     value/Å
     3   6 C      4   1 H                                 1.0703008
     3   6 C      5   1 H                                 1.0704146 (max)
     3   6 C      6   1 H                                 1.0700090 (min)

 * 1 distinct bonds (by element types)

   Z      Z             #   av. dist./Å        max./Å        min./Å
   1 H    6 C           3     1.0702414     1.0704146     1.0700090


optimized geometry written to: xtbopt.xyz


           -------------------------------------------------
          | TOTAL ENERGY              -13.147149983482 Eh   |
          | GRADIENT NORM               0.000773061523 Eh/α |
          | HOMO-LUMO GAP               2.292262094144 eV   |
           -------------------------------------------------

------------------------------------------------------------------------
 * finished run on 2020/04/08 at 23:04:48.173     
------------------------------------------------------------------------
 total:
 * wall-time:     0 d,  0 h,  0 min,  0.050 sec
 *  cpu-time:     0 d,  0 h,  0 min,  0.050 sec
 * ratio c/w:     0.999 speedup
 SCF:
 * wall-time:     0 d,  0 h,  0 min,  0.003 sec
 *  cpu-time:     0 d,  0 h,  0 min,  0.003 sec
 * ratio c/w:     1.000 speedup
 ANC optimizer:
 * wall-time:     0 d,  0 h,  0 min,  0.041 sec
 *  cpu-time:     0 d,  0 h,  0 min,  0.041 sec
 * ratio c/w:     1.000 speedup

