      -----------------------------------------------------------      
     |                   =====================                   |     
     |                           x T B                           |     
     |                   =====================                   |     
     |                         S. Grimme                         |     
     |          Mulliken Center for Theoretical Chemistry        |     
     |                    University of Bonn                     |     
      -----------------------------------------------------------      

   * xtb version 6.2.3 (830e466) compiled by 'ehlert@majestix' on 2020-03-16

   xtb is free software: you can redistribute it and/or modify it under
   the terms of the GNU Lesser General Public License as published by
   the Free Software Foundation, either version 3 of the License, or
   (at your option) any later version.
   
   xtb is distributed in the hope that it will be useful,
   but WITHOUT ANY WARRANTY; without even the implied warranty of
   MERCHANTABILITY or FITNESS FOR A PARTICULAR PURPOSE.  See the
   GNU Lesser General Public License for more details.
   
   Cite this work as:
   * S. Grimme, C. Bannwarth, P. Shushkov, J. Chem. Theory Comput., 2017,
     13, 1989-2009. DOI: 10.1021/acs.jctc.7b00118
   * C. Bannwarth, S. Ehlert and S. Grimme., J. Chem. Theory Comput., 2019,
     15, 1652-1671. DOI: 10.1021/acs.jctc.8b01176
   * P. Pracht, E. Caldeweyher, S. Ehlert, S. Grimme, ChemRxiv, 2019, preprint.
     DOI: 10.26434/chemrxiv.8326202.v1
   
   for DFT-D4:
   * E. Caldeweyher, C. Bannwarth and S. Grimme, J. Chem. Phys., 2017,
     147, 034112. DOI: 10.1063/1.4993215
   * E. Caldeweyher, S. Ehlert, A. Hansen, H. Neugebauer, S. Spicher,
     C. Bannwarth and S. Grimme, J. Chem. Phys., 2019, 150, 154122.
     DOI: 10.1063/1.5090222
   
   for sTDA-xTB:
   * S. Grimme and C. Bannwarth, J. Chem. Phys., 2016, 145, 054103.
     DOI: 10.1063/1.4959605
   
   in the mass-spec context:
   * V. Asgeirsson, C. Bauer and S. Grimme, Chem. Sci., 2017, 8, 4879.
     DOI: 10.1039/c7sc00601b
   
   for metadynamics refer to:
   * S. Grimme, J. Chem. Theory Comput., 2019, 155, 2847-2862
     DOI: 10.1021/acs.jctc.9b00143
   
   with help from (in alphabetical order)
   C. Bannwarth, F. Bohle, G. Brandenburg, E. Caldeweyher, M. Checinski,
   S. Dohm, S. Ehlert, S. Ehrlich, F. März, H. Neugebauer, J. Pisarek,
   P. Pracht, P. Shushkov, and S. Spicher.
   
 * started run on 2020/04/08 at 23:03:29.861     

           -------------------------------------------------
          |                Calculation Setup                |
           -------------------------------------------------

          program call               : /home/tom/.local/bin/xtb SN2_PES_scan_0-0_xtb.xyz --chrg -1 --opt --input xcontrol_SN2_PES_scan_0-0
          coordinate file            : SN2_PES_scan_0-0_xtb.xyz
          omp threads                :                     1
          number of atoms            :                     6
          number of electrons        :                    22
          charge                     :                    -1
          spin                       :                   0.0
          first test random number   :      0.69762428351588

constraining bond 1 3 to    4.0000000 Å, actual value:    4.0051484 Å
constraining bond 2 3 to    1.7800000 Å, actual value:    1.7832201 Å

molecular fragmentation (1/2 indicates fragments):
122222
# atoms in fragment 1/2:     1     5
 fragment masses (1/2) :       19.00       50.49
CMA distance (Bohr)    :   9.895
constraining FC (au)   : 10.0000
########################################################################
[WARNING] Please study the warnings concerning your input carefully
-2- prog_main: XTBPATH is not set, using XTBHOME instead
-1- prog_main: XTBHOME is not set, using HOME instead
########################################################################
           ------------------------------------------------- 
          |                 G F N 2 - x T B                 |
          | Geometry, Frequencies, Noncovalent interactions |
          |            JCTC 2019 parametrisation            |
           ------------------------------------------------- 
             k(s)              :                1.8500
             k(p)              :                2.2300
             k(d)              :                2.2300
             k(f)              :                2.0000
             kEN (H0ij)        :               -2.0000
             D4 a1             :                0.5200
             D4 a2             :                5.0000
             D4 s6             :                1.0000
             D4 s8             :                2.7000
             D4 s9             :                5.0000
             alphaj            :                2.0000

  Z AO/shell   Hii/eV     exponent
  1     Wed Apr 25 08:07:45 CEST 2018   EN: 2.200 GM2: 0.406  GM3: 0.0800  RAES: 1.40
     1s    -10.707211    1.230000
  6     Wed Apr 25 08:07:45 CEST 2018   EN: 2.550 GM2: 0.538  GM3: 0.1500  RAES: 3.00
     2s    -13.970922    2.096432
     2p    -10.063292    1.800000
  9     Mon Apr 23 13:58:50 CEST 2018   EN: 3.980 GM2: 0.532  GM3: 0.1426  RAES: 2.40
     2s    -23.458179    2.416361
     2p    -15.746583    2.308399
 17     Mon Apr 23 14:09:22 CEST 2018   EN: 3.160 GM2: 0.249  GM3: 0.1495  RAES: 2.50
     3s    -29.278781    2.485265
     3p    -12.673758    2.199650
     3d     -0.240338    2.476089

           ------------------------------------------------- 
          |        Self-Consistent Charge Iterations        |
           ------------------------------------------------- 

          ...................................................
          :                      SETUP                      :
          :.................................................:
          :  # basis functions                  21          :
          :  # atomic orbitals                  20          :
          :  # shells                           10          :
          :  # electrons                        22          :
          :  max. iterations                   250          :
          :  Hamiltonian                  GFN2-xTB          :
          :  restarted?                      false          :
          :  GBSA solvation                  false          :
          :  PC potential                    false          :
          :  electronic temp.          300.0000000     K    :
          :  accuracy                    1.0000000          :
          :  -> integral cutoff          0.2500000E+02      :
          :  -> integral neglect         0.1000000E-07      :
          :  -> SCF convergence          0.1000000E-05 Eh   :
          :  -> wf. convergence          0.1000000E-03 e    :
          :  Broyden damping             0.4000000          :
          ...................................................

 iter      E             dE          RMSdq      gap      omega  full diag
   1    -13.1141579 -0.131142E+02  0.572E+00    5.33       0.0  T
   2    -13.1807833 -0.666254E-01  0.327E+00    2.07       1.0  T
   3    -13.1821247 -0.134143E-02  0.177E+00    1.08       1.0  T
   4    -11.8336395  0.134849E+01  0.999E+00    0.00       1.0  T
   5    -11.8305487  0.309080E-02  0.101E+01    0.00       1.0  T
   6    -11.8343587 -0.381003E-02  0.995E+00    0.00       1.0  T
   7    -11.8277880  0.657070E-02  0.101E+01    0.00       1.0  T
   8    -11.8277405  0.475310E-04  0.102E+01    0.00       1.0  T
   9    -11.8061215  0.216190E-01  0.108E+01    0.00       1.0  T
  10      2.8334341  0.146396E+02  0.327E+01    0.13       1.0  T
  11    -11.7865165 -0.146200E+02  0.113E+01    0.01       1.0  T
  12      2.8544375  0.146410E+02  0.328E+01    0.14       1.0  T
  13      2.8803290  0.258915E-01  0.330E+01    0.14       1.0  T
  14    -11.7966608 -0.146770E+02  0.110E+01    0.00       1.0  T
  15    -11.7980567 -0.139596E-02  0.110E+01    0.01       1.0  T
  16    -13.1801784 -0.138212E+01  0.929E-01    0.68       1.0  T
  17      2.8154278  0.159956E+02  0.324E+01    0.16       1.0  T
  18    -13.1708562 -0.159863E+02  0.279E+00    5.25       1.0  T
  19      2.8935631  0.160644E+02  0.327E+01    0.16       1.0  T
  20    -13.1698274 -0.160634E+02  0.523E+00    6.17       1.0  T
  21    -13.1759175 -0.609009E-02  0.113E+01    6.18       1.0  T
  22    -13.1634749  0.124426E-01  0.145E+01    6.19       1.0  T
  23    -13.1718697 -0.839471E-02  0.130E+01    6.30       1.0  T
  24    -13.1774330 -0.556337E-02  0.115E+01    5.32       1.0  T
  25    -13.1755884  0.184465E-02  0.929E+00    1.22       1.0  T
  26    -12.1591645  0.101642E+01  0.995E+00    0.10       1.0  T
  27    -13.1678314 -0.100867E+01  0.101E+01    2.00       1.0  T
  28    -13.1663413  0.149008E-02  0.105E+01    0.78       1.0  T
  29    -13.1657964  0.544941E-03  0.106E+01    0.82       1.0  T
  30    -13.1800825 -0.142862E-01  0.665E+00    3.40       1.0  T
  31    -13.1795223  0.560224E-03  0.313E+00    3.55       1.0  T
  32    -13.1766085  0.291382E-02  0.294E+00    4.37       1.0  T
  33    -13.1763499  0.258553E-03  0.298E+00    4.45       1.0  T
  34    -13.1769577 -0.607775E-03  0.286E+00    4.23       1.0  T
  35    -13.1754263  0.153146E-02  0.302E+00    4.79       1.0  T
  36    -13.1783633 -0.293707E-02  0.208E+00    3.51       1.0  T
  37    -13.1816858 -0.332245E-02  0.896E-01    1.30       1.0  T
  38    -13.1827677 -0.108196E-02  0.275E-01    0.30       1.0  T
  39    -12.4916687  0.691099E+00  0.711E+00    0.00       1.0  T
  40    -13.1534060 -0.661737E+00  0.323E+00    6.95       1.0  T
  41    -13.1792754 -0.258694E-01  0.152E+00    2.89       1.0  T
  42    -13.1819809 -0.270551E-02  0.750E-01    0.82       1.0  T
  43    -13.1834004 -0.141953E-02  0.152E-01    0.21       1.0  T
  44    -13.1824249  0.975578E-03  0.324E-01    0.37       1.0  T
  45    -13.0232405  0.159184E+00  0.350E+00    0.06       1.0  T
  46    -13.1767733 -0.153533E+00  0.147E+00    3.23       1.0  T
  47    -13.1817018 -0.492854E-02  0.641E-01    1.03       1.0  T
  48    -13.1824965 -0.794649E-03  0.316E-01    0.35       1.0  T
  49    -13.1825086 -0.120902E-04  0.272E-01    0.18       1.0  T
  50    -13.1822177  0.290891E-03  0.396E-01    0.56       1.0  T
  51    -13.1820838  0.133918E-03  0.332E-01    0.17       1.0  T
  52    -13.1822300 -0.146287E-03  0.391E-01    0.56       1.0  T
  53    -13.1824944 -0.264334E-03  0.277E-01    0.18       1.0  T
  54    -13.1822906  0.203797E-03  0.363E-01    0.49       1.0  T
  55    -13.1821045  0.186062E-03  0.330E-01    0.17       1.0  T
  56    -13.1822813 -0.176748E-03  0.367E-01    0.50       1.0  T
  57    -13.1829473 -0.666023E-03  0.199E-01    0.19       1.0  T
  58    -13.1823932  0.554074E-03  0.325E-01    0.40       1.0  T
  59    -13.1821771  0.216160E-03  0.322E-01    0.17       1.0  T
  60    -13.1823229 -0.145864E-03  0.349E-01    0.45       1.0  T
  61    -13.1831601 -0.837214E-03  0.148E-01    0.19       1.0  T
  62    -13.1825034  0.656746E-03  0.297E-01    0.36       1.0  T
  63    -13.1825647 -0.612802E-04  0.268E-01    0.18       1.0  T
  64    -13.1823981  0.166593E-03  0.324E-01    0.40       1.0  T
  65    -13.1830947 -0.696650E-03  0.166E-01    0.19       1.0  T
  66    -13.1825303  0.564408E-03  0.291E-01    0.35       1.0  T
  67    -13.1829492 -0.418863E-03  0.200E-01    0.19       1.0  T
  68    -13.1825129  0.436259E-03  0.295E-01    0.35       1.0  T
  69    -13.1830665 -0.553547E-03  0.173E-01    0.19       1.0  T
  70    -13.1825738  0.492723E-03  0.281E-01    0.33       1.0  T
  71    -13.1831118 -0.538087E-03  0.161E-01    0.19       1.0  T
  72    -13.1826205  0.491364E-03  0.271E-01    0.32       1.0  T
  73    -13.1831528 -0.532276E-03  0.150E-01    0.19       1.0  T
  74    -13.1826685  0.484243E-03  0.261E-01    0.31       1.0  T
  75    -13.1831934 -0.524881E-03  0.138E-01    0.19       1.0  T
  76    -13.1827202  0.473189E-03  0.250E-01    0.30       1.0  T
  77    -13.1832306 -0.510362E-03  0.126E-01    0.19       1.0  T
  78    -13.1827740  0.456542E-03  0.239E-01    0.30       1.0  T
  79    -13.1832642 -0.490189E-03  0.114E-01    0.20       1.0  T
  80    -13.1828293  0.434879E-03  0.227E-01    0.29       1.0  T
  81    -13.1832946 -0.465274E-03  0.102E-01    0.20       1.0  T
  82    -13.1828858  0.408854E-03  0.215E-01    0.28       1.0  T
  83    -13.1833217 -0.435996E-03  0.897E-02    0.20       1.0  T
  84    -13.1829428  0.378997E-03  0.202E-01    0.27       1.0  T
  85    -13.1833455 -0.402733E-03  0.773E-02    0.20       1.0  T
  86    -13.1829996  0.345873E-03  0.189E-01    0.27       1.0  T
  87    -13.1833656 -0.365980E-03  0.647E-02    0.20       1.0  T
  88    -13.1830554  0.310147E-03  0.175E-01    0.26       1.0  T
  89    -13.1833818 -0.326390E-03  0.523E-02    0.21       1.0  T
  90    -13.1831092  0.272629E-03  0.160E-01    0.26       1.0  T
  91    -13.1833940 -0.284824E-03  0.402E-02    0.21       1.0  T
  92    -13.1831598  0.234238E-03  0.146E-01    0.25       1.0  T
  93    -13.1834022 -0.242392E-03  0.290E-02    0.21       1.4  T
  94    -13.1832072  0.195010E-03  0.131E-01    0.25       1.0  T
  95    -13.1834068 -0.199597E-03  0.190E-02    0.21       2.1  T
  96    -13.1832546  0.152210E-03  0.114E-01    0.24       1.0  T
  97    -13.1834050 -0.150439E-03  0.202E-02    0.22       2.0  T
  98    -13.1833007  0.104326E-03  0.950E-02    0.23       1.0  T
  99    -13.1833969 -0.962266E-04  0.318E-02    0.22       1.3  T
 100    -13.1833339  0.630141E-04  0.788E-02    0.23       1.0  T
 101    -13.1833891 -0.551786E-04  0.403E-02    0.22       1.0  T
 102    -13.1833532  0.358208E-04  0.677E-02    0.23       1.0  T
 103    -13.1833839 -0.306575E-04  0.452E-02    0.22       1.0  T
 104    -13.1833644  0.194530E-04  0.604E-02    0.23       1.0  T
 105    -13.1833813 -0.168595E-04  0.474E-02    0.22       1.0  T
 106    -13.1833713  0.999024E-05  0.554E-02    0.22       1.0  T
 107    -13.1833806 -0.931798E-05  0.479E-02    0.22       1.0  T
 108    -13.1833759  0.474754E-05  0.518E-02    0.22       1.0  T
 109    -13.1833813 -0.544303E-05  0.473E-02    0.22       1.0  T
 110    -13.1833794  0.195352E-05  0.489E-02    0.22       1.0  T
 111    -13.1833836 -0.424079E-05  0.452E-02    0.22       1.0  T
 112    -13.1833832  0.441441E-06  0.455E-02    0.22       1.0  T
 113    -13.1833946 -0.113892E-04  0.336E-02    0.22       1.2  T
 114    -13.1833953 -0.738055E-06  0.325E-02    0.22       1.3  T
 115    -13.1834067 -0.113731E-04  0.107E-02    0.21       3.8  T
 116    -13.1834059  0.747896E-06  0.130E-02    0.22       3.1  T
 117    -13.1834079 -0.195111E-05  0.297E-03    0.21      13.8  T
 118    -13.1834079  0.761217E-08  0.279E-03    0.21      14.7  T
 119    -13.1834080 -0.919467E-07  0.355E-04    0.21     115.1  T
 120    -13.1834080 -0.126573E-08  0.112E-04    0.21     363.7  T

   *** convergence criteria satisfied after 120 iterations ***

         #    Occupation            Energy/Eh            Energy/eV
      -------------------------------------------------------------
         1        2.0000           -0.9491905             -25.8288
       ...           ...                  ...                  ...
         5        2.0000           -0.3880452             -10.5592
         6        2.0000           -0.3244094              -8.8276
         7        2.0000           -0.3088806              -8.4051
         8        2.0000           -0.3088480              -8.4042
         9        1.9853           -0.0628822              -1.7111
        10        1.9807           -0.0626204              -1.7040
        11        1.9807           -0.0626202              -1.7040 (HOMO)
        12        0.0532           -0.0547987              -1.4911 (LUMO)
        13                          0.1289239               3.5082
        14                          0.1289513               3.5089
        15                          0.1338376               3.6419
        16                          0.1338407               3.6420
       ...                                ...                  ...
        20                          0.3111280               8.4662
      -------------------------------------------------------------
                  HL-Gap            0.0078215 Eh            0.2128 eV
             Fermi-level           -0.0582189 Eh           -1.5842 eV

 SCC (total)                   0 d,  0 h,  0 min,  0.031 sec
 SCC setup                      ...        0 min,  0.001 sec (  1.963%)
 Dispersion                     ...        0 min,  0.000 sec (  0.923%)
 integral evaluation            ...        0 min,  0.002 sec (  7.248%)
 zeroth order Hamiltonian       ...        0 min,  0.000 sec (  0.067%)
 iterations                     ...        0 min,  0.027 sec ( 86.248%)
 molecular gradient             ...        0 min,  0.001 sec (  3.182%)
 printout                       ...        0 min,  0.000 sec (  0.248%)

         :::::::::::::::::::::::::::::::::::::::::::::::::::::
         ::                     SUMMARY                     ::
         :::::::::::::::::::::::::::::::::::::::::::::::::::::
         :: total energy             -13.130025810273 Eh    ::
         :: gradient norm              0.245001106701 Eh/a0 ::
         :: HOMO-LUMO gap              0.212834037234 eV    ::
         ::.................................................::
         :: SCC energy               -13.183407967226 Eh    ::
         :: -> isotropic ES            0.261812640168 Eh    ::
         :: -> anisotropic ES         -0.000678179421 Eh    ::
         :: -> anisotropic XC          0.001021243755 Eh    ::
         :: -> dispersion             -0.001619974476 Eh    ::
         :: repulsion energy           0.052067060476 Eh    ::
         :: add. restraining           0.001316840354 Eh    ::
         :::::::::::::::::::::::::::::::::::::::::::::::::::::

      ----------------------------------------------------------- 
     |                   =====================                   |
     |                        A N C O P T                        |
     |                   =====================                   |
     |               Approximate Normal Coordinate               |
     |                Rational Function Optimizer                |
      ----------------------------------------------------------- 

          ...................................................
          :                      SETUP                      :
          :.................................................:
          :   optimization level            normal          :
          :   max. optcycles                   200          :
          :   ANC micro-cycles                  20          :
          :   degrees of freedom                12          :
          :.................................................:
          :   RF solver                   davidson          :
          :   write xtbopt.log                true          :
          :   linear?                        false          :
          :   energy convergence         0.5000000E-05 Eh   :
          :   grad. convergence          0.1000000E-02 Eh/α :
          :   maximium RF displ.         1.0000000          :
          :   Hlow (freq-cutoff)         0.1000000E-01      :
          :   Hmax (freq-cutoff)         5.0000000          :
          :   S6 in model hess.         20.0000000          :
          ...................................................

generating ANC from model Hessian ...
Using Lindh-Hessian (1995)
 Shifting diagonal of input Hessian by   0.000000000000000E+000
 Lowest  eigenvalues of input Hessian
   -0.000000   -0.000000    0.000000    0.000000    0.000000    0.000000
    0.018883    0.018889    0.088464    0.088507    0.112172    0.126670
    0.126798    0.457773    1.112842    1.114195   20.207405   60.842995
 Highest eigenvalues
    0.126798    0.457773    1.112842    1.114195   20.207405   60.842995
 

........................................................................
.............................. CYCLE    1 ..............................
........................................................................
   1    -13.1834080 -0.131834E+02  0.989E-05    0.21       0.0  T
   2    -13.1834080  0.460183E-08  0.627E-04    0.21      65.1  T
   3    -13.1834080 -0.472024E-08  0.850E-06    0.21    4800.2  T
     SCC iter.                  ...        0 min,  0.000 sec
     gradient                   ...        0 min,  0.001 sec
 * total energy  :   -13.1300258 Eh     change       -0.2215204E-08 Eh
   gradient norm :     0.2450020 Eh/α   predicted     0.0000000E+00 (-100.00%)
   displ. norm   :     0.0570307 α      lambda       -0.1231252E-01
   maximum displ.:     0.0445690 α      in ANC's #12, #8, #11, ...

........................................................................
.............................. CYCLE    2 ..............................
........................................................................
   1    -13.1881303 -0.131881E+02  0.162E-01    0.27       0.0  T
   2    -12.9233684  0.264762E+00  0.448E+00    0.04       1.0  T
   3    -13.1882862 -0.264918E+00  0.112E-01    0.25       1.0  T
   4    -13.1883910 -0.104746E-03  0.610E-02    0.23       1.0  T
   5    -13.1884171 -0.261311E-04  0.421E-02    0.21       1.0  T
   6    -13.1884152  0.194361E-05  0.438E-02    0.21       1.0  T
   7    -13.1884163 -0.113388E-05  0.422E-02    0.21       1.0  T
   8    -13.1884300 -0.137482E-04  0.238E-02    0.21       1.7  T
   9    -13.1884356 -0.555609E-05  0.982E-03    0.21       4.2  T
  10    -13.1884366 -0.106118E-05  0.256E-03    0.22      16.0  T
  11    -13.1884367 -0.579307E-07  0.126E-03    0.22      32.3  T
     SCC iter.                  ...        0 min,  0.001 sec
     gradient                   ...        0 min,  0.001 sec
 * total energy  :   -13.1101125 Eh     change        0.1991333E-01 Eh
   gradient norm :     1.2997186 Eh/α   predicted    -0.6176282E-02 (-131.02%)
   displ. norm   :     0.0384650 α      lambda       -0.4637330E-01
   maximum displ.:     0.0353503 α      in ANC's #11, #8, #12, ...

........................................................................
.............................. CYCLE    3 ..............................
........................................................................
   1    -13.1875419 -0.131875E+02  0.243E-01    0.42       0.0  T
   2    -13.0782520  0.109290E+00  0.294E+00    0.07       1.0  T
   3    -13.1876270 -0.109375E+00  0.213E-01    0.36       1.0  T
   4    -13.1878122 -0.185244E-03  0.160E-01    0.30       1.0  T
   5    -13.1880646 -0.252342E-03  0.711E-02    0.21       1.0  T
   6    -13.1880110  0.535433E-04  0.969E-02    0.21       1.0  T
   7    -13.1880669 -0.558785E-04  0.660E-02    0.21       1.0  T
   8    -13.1881135 -0.466138E-04  0.138E-02    0.23       3.0  T
   9    -13.1881151 -0.157101E-05  0.734E-03    0.23       5.6  T
  10    -13.1881157 -0.611915E-06  0.253E-04    0.23     161.4  T
  11    -13.1881157 -0.412765E-09  0.167E-04    0.23     245.1  T
     SCC iter.                  ...        0 min,  0.001 sec
     gradient                   ...        0 min,  0.001 sec
 * total energy  :   -13.1175833 Eh     change       -0.7470768E-02 Eh
   gradient norm :     1.1210002 Eh/α   predicted    -0.2322096E-01 ( 210.82%)
   displ. norm   :     0.1424685 α      lambda       -0.9246755E-01
   maximum displ.:     0.1376556 α      in ANC's #12, #11, #8, ...

........................................................................
.............................. CYCLE    4 ..............................
........................................................................
   1    -11.8784886 -0.118785E+02  0.956E+00    0.00       0.0  T
   2    -13.0385909 -0.116010E+01  0.592E+00    7.23       1.0  T
   3    -13.1658256 -0.127235E+00  0.313E+00    6.35       1.0  T
   4    -13.1732223 -0.739669E-02  0.234E+00    6.31       1.0  T
   5    -13.1784221 -0.519980E-02  0.156E+00    3.71       1.0  T
   6    -13.1798325 -0.141040E-02  0.127E+00    2.73       1.0  T
   7    -13.1804315 -0.598954E-03  0.112E+00    2.25       1.0  T
   8    -13.1827730 -0.234150E-02  0.457E-01    0.34       1.0  T
   9    -11.8798626  0.130291E+01  0.955E+00    0.00       1.0  T
  10    -13.1796054 -0.129974E+01  0.129E+00    2.81       1.0  T
  11    -13.1803072 -0.701751E-03  0.116E+00    2.42       1.0  T
  12    -13.1809716 -0.664403E-03  0.100E+00    1.92       1.0  T
  13    -13.1817351 -0.763502E-03  0.784E-01    1.27       1.0  T
  14    -13.1826105 -0.875386E-03  0.475E-01    0.39       1.0  T
  15    -13.1702661  0.123443E-01  0.107E+00    0.12       1.0  T
  16    -13.1819017 -0.116356E-01  0.728E-01    1.11       1.0  T
  17    -13.1834084 -0.150664E-02  0.368E-01    0.28       1.0  T
  18    -13.1831126  0.295814E-03  0.405E-01    0.30       1.0  T
  19    -11.8871909  0.129592E+01  0.951E+00    0.00       1.0  T
  20    -13.1633997 -0.127621E+01  0.312E+00    6.19       1.0  T
  21    -13.1644645 -0.106481E-02  0.306E+00    6.20       1.0  T
  22    -13.1748149 -0.103504E-01  0.206E+00    5.23       1.0  T
  23    -13.1799541 -0.513919E-02  0.125E+00    2.69       1.0  T
  24    -13.1816360 -0.168183E-02  0.820E-01    1.38       1.0  T
  25    -13.1827620 -0.112599E-02  0.451E-01    0.35       1.0  T
  26    -11.8784333  0.130433E+01  0.958E+00    0.00       1.0  T
  27    -13.1313239 -0.125289E+01  0.504E+00    6.03       1.0  T
  28    -13.1738656 -0.425417E-01  0.222E+00    5.82       1.0  T
  29    -13.1794575 -0.559188E-02  0.137E+00    3.07       1.0  T
  30    -13.1816958 -0.223839E-02  0.808E-01    1.36       1.0  T
  31    -13.1221067  0.595891E-01  0.219E+00    0.09       1.0  T
  32    -13.1788289 -0.567222E-01  0.145E+00    3.30       1.0  T
  33    -13.1817431 -0.291419E-02  0.783E-01    1.27       1.0  T
  34    -12.9230440  0.258699E+00  0.440E+00    0.04       1.0  T
  35    -13.1693044 -0.246260E+00  0.263E+00    6.24       1.0  T
  36    -13.1797847 -0.104802E-01  0.128E+00    2.78       1.0  T
  37    -13.1821681 -0.238347E-02  0.628E-01    0.81       1.0  T
  38    -11.8801964  0.130197E+01  0.955E+00    0.00       1.0  T
  39    -13.1191758 -0.123898E+01  0.561E+00    5.98       1.0  T
  40    -13.1718370 -0.526612E-01  0.246E+00    6.25       1.0  T
  41    -13.1802341 -0.839710E-02  0.121E+00    2.59       1.0  T
  42    -13.1822855 -0.205138E-02  0.586E-01    0.70       1.0  T
  43    -11.8780843  0.130420E+01  0.958E+00    0.00       1.0  T
  44    -13.1161507 -0.123807E+01  0.575E+00    5.97       1.0  T
  45    -13.1718546 -0.557039E-01  0.245E+00    6.25       1.0  T
  46    -13.1805804 -0.872579E-02  0.113E+00    2.35       1.0  T
  47    -13.1824942 -0.191384E-02  0.502E-01    0.46       1.0  T
  48    -11.8764150  0.130608E+01  0.963E+00    0.00       1.0  T
  49    -13.1154241 -0.123901E+01  0.578E+00    5.97       1.0  T
  50    -13.1717442 -0.563201E-01  0.247E+00    6.25       1.0  T
  51    -13.1807594 -0.901521E-02  0.108E+00    2.21       1.0  T
  52    -13.1829297 -0.217032E-02  0.427E-01    0.32       1.0  T
  53    -11.8762241  0.130671E+01  0.964E+00    0.00       1.0  T
  54    -13.1133117 -0.123709E+01  0.588E+00    5.96       1.0  T
  55    -13.1718205 -0.585088E-01  0.246E+00    6.25       1.0  T
  56    -13.1809333 -0.911285E-02  0.104E+00    2.07       1.0  T
  57    -13.1846005 -0.366724E-02  0.178E-01    0.22       1.0  T
  58    -11.9099374  0.127466E+01  0.941E+00    0.00       1.0  T
  59    -13.1112308 -0.120129E+01  0.597E+00    5.95       1.0  T
  60    -13.1723575 -0.611266E-01  0.239E+00    6.26       1.0  T
  61    -13.1810983 -0.874078E-02  0.990E-01    1.92       1.0  T
  62    -13.1838747 -0.277647E-02  0.298E-01    0.16       1.0  T
  63    -13.1822946  0.158014E-02  0.577E-01    0.66       1.0  T
  64    -11.8778394  0.130446E+01  0.959E+00    0.00       1.0  T
  65    -13.1129155 -0.123508E+01  0.590E+00    5.95       1.0  T
  66    -13.1722297 -0.593143E-01  0.241E+00    6.26       1.0  T
  67    -13.1809251 -0.869538E-02  0.104E+00    2.06       1.0  T
  68    -13.1836883 -0.276323E-02  0.331E-01    0.26       1.0  T
  69    -11.8779051  0.130578E+01  0.959E+00    0.00       1.0  T
  70    -13.1117663 -0.123386E+01  0.595E+00    5.95       1.0  T
  71    -13.1723149 -0.605487E-01  0.240E+00    6.26       1.0  T
  72    -13.1810229 -0.870802E-02  0.101E+00    1.98       1.0  T
  73    -13.1848706 -0.384765E-02  0.990E-02    0.20       1.0  T
  74    -12.7316612  0.453209E+00  0.573E+00    0.02       1.0  T
  75    -13.1563557 -0.424694E+00  0.368E+00    6.14       1.0  T
  76    -13.1785057 -0.221501E-01  0.152E+00    3.54       1.0  T
  77    -13.1820703 -0.356453E-02  0.664E-01    0.91       1.0  T
  78    -11.8797818  0.130229E+01  0.955E+00    0.00       1.0  T
  79    -13.1105847 -0.123080E+01  0.600E+00    5.94       1.0  T
  80    -13.1722665 -0.616818E-01  0.240E+00    6.26       1.0  T
  81    -13.1810578 -0.879129E-02  0.999E-01    1.94       1.0  T
  82    -13.1849849 -0.392703E-02  0.231E-02    0.19       1.8  T
  83    -13.1805997  0.438517E-02  0.588E-01    0.14       1.0  T
  84    -13.1819374 -0.133768E-02  0.719E-01    1.08       1.0  T
  85    -11.9229540  0.125898E+01  0.936E+00    0.00       1.0  T
  86    -13.1137604 -0.119081E+01  0.588E+00    5.95       1.0  T
  87    -13.1727345 -0.589742E-01  0.234E+00    6.19       1.0  T
  88    -13.1809961 -0.826153E-02  0.101E+00    1.97       1.0  T
  89    -13.1838301 -0.283401E-02  0.313E-01    0.25       1.0  T
  90    -11.8786052  0.130522E+01  0.957E+00    0.00       1.0  T
  91    -13.1124680 -0.123386E+01  0.593E+00    5.95       1.0  T
  92    -13.1723559 -0.598879E-01  0.239E+00    6.26       1.0  T
  93    -13.1810108 -0.865489E-02  0.101E+00    1.97       1.0  T
  94    -13.1843690 -0.335822E-02  0.227E-01    0.23       1.0  T
  95    -11.8837500  0.130062E+01  0.952E+00    0.00       1.0  T
  96    -13.1111838 -0.122743E+01  0.599E+00    5.94       1.0  T
  97    -13.1725006 -0.613168E-01  0.237E+00    6.26       1.0  T
  98    -13.1810577 -0.855706E-02  0.996E-01    1.93       1.0  T
  99    -13.1848664 -0.380873E-02  0.102E-01    0.20       1.0  T
 100    -12.7408454  0.444021E+00  0.568E+00    0.02       1.0  T
 101    -13.1575869 -0.416741E+00  0.360E+00    6.14       1.0  T
 102    -13.1785414 -0.209545E-01  0.151E+00    3.51       1.0  T
 103    -13.1820421 -0.350070E-02  0.673E-01    0.94       1.0  T
 104    -11.8813190  0.130072E+01  0.954E+00    0.00       1.0  T
 105    -13.1113911 -0.123007E+01  0.598E+00    5.94       1.0  T
 106    -13.1722688 -0.608777E-01  0.239E+00    6.26       1.0  T
 107    -13.1810438 -0.877501E-02  0.999E-01    1.94       1.0  T
 108    -13.1847068 -0.366299E-02  0.153E-01    0.21       1.0  T
 109    -12.0724416  0.111227E+01  0.881E+00    0.00       1.0  T
 110    -13.1215089 -0.104907E+01  0.556E+00    5.97       1.0  T
 111    -13.1737962 -0.522873E-01  0.221E+00    5.74       1.0  T
 112    -13.1812315 -0.743521E-02  0.942E-01    1.76       1.0  T
 113    -13.1827889 -0.155746E-02  0.416E-01    0.15       1.0  T
 114    -13.1821530  0.635943E-03  0.633E-01    0.82       1.0  T
 115    -11.8801357  0.130202E+01  0.955E+00    0.00       1.0  T
 116    -13.1121621 -0.123203E+01  0.595E+00    5.94       1.0  T
 117    -13.1722761 -0.601141E-01  0.239E+00    6.26       1.0  T
 118    -13.1810150 -0.873891E-02  0.101E+00    1.96       1.0  T
 119    -13.1842426 -0.322757E-02  0.250E-01    0.23       1.0  T
 120    -11.8810655  0.130318E+01  0.954E+00    0.00       1.0  T
 121    -13.1118051 -0.123074E+01  0.597E+00    5.94       1.0  T
 122    -13.1723892 -0.605841E-01  0.238E+00    6.26       1.0  T
 123    -13.1810593 -0.867014E-02  0.994E-01    1.92       1.0  T
 124    -13.1847883 -0.372895E-02  0.130E-01    0.21       1.0  T
 125    -12.2962264  0.888562E+00  0.792E+00    0.00       1.0  T
 126    -13.1342384 -0.838012E+00  0.496E+00    6.02       1.0  T
 127    -13.1753918 -0.411535E-01  0.200E+00    5.05       1.0  T
 128    -13.1814495 -0.605774E-02  0.875E-01    1.55       1.0  T
 129    -13.1281629  0.532866E-01  0.208E+00    0.09       1.0  T
 130    -13.1785496 -0.503867E-01  0.151E+00    3.47       1.0  T
 131    -13.1819514 -0.340177E-02  0.708E-01    1.04       1.0  T
 132    -11.9059035  0.127605E+01  0.943E+00    0.00       1.0  T
 133    -13.1136801 -0.120778E+01  0.589E+00    5.95       1.0  T
 134    -13.1723967 -0.587166E-01  0.237E+00    6.26       1.0  T
 135    -13.1810273 -0.863068E-02  0.100E+00    1.93       1.0  T
 136    -13.1841495 -0.312216E-02  0.266E-01    0.24       1.0  T
 137    -11.8805646  0.130358E+01  0.954E+00    0.00       1.0  T
 138    -13.1118081 -0.123124E+01  0.597E+00    5.94       1.0  T
 139    -13.1722069 -0.603988E-01  0.240E+00    6.26       1.0  T
 140    -13.1810828 -0.887590E-02  0.987E-01    1.90       1.0  T
 141    -13.1849827 -0.389987E-02  0.289E-02    0.19       1.4  T
 142    -13.1739880  0.109947E-01  0.926E-01    0.13       1.0  T
 143    -13.1814386 -0.745060E-02  0.880E-01    1.56       1.0  T
 144    -13.1843613 -0.292262E-02  0.223E-01    0.17       1.0  T
 145    -13.1824092  0.195208E-02  0.528E-01    0.52       1.0  T
 146    -11.8779599  0.130445E+01  0.959E+00    0.00       1.0  T
 147    -13.1147220 -0.123676E+01  0.585E+00    5.95       1.0  T
 148    -13.1720108 -0.572887E-01  0.242E+00    6.26       1.0  T
 149    -13.1809472 -0.893640E-02  0.102E+00    2.01       1.0  T
 150    -13.1833503 -0.240311E-02  0.376E-01    0.28       1.0  T
 151    -11.8777122  0.130564E+01  0.960E+00    0.00       1.0  T
 152    -13.1146895 -0.123698E+01  0.585E+00    5.95       1.0  T
 153    -13.1720820 -0.573924E-01  0.241E+00    6.26       1.0  T
 154    -13.1809989 -0.891689E-02  0.101E+00    1.97       1.0  T
 155    -13.1838859 -0.288708E-02  0.305E-01    0.25       1.0  T
 156    -11.8788617  0.130502E+01  0.957E+00    0.00       1.0  T
 157    -13.1128626 -0.123400E+01  0.593E+00    5.94       1.0  T
 158    -13.1721975 -0.593349E-01  0.240E+00    6.26       1.0  T
 159    -13.1810634 -0.886591E-02  0.993E-01    1.92       1.0  T
 160    -13.1846874 -0.362395E-02  0.159E-01    0.21       1.0  T
 161    -11.9900178  0.119467E+01  0.912E+00    0.00       1.0  T
 162    -13.1169667 -0.112695E+01  0.576E+00    5.96       1.0  T
 163    -13.1731953 -0.562287E-01  0.228E+00    5.97       1.0  T
 164    -13.1811794 -0.798407E-02  0.956E-01    1.80       1.0  T
 165    -13.1846977 -0.351831E-02  0.152E-01    0.17       1.0  T
 166    -13.1826325  0.206527E-02  0.471E-01    0.38       1.0  T
 167    -11.8772445  0.130539E+01  0.961E+00    0.00       1.0  T
 168    -13.1156621 -0.123842E+01  0.581E+00    5.95       1.0  T
 169    -13.1720179 -0.563559E-01  0.241E+00    6.26       1.0  T
 170    -13.1809690 -0.895110E-02  0.102E+00    1.99       1.0  T
 171    -13.1834914 -0.252241E-02  0.358E-01    0.27       1.0  T
 172    -11.8780106  0.130548E+01  0.959E+00    0.00       1.0  T
 173    -13.1139567 -0.123595E+01  0.588E+00    5.95       1.0  T
 174    -13.1721193 -0.581626E-01  0.240E+00    6.26       1.0  T
 175    -13.1810398 -0.892056E-02  0.999E-01    1.94       1.0  T
 176    -13.1842905 -0.325064E-02  0.242E-01    0.23       1.0  T
 177    -11.8820967  0.130219E+01  0.953E+00    0.00       1.0  T
 178    -13.1113954 -0.122930E+01  0.599E+00    5.94       1.0  T
 179    -13.1723105 -0.609151E-01  0.238E+00    6.26       1.0  T
 180    -13.1811152 -0.880464E-02  0.978E-01    1.87       1.0  T
 181    -13.1849787 -0.386354E-02  0.319E-02    0.19       1.3  T
 182    -13.1849871 -0.841897E-05  0.182E-02    0.19       2.2  T
 183    -13.1849035  0.836138E-04  0.838E-02    0.18       1.0  T
 184    -13.1831533  0.175024E-02  0.400E-01    0.30       1.0  T
 185    -11.8781436  0.130501E+01  0.958E+00    0.00       1.0  T
 186    -13.1147063 -0.123656E+01  0.585E+00    5.95       1.0  T
 187    -13.1720922 -0.573858E-01  0.241E+00    6.26       1.0  T
 188    -13.1809364 -0.884420E-02  0.102E+00    2.00       1.0  T
 189    -13.1834955 -0.255906E-02  0.359E-01    0.27       1.0  T
 190    -11.8779782  0.130552E+01  0.959E+00    0.00       1.0  T
 191    -13.1152187 -0.123724E+01  0.583E+00    5.95       1.0  T
 192    -13.1720291 -0.568104E-01  0.241E+00    6.26       1.0  T
 193    -13.1809501 -0.892101E-02  0.102E+00    1.99       1.0  T
 194    -13.1838122 -0.286211E-02  0.317E-01    0.25       1.0  T
 195    -11.8786194  0.130519E+01  0.957E+00    0.00       1.0  T
 196    -13.1136170 -0.123500E+01  0.589E+00    5.95       1.0  T
 197    -13.1723389 -0.587219E-01  0.238E+00    6.26       1.0  T
 198    -13.1810409 -0.870205E-02  0.997E-01    1.92       1.0  T
 199    -13.1842548 -0.321384E-02  0.249E-01    0.23       1.0  T
 200    -11.8814691  0.130279E+01  0.954E+00    0.00       1.0  T
 201    -13.1106893 -0.122922E+01  0.600E+00    5.94       1.0  T
 202    -13.1729253 -0.622360E-01  0.233E+00    6.17       1.0  T
 203    -13.1811839 -0.825855E-02  0.962E-01    1.83       1.0  T
 204    -13.1847225 -0.353863E-02  0.149E-01    0.21       1.0  T
 205    -12.1669996  0.101772E+01  0.845E+00    0.00       1.0  T
 206    -13.1251300 -0.958130E+00  0.538E+00    5.99       1.0  T
 207    -13.1753131 -0.501831E-01  0.203E+00    5.20       1.0  T
 208    -13.1814598 -0.614667E-02  0.879E-01    1.57       1.0  T
 209    -13.1839799 -0.252016E-02  0.282E-01    0.16       1.0  T
 210    -13.1823529  0.162706E-02  0.553E-01    0.59       1.0  T
 211    -11.8796464  0.130271E+01  0.955E+00    0.00       1.0  T
 212    -13.1123252 -0.123268E+01  0.594E+00    5.95       1.0  T
 213    -13.1724189 -0.600937E-01  0.238E+00    6.26       1.0  T
 214    -13.1810614 -0.864250E-02  0.993E-01    1.92       1.0  T
 215    -13.1837884 -0.272701E-02  0.319E-01    0.25       1.0  T
 216    -11.8789205  0.130487E+01  0.957E+00    0.00       1.0  T
 217    -13.1127431 -0.123382E+01  0.593E+00    5.94       1.0  T
 218    -13.1723555 -0.596124E-01  0.238E+00    6.26       1.0  T
 219    -13.1810828 -0.872730E-02  0.986E-01    1.89       1.0  T
 220    -13.1844643 -0.338149E-02  0.210E-01    0.22       1.0  T
 221    -11.8925254  0.129194E+01  0.948E+00    0.00       1.0  T
 222    -13.1100115 -0.121749E+01  0.603E+00    5.94       1.0  T
 223    -13.1732338 -0.632222E-01  0.230E+00    6.07       1.0  T
 224    -13.1812682 -0.803440E-02  0.940E-01    1.76       1.0  T
 225    -13.1848823 -0.361416E-02  0.949E-02    0.20       1.0  T
 226    -12.9731559  0.211726E+00  0.397E+00    0.05       1.0  T
 227    -13.1713990 -0.198243E+00  0.245E+00    6.26       1.0  T
 228    -13.1802553 -0.885627E-02  0.117E+00    2.45       1.0  T
 229    -13.1823124 -0.205709E-02  0.559E-01    0.59       1.0  T
 230    -11.8787549  0.130356E+01  0.957E+00    0.00       1.0  T
 231    -13.1140042 -0.123525E+01  0.588E+00    5.95       1.0  T
 232    -13.1719720 -0.579677E-01  0.242E+00    6.26       1.0  T
 233    -13.1810214 -0.904947E-02  0.100E+00    1.94       1.0  T
 234    -13.1840033 -0.298189E-02  0.289E-01    0.24       1.0  T
 235    -11.8796243  0.130438E+01  0.955E+00    0.00       1.0  T
 236    -13.1115758 -0.123195E+01  0.597E+00    5.94       1.0  T
 237    -13.1724518 -0.608761E-01  0.238E+00    6.26       1.0  T
 238    -13.1811728 -0.872092E-02  0.963E-01    1.83       1.0  T
 239    -13.1849898 -0.381706E-02  0.151E-02    0.19       2.7  T
 240    -13.1793601  0.562970E-02  0.665E-01    0.14       1.0  T
 241    -13.1819386 -0.257845E-02  0.722E-01    1.10       1.0  T
 242    -12.8839236  0.298015E+00  0.470E+00    0.04       1.0  T
 243    -13.1670667 -0.283143E+00  0.287E+00    6.21       1.0  T
 244    -13.1795596 -0.124930E-01  0.132E+00    2.90       1.0  T
 245    -13.1821351 -0.257542E-02  0.633E-01    0.81       1.0  T
 246    -11.8832546  0.129888E+01  0.952E+00    0.00       1.0  T
 247    -13.1113300 -0.122808E+01  0.597E+00    5.95       1.0  T
 248    -13.1726635 -0.613335E-01  0.236E+00    6.26       1.0  T
 249    -13.1811778 -0.851432E-02  0.963E-01    1.83       1.0  T
 250    -13.1839815 -0.280362E-02  0.291E-01    0.24       1.0  T
     SCC iter.                  ...        0 min,  0.115 sec
     gradient                   ...        0 min,  0.001 sec
 * total energy  :   -12.9947634 Eh     change        0.1228199E+00 Eh
   gradient norm :     2.4070677 Eh/α   predicted    -0.4717230E-01 (-138.41%)
   displ. norm   :     0.1151821 α      lambda       -0.2703889E+00
   maximum displ.:     0.1140985 α      in ANC's #12, #8, #11, ...

........................................................................
.............................. CYCLE    5 ..............................
........................................................................
   1    -13.1863873 -0.131864E+02  0.330E-01    0.41       0.0  T
   2    -12.3686178  0.817770E+00  0.775E+00    0.00       1.0  T
   3    -13.1867339 -0.818116E+00  0.243E-01    0.31       1.0  T
   4    -13.1873141 -0.580243E-03  0.106E-01    0.21       1.0  T
   5    -13.1355305  0.517836E-01  0.204E+00    0.10       1.0  T
   6    -13.1789857 -0.434552E-01  0.837E-01    0.14       1.0  T
   7    -13.1832126 -0.422682E-02  0.589E-01    0.15       1.0  T
   8    -13.1869705 -0.375794E-02  0.178E-01    0.19       1.0  T
   9    -13.1872627 -0.292245E-03  0.811E-02    0.20       1.0  T
  10    -13.1873124 -0.497007E-04  0.487E-02    0.21       1.0  T
  11    -13.1873356 -0.231224E-04  0.206E-02    0.21       2.0  T
  12    -13.1873394 -0.381386E-05  0.101E-02    0.21       4.0  T
  13    -13.1873403 -0.920953E-06  0.487E-03    0.21       8.4  T
  14    -13.1873406 -0.252335E-06  0.153E-03    0.21      26.7  T
     SCC iter.                  ...        0 min,  0.001 sec
     gradient                   ...        0 min,  0.001 sec
 * total energy  :   -13.1315103 Eh     change       -0.1367469E+00 Eh
   gradient norm :     0.0832647 Eh/α   predicted    -0.1369881E+00 (   0.18%)
   displ. norm   :     0.0064854 α      lambda       -0.1495664E-03
   maximum displ.:     0.0062531 α      in ANC's #8, #11, #12, ...

........................................................................
.............................. CYCLE    6 ..............................
........................................................................
   1    -13.1880498 -0.131880E+02  0.515E-02    0.23       0.0  T
   2    -13.1844765  0.357329E-02  0.541E-01    0.16       1.0  T
   3    -13.1880797 -0.360316E-02  0.144E-02    0.22       2.8  T
   4    -13.1880815 -0.181462E-05  0.926E-03    0.21       4.4  T
   5    -13.1880797  0.175604E-05  0.150E-02    0.21       2.7  T
   6    -13.1880818 -0.209637E-05  0.650E-03    0.21       6.3  T
   7    -13.1880822 -0.397922E-06  0.235E-03    0.21      17.4  T
   8    -13.1880815  0.693500E-06  0.802E-03    0.21       5.1  T
   9    -13.1880823 -0.728850E-06  0.123E-03    0.22      33.1  T
     SCC iter.                  ...        0 min,  0.001 sec
     gradient                   ...        0 min,  0.001 sec
 * total energy  :   -13.1315797 Eh     change       -0.6944568E-04 Eh
   gradient norm :     0.0094800 Eh/α   predicted    -0.7478566E-04 (   7.69%)
   displ. norm   :     0.0014333 α      lambda       -0.2030968E-05
   maximum displ.:     0.0010366 α      in ANC's #5, #8, #11, ...

........................................................................
.............................. CYCLE    7 ..............................
........................................................................
   1    -13.1882032 -0.131882E+02  0.532E-03    0.21       0.0  T
   2    -13.1881937  0.959169E-05  0.288E-02    0.22       1.4  T
   3    -13.1882036 -0.989599E-05  0.108E-03    0.22      37.8  T
   4    -13.1882036 -0.147566E-09  0.294E-04    0.22     139.1  T
   5    -13.1882036 -0.447375E-10  0.973E-05    0.22     419.6  T
     SCC iter.                  ...        0 min,  0.000 sec
     gradient                   ...        0 min,  0.001 sec
 * total energy  :   -13.1315809 Eh     change       -0.1135514E-05 Eh
   gradient norm :     0.0003266 Eh/α   predicted    -0.1016769E-05 ( -10.46%)
   displ. norm   :     0.0006787 α      lambda       -0.4124896E-07
   maximum displ.:     0.0005608 α      in ANC's #5, #8, #2, ...

   *** GEOMETRY OPTIMIZATION CONVERGED AFTER 7 ITERATIONS ***

------------------------------------------------------------------------
 total energy gain   :        -0.0015551 Eh       -0.9758 kcal/mol
 total RMSD          :         0.0152893 a0        0.0081 Å
 total power (kW/mol):        -0.5832620 (step)  -31.1251 (real)
------------------------------------------------------------------------

 ANCopt (total)                0 d,  0 h,  0 min,  0.131 sec
 optimizer setup                ...        0 min,  0.001 sec (  0.544%)
 model hessian                  ...        0 min,  0.001 sec (  0.684%)
 ANC generation                 ...        0 min,  0.000 sec (  0.057%)
 coordinate transformation      ...        0 min,  0.000 sec (  0.026%)
 single point calculation       ...        0 min,  0.128 sec ( 97.598%)
 optimization log               ...        0 min,  0.000 sec (  0.143%)
 hessian update                 ...        0 min,  0.000 sec (  0.024%)
 rational function              ...        0 min,  0.001 sec (  0.591%)

================
 final structure:
================
6
 xtb: 6.2.3 (830e466)
F        -4.14058152450539   -0.24032435849684    0.07864797407909
Cl        1.62867209756980    0.09761353596333   -0.02468593417573
C        -0.14807098643269   -0.00878110891666    0.00225294685702
H        -0.47369807904746   -0.58970092421435   -0.85383529053164
H        -0.45271573400422   -0.49363073140823    0.92339289254422
H        -0.55652577358004    0.99476358707275   -0.04706258877297
 
 Bond Distances (Angstroems)
 ---------------------------
Cl2-C3=1.7801        C3-Cl2=1.7801        C3-H4=1.0846         C3-H5=1.0846         C3-H6=1.0846         H4-C3=1.0846         
H5-C3=1.0846         H6-C3=1.0846         
 C  H  Rav=1.0846 sigma=0.0000  Rmin=1.0846  Rmax=1.0846     3
 Cl C  Rav=1.7801 sigma=0.0000  Rmin=1.7801  Rmax=1.7801     1
 
 selected bond angles (degree)
 --------------------
H4-C3-Cl2=108.65               H5-C3-Cl2=108.66               H5-C3-H4=110.28                H6-C3-Cl2=108.66               
H6-C3-H4=110.28                H6-C3-H5=110.27                
 
 selected dihedral angles (degree)
 ---------------------------------

 
 CMA Distance (Angstroems)
 ---------------------------
R(CMA):  5.2292
           -------------------------------------------------
          |                Final Singlepoint                |
           -------------------------------------------------

          ...................................................
          :                      SETUP                      :
          :.................................................:
          :  # basis functions                  21          :
          :  # atomic orbitals                  20          :
          :  # shells                           10          :
          :  # electrons                        22          :
          :  max. iterations                   250          :
          :  Hamiltonian                  GFN2-xTB          :
          :  restarted?                      false          :
          :  GBSA solvation                  false          :
          :  PC potential                    false          :
          :  electronic temp.          300.0000000     K    :
          :  accuracy                    1.0000000          :
          :  -> integral cutoff          0.2500000E+02      :
          :  -> integral neglect         0.1000000E-07      :
          :  -> SCF convergence          0.1000000E-05 Eh   :
          :  -> wf. convergence          0.1000000E-03 e    :
          :  Broyden damping             0.4000000          :
          ...................................................

 iter      E             dE          RMSdq      gap      omega  full diag
   1    -13.1882036 -0.131882E+02  0.501E-05    0.22       0.0  T
   2    -13.1882036  0.499822E-09  0.201E-04    0.22     203.4  T
   3    -13.1882036 -0.481698E-09  0.633E-05    0.22     644.5  T

   *** convergence criteria satisfied after 3 iterations ***

         #    Occupation            Energy/Eh            Energy/eV
      -------------------------------------------------------------
         1        2.0000           -0.9497138             -25.8430
       ...           ...                  ...                  ...
         5        2.0000           -0.3889410             -10.5836
         6        2.0000           -0.3233217              -8.7980
         7        2.0000           -0.3092808              -8.4160
         8        2.0000           -0.3092731              -8.4158
         9        1.9861           -0.0620243              -1.6878
        10        1.9816           -0.0617575              -1.6805
        11        1.9816           -0.0617574              -1.6805 (HOMO)
        12        0.0507           -0.0538456              -1.4652 (LUMO)
        13                          0.1289891               3.5100
        14                          0.1289920               3.5101
        15                          0.1333210               3.6278
        16                          0.1333239               3.6279
       ...                                ...                  ...
        20                          0.3281088               8.9283
      -------------------------------------------------------------
                  HL-Gap            0.0079117 Eh            0.2153 eV
             Fermi-level           -0.0573120 Eh           -1.5595 eV

 SCC (total)                   0 d,  0 h,  0 min,  0.002 sec
 SCC setup                      ...        0 min,  0.000 sec (  2.898%)
 Dispersion                     ...        0 min,  0.000 sec (  0.521%)
 integral evaluation            ...        0 min,  0.001 sec ( 39.819%)
 zeroth order Hamiltonian       ...        0 min,  0.000 sec (  0.767%)
 iterations                     ...        0 min,  0.000 sec ( 15.179%)
 molecular gradient             ...        0 min,  0.001 sec ( 36.461%)
 printout                       ...        0 min,  0.000 sec (  3.082%)

         :::::::::::::::::::::::::::::::::::::::::::::::::::::
         ::                     SUMMARY                     ::
         :::::::::::::::::::::::::::::::::::::::::::::::::::::
         :: total energy             -13.131580883183 Eh    ::
         :: gradient norm              0.000328307431 Eh/a0 ::
         :: HOMO-LUMO gap              0.215289427590 eV    ::
         ::.................................................::
         :: SCC energy               -13.188203553937 Eh    ::
         :: -> isotropic ES            0.262797215513 Eh    ::
         :: -> anisotropic ES         -0.000710963080 Eh    ::
         :: -> anisotropic XC          0.000752405769 Eh    ::
         :: -> dispersion             -0.001619308606 Eh    ::
         :: repulsion energy           0.056623722143 Eh    ::
         :: add. restraining           0.000000694421 Eh    ::
         :::::::::::::::::::::::::::::::::::::::::::::::::::::

           -------------------------------------------------
          |                Property Printout                |
           -------------------------------------------------

    * Orbital Energies and Occupations

         #    Occupation            Energy/Eh            Energy/eV
      -------------------------------------------------------------
         1        2.0000           -0.9497138             -25.8430
         2        2.0000           -0.4964148             -13.5081
         3        2.0000           -0.3967390             -10.7958
         4        2.0000           -0.3966888             -10.7945
         5        2.0000           -0.3889410             -10.5836
         6        2.0000           -0.3233217              -8.7980
         7        2.0000           -0.3092808              -8.4160
         8        2.0000           -0.3092731              -8.4158
         9        1.9861           -0.0620243              -1.6878
        10        1.9816           -0.0617575              -1.6805
        11        1.9816           -0.0617574              -1.6805 (HOMO)
        12        0.0507           -0.0538456              -1.4652 (LUMO)
        13                          0.1289891               3.5100
        14                          0.1289920               3.5101
        15                          0.1333210               3.6278
        16                          0.1333239               3.6279
        17                          0.2413469               6.5674
        18                          0.2774683               7.5503
        19                          0.3280863               8.9277
        20                          0.3281088               8.9283
      -------------------------------------------------------------
                  HL-Gap            0.0079117 Eh            0.2153 eV
             Fermi-level           -0.0573120 Eh           -1.5595 eV

     #   Z        covCN         q      C6AA      α(0)
     1   9 F      0.000    -0.948    23.343     5.627
     2  17 Cl     0.888    -0.263   107.490    15.861
     3   6 C      3.663    -0.007    20.979     6.570
     4   1 H      0.925     0.072     2.058     2.244
     5   1 H      0.925     0.073     2.055     2.242
     6   1 H      0.925     0.073     2.055     2.242

 Mol. C6AA /au·bohr⁶  :        572.803937
 Mol. C8AA /au·bohr⁸  :      15852.101219
 Mol. α(0) /au        :         34.785927


Wiberg/Mayer (AO) data.
largest (>0.10) Wiberg bond orders for each atom
          total WBO             WBO to atom ...
     1  F   0.001
     2  Cl  0.938        C    3 0.918
     3  C   3.883        H    4 0.988    H    6 0.988    H    5 0.988    Cl   2 0.918
     4  H   0.994        C    3 0.988
     5  H   0.994        C    3 0.988
     6  H   0.994        C    3 0.988

molecular dipole:
                 x           y           z       tot (Debye)
 q only:        6.404       0.370      -0.125
   full:        6.070       0.350      -0.120      15.457
molecular quadrupole (traceless):
                xx          xy          yy          xz          yz          zz
 q only:      -60.623      -5.296      30.174       1.714       0.099      30.449
  q+dip:      -63.585      -5.562      31.648       1.784       0.103      31.937
   full:      -62.524      -5.466      31.120       1.760       0.102      31.404

           -------------------------------------------------
          |                Geometry Summary                 |
           -------------------------------------------------

      molecular mass/u    :       69.4858989
   center of mass at/Å    :       -0.3482201      -0.0187064       0.0096240
  moments of inertia/u·Å² :        0.3193635E+01   0.4154779E+03   0.4154785E+03
rotational constants/cm⁻¹ :        0.5278509E+01   0.4057407E-01   0.4057402E-01

 * 4 selected distances

     #   Z        #   Z                                     value/Å
     2  17 Cl     3   6 C                                 1.7801296 (max)
     3   6 C      4   1 H                                 1.0846142
     3   6 C      5   1 H                                 1.0846135
     3   6 C      6   1 H                                 1.0846056 (min)

 * 2 distinct bonds (by element types)

   Z      Z             #   av. dist./Å        max./Å        min./Å
   1 H    6 C           3     1.0846111     1.0846142     1.0846056
   6 C   17 Cl          1     1.7801296     1.7801296     1.7801296


optimized geometry written to: xtbopt.xyz


           -------------------------------------------------
          | TOTAL ENERGY              -13.131580883183 Eh   |
          | GRADIENT NORM               0.000328307431 Eh/α |
          | HOMO-LUMO GAP               0.215289427590 eV   |
           -------------------------------------------------
########################################################################
[WARNING] Runtime exception occurred
-1- scf: Self consistent charge iterator did not converge
########################################################################

------------------------------------------------------------------------
 * finished run on 2020/04/08 at 23:03:30.055     
------------------------------------------------------------------------
 total:
 * wall-time:     0 d,  0 h,  0 min,  0.191 sec
 *  cpu-time:     0 d,  0 h,  0 min,  0.161 sec
 * ratio c/w:     0.841 speedup
 SCF:
 * wall-time:     0 d,  0 h,  0 min,  0.032 sec
 *  cpu-time:     0 d,  0 h,  0 min,  0.020 sec
 * ratio c/w:     0.649 speedup
 ANC optimizer:
 * wall-time:     0 d,  0 h,  0 min,  0.134 sec
 *  cpu-time:     0 d,  0 h,  0 min,  0.131 sec
 * ratio c/w:     0.980 speedup

