      -----------------------------------------------------------      
     |                   =====================                   |     
     |                           x T B                           |     
     |                   =====================                   |     
     |                         S. Grimme                         |     
     |          Mulliken Center for Theoretical Chemistry        |     
     |                    University of Bonn                     |     
      -----------------------------------------------------------      

   * xtb version 6.2.3 (830e466) compiled by 'ehlert@majestix' on 2020-03-16

   xtb is free software: you can redistribute it and/or modify it under
   the terms of the GNU Lesser General Public License as published by
   the Free Software Foundation, either version 3 of the License, or
   (at your option) any later version.
   
   xtb is distributed in the hope that it will be useful,
   but WITHOUT ANY WARRANTY; without even the implied warranty of
   MERCHANTABILITY or FITNESS FOR A PARTICULAR PURPOSE.  See the
   GNU Lesser General Public License for more details.
   
   Cite this work as:
   * S. Grimme, C. Bannwarth, P. Shushkov, J. Chem. Theory Comput., 2017,
     13, 1989-2009. DOI: 10.1021/acs.jctc.7b00118
   * C. Bannwarth, S. Ehlert and S. Grimme., J. Chem. Theory Comput., 2019,
     15, 1652-1671. DOI: 10.1021/acs.jctc.8b01176
   * P. Pracht, E. Caldeweyher, S. Ehlert, S. Grimme, ChemRxiv, 2019, preprint.
     DOI: 10.26434/chemrxiv.8326202.v1
   
   for DFT-D4:
   * E. Caldeweyher, C. Bannwarth and S. Grimme, J. Chem. Phys., 2017,
     147, 034112. DOI: 10.1063/1.4993215
   * E. Caldeweyher, S. Ehlert, A. Hansen, H. Neugebauer, S. Spicher,
     C. Bannwarth and S. Grimme, J. Chem. Phys., 2019, 150, 154122.
     DOI: 10.1063/1.5090222
   
   for sTDA-xTB:
   * S. Grimme and C. Bannwarth, J. Chem. Phys., 2016, 145, 054103.
     DOI: 10.1063/1.4959605
   
   in the mass-spec context:
   * V. Asgeirsson, C. Bauer and S. Grimme, Chem. Sci., 2017, 8, 4879.
     DOI: 10.1039/c7sc00601b
   
   for metadynamics refer to:
   * S. Grimme, J. Chem. Theory Comput., 2019, 155, 2847-2862
     DOI: 10.1021/acs.jctc.9b00143
   
   with help from (in alphabetical order)
   C. Bannwarth, F. Bohle, G. Brandenburg, E. Caldeweyher, M. Checinski,
   S. Dohm, S. Ehlert, S. Ehrlich, F. März, H. Neugebauer, J. Pisarek,
   P. Pracht, P. Shushkov, and S. Spicher.
   
 * started run on 2020/04/08 at 23:04:53.405     

           -------------------------------------------------
          |                Calculation Setup                |
           -------------------------------------------------

          program call               : /home/tom/.local/bin/xtb SN2_PES_scan_8-4_xtb.xyz --chrg -1 --opt --input xcontrol_SN2_PES_scan_8-4
          coordinate file            : SN2_PES_scan_8-4_xtb.xyz
          omp threads                :                     1
          number of atoms            :                     6
          number of electrons        :                    22
          charge                     :                    -1
          spin                       :                   0.0
          first test random number   :      0.95645091510300

constraining bond 1 3 to    1.6050000 Å, actual value:    1.9037384 Å
constraining bond 2 3 to    2.9830000 Å, actual value:    2.6826756 Å

molecular fragmentation (1/2 indicates fragments):
122222
# atoms in fragment 1/2:     1     5
 fragment masses (1/2) :       19.00       50.49
CMA distance (Bohr)    :   7.173
constraining FC (au)   : 10.0000
########################################################################
[WARNING] Please study the warnings concerning your input carefully
-2- prog_main: XTBPATH is not set, using XTBHOME instead
-1- prog_main: XTBHOME is not set, using HOME instead
########################################################################
           ------------------------------------------------- 
          |                 G F N 2 - x T B                 |
          | Geometry, Frequencies, Noncovalent interactions |
          |            JCTC 2019 parametrisation            |
           ------------------------------------------------- 
             k(s)              :                1.8500
             k(p)              :                2.2300
             k(d)              :                2.2300
             k(f)              :                2.0000
             kEN (H0ij)        :               -2.0000
             D4 a1             :                0.5200
             D4 a2             :                5.0000
             D4 s6             :                1.0000
             D4 s8             :                2.7000
             D4 s9             :                5.0000
             alphaj            :                2.0000

  Z AO/shell   Hii/eV     exponent
  1     Wed Apr 25 08:07:45 CEST 2018   EN: 2.200 GM2: 0.406  GM3: 0.0800  RAES: 1.40
     1s    -10.707211    1.230000
  6     Wed Apr 25 08:07:45 CEST 2018   EN: 2.550 GM2: 0.538  GM3: 0.1500  RAES: 3.00
     2s    -13.970922    2.096432
     2p    -10.063292    1.800000
  9     Mon Apr 23 13:58:50 CEST 2018   EN: 3.980 GM2: 0.532  GM3: 0.1426  RAES: 2.40
     2s    -23.458179    2.416361
     2p    -15.746583    2.308399
 17     Mon Apr 23 14:09:22 CEST 2018   EN: 3.160 GM2: 0.249  GM3: 0.1495  RAES: 2.50
     3s    -29.278781    2.485265
     3p    -12.673758    2.199650
     3d     -0.240338    2.476089

           ------------------------------------------------- 
          |        Self-Consistent Charge Iterations        |
           ------------------------------------------------- 

          ...................................................
          :                      SETUP                      :
          :.................................................:
          :  # basis functions                  21          :
          :  # atomic orbitals                  20          :
          :  # shells                           10          :
          :  # electrons                        22          :
          :  max. iterations                   250          :
          :  Hamiltonian                  GFN2-xTB          :
          :  restarted?                      false          :
          :  GBSA solvation                  false          :
          :  PC potential                    false          :
          :  electronic temp.          300.0000000     K    :
          :  accuracy                    1.0000000          :
          :  -> integral cutoff          0.2500000E+02      :
          :  -> integral neglect         0.1000000E-07      :
          :  -> SCF convergence          0.1000000E-05 Eh   :
          :  -> wf. convergence          0.1000000E-03 e    :
          :  Broyden damping             0.4000000          :
          ...................................................

 iter      E             dE          RMSdq      gap      omega  full diag
   1    -13.1064277 -0.131064E+02  0.680E+00    4.83       0.0  T
   2    -13.1636076 -0.571799E-01  0.290E+00    2.61       1.0  T
   3    -13.1965493 -0.329416E-01  0.263E+00    2.65       1.0  T
   4    -13.2065621 -0.100129E-01  0.729E-01    2.01       1.0  T
   5    -13.2067932 -0.231047E-03  0.641E-01    2.57       1.0  T
   6    -13.2078165 -0.102339E-02  0.112E-01    2.31       1.0  T
   7    -13.2078311 -0.145636E-04  0.586E-02    2.28       1.0  T
   8    -13.2078328 -0.164746E-05  0.499E-02    2.28       1.0  T
   9    -13.2078416 -0.880760E-05  0.159E-02    2.30       2.6  T
  10    -13.2078423 -0.736612E-06  0.675E-03    2.30       6.1  T
  11    -13.2078424 -0.108509E-06  0.124E-03    2.29      33.0  T
  12    -13.2078424 -0.215783E-08  0.699E-04    2.29      58.4  T
  13    -13.2078424 -0.125785E-08  0.500E-05    2.29     816.1  T

   *** convergence criteria satisfied after 13 iterations ***

         #    Occupation            Energy/Eh            Energy/eV
      -------------------------------------------------------------
         1        2.0000           -0.8178093             -22.2537
       ...           ...                  ...                  ...
         5        2.0000           -0.3492790              -9.5044
         6        2.0000           -0.2983480              -8.1185
         7        2.0000           -0.2627348              -7.1494
         8        2.0000           -0.2627345              -7.1494
         9        2.0000           -0.2119069              -5.7663
        10        2.0000           -0.2075679              -5.6482
        11        2.0000           -0.2075678              -5.6482 (HOMO)
        12                         -0.1232656              -3.3542 (LUMO)
        13                          0.2709024               7.3716
        14                          0.2981263               8.1124
        15                          0.2981276               8.1125
        16                          0.2994241               8.1477
       ...                                ...                  ...
        20                          0.4170862              11.3495
      -------------------------------------------------------------
                  HL-Gap            0.0843022 Eh            2.2940 eV
             Fermi-level           -0.1654167 Eh           -4.5012 eV

 SCC (total)                   0 d,  0 h,  0 min,  0.003 sec
 SCC setup                      ...        0 min,  0.000 sec (  2.456%)
 Dispersion                     ...        0 min,  0.000 sec (  0.491%)
 integral evaluation            ...        0 min,  0.001 sec ( 23.588%)
 zeroth order Hamiltonian       ...        0 min,  0.000 sec (  0.669%)
 iterations                     ...        0 min,  0.001 sec ( 43.906%)
 molecular gradient             ...        0 min,  0.001 sec ( 25.654%)
 printout                       ...        0 min,  0.000 sec (  2.380%)

         :::::::::::::::::::::::::::::::::::::::::::::::::::::
         ::                     SUMMARY                     ::
         :::::::::::::::::::::::::::::::::::::::::::::::::::::
         :: total energy              -6.740818480713 Eh    ::
         :: gradient norm             27.772636238927 Eh/a0 ::
         :: HOMO-LUMO gap              2.293980099634 eV    ::
         ::.................................................::
         :: SCC energy               -13.207842415773 Eh    ::
         :: -> isotropic ES            0.167281219099 Eh    ::
         :: -> anisotropic ES         -0.000655423623 Eh    ::
         :: -> anisotropic XC          0.004856529978 Eh    ::
         :: -> dispersion             -0.001946897322 Eh    ::
         :: repulsion energy           0.059128997352 Eh    ::
         :: add. restraining           6.407895249659 Eh    ::
         :::::::::::::::::::::::::::::::::::::::::::::::::::::

      ----------------------------------------------------------- 
     |                   =====================                   |
     |                        A N C O P T                        |
     |                   =====================                   |
     |               Approximate Normal Coordinate               |
     |                Rational Function Optimizer                |
      ----------------------------------------------------------- 

          ...................................................
          :                      SETUP                      :
          :.................................................:
          :   optimization level            normal          :
          :   max. optcycles                   200          :
          :   ANC micro-cycles                  20          :
          :   degrees of freedom                12          :
          :.................................................:
          :   RF solver                   davidson          :
          :   write xtbopt.log                true          :
          :   linear?                        false          :
          :   energy convergence         0.5000000E-05 Eh   :
          :   grad. convergence          0.1000000E-02 Eh/α :
          :   maximium RF displ.         1.0000000          :
          :   Hlow (freq-cutoff)         0.1000000E-01      :
          :   Hmax (freq-cutoff)         5.0000000          :
          :   S6 in model hess.         20.0000000          :
          ...................................................

generating ANC from model Hessian ...
Using Lindh-Hessian (1995)
 Shifting diagonal of input Hessian by   0.796716496881939     
 Lowest  eigenvalues of input Hessian
    0.010000    0.010037   -0.000000   -0.000000   -0.000000    0.000000
    0.000000    0.000000    0.832489    0.940993    0.941082    1.241384
    1.487141    1.487392    4.361694    4.361909   20.854454   61.020936
 Highest eigenvalues
    1.487141    1.487392    4.361694    4.361909   20.854454   61.020936
 

........................................................................
.............................. CYCLE    1 ..............................
........................................................................
   1    -13.2078424 -0.132078E+02  0.162E-05    2.29       0.0  T
   2    -13.2078424 -0.397904E-12  0.881E-06    2.29    4634.2  T
   3    -13.2078424 -0.360600E-12  0.346E-06    2.29   11812.1  T
     SCC iter.                  ...        0 min,  0.000 sec
     gradient                   ...        0 min,  0.001 sec
 * total energy  :    -6.7408185 Eh     change       -0.2180656E-10 Eh
   gradient norm :    27.7726364 Eh/α   predicted     0.0000000E+00 (-100.00%)
   displ. norm   :     0.9140269 α      lambda       -0.2538494E+02
   maximum displ.:     0.9140232 α      in ANC's #11, #12, #6, ...

........................................................................
.............................. CYCLE    2 ..............................
........................................................................
   1    -13.1890676 -0.131891E+02  0.273E+00   11.02       0.0  T
   2    -13.2059532 -0.168857E-01  0.140E+00   10.10       1.0  T
   3    -13.2076778 -0.172457E-02  0.774E-01    9.85       1.0  T
   4    -13.2078269 -0.149144E-03  0.320E-01    9.58       1.0  T
   5    -13.2078537 -0.267695E-04  0.199E-02    9.53       2.0  T
   6    -13.2078540 -0.246154E-06  0.113E-02    9.53       3.6  T
   7    -13.2078540 -0.304763E-07  0.190E-03    9.53      21.5  T
   8    -13.2078540 -0.418066E-08  0.916E-04    9.53      44.6  T
     SCC iter.                  ...        0 min,  0.001 sec
     gradient                   ...        0 min,  0.001 sec
 * total energy  :    -7.0447341 Eh     change       -0.3039157E+00 Eh
   gradient norm :    27.2225129 Eh/α   predicted    -0.2329633E+02 (7565.39%)
   displ. norm   :     0.3853053 α      lambda       -0.1048848E+02
   maximum displ.:     0.3852790 α      in ANC's #11, #3, #6, ...

........................................................................
.............................. CYCLE    3 ..............................
........................................................................
   1    -13.2156687 -0.132157E+02  0.115E+00    4.11       0.0  T
   2    -13.2176928 -0.202412E-02  0.633E-01    4.46       1.0  T
   3    -13.2179931 -0.300230E-03  0.320E-01    4.76       1.0  T
   4    -13.2180123 -0.192765E-04  0.129E-01    4.82       1.0  T
   5    -13.2180229 -0.106036E-04  0.355E-02    4.84       1.1  T
   6    -13.2180242 -0.123549E-05  0.161E-02    4.84       2.5  T
   7    -13.2180246 -0.477948E-06  0.734E-03    4.84       5.6  T
   8    -13.2180247 -0.934887E-07  0.652E-04    4.84      62.6  T
   9    -13.2180247 -0.546363E-09  0.225E-04    4.84     181.6  T
     SCC iter.                  ...        0 min,  0.001 sec
     gradient                   ...        0 min,  0.001 sec
 * total energy  :   -13.0434586 Eh     change       -0.5998724E+01 Eh
   gradient norm :     3.9534501 Eh/α   predicted    -0.6022804E+01 (   0.40%)
   displ. norm   :     0.0728401 α      lambda       -0.2596438E+00
   maximum displ.:     0.0651852 α      in ANC's #11, #6, #3, ...

........................................................................
.............................. CYCLE    4 ..............................
........................................................................
   1    -13.2219134 -0.132219E+02  0.165E-01    4.09       0.0  T
   2    -13.2219707 -0.573477E-04  0.101E-01    4.15       1.0  T
   3    -13.2219783 -0.761503E-05  0.566E-02    4.20       1.0  T
   4    -13.2219791 -0.806416E-06  0.229E-02    4.22       1.8  T
   5    -13.2219795 -0.337175E-06  0.492E-03    4.22       8.3  T
   6    -13.2219795 -0.240467E-07  0.165E-03    4.22      24.7  T
     SCC iter.                  ...        0 min,  0.000 sec
     gradient                   ...        0 min,  0.001 sec
 * total energy  :   -13.1735254 Eh     change       -0.1300668E+00 Eh
   gradient norm :     0.2022670 Eh/α   predicted    -0.1305107E+00 (   0.34%)
   displ. norm   :     0.0492087 α      lambda       -0.8702489E-02
   maximum displ.:     0.0390560 α      in ANC's #12, #6, #3, ...

........................................................................
.............................. CYCLE    5 ..............................
........................................................................
   1    -13.2237258 -0.132237E+02  0.666E-02    3.87       0.0  T
   2    -13.2237308 -0.500192E-05  0.413E-02    3.90       1.0  T
   3    -13.2237318 -0.998507E-06  0.172E-02    3.92       2.4  T
   4    -13.2237320 -0.113711E-06  0.517E-03    3.92       7.9  T
   5    -13.2237320 -0.215892E-07  0.382E-03    3.92      10.7  T
     SCC iter.                  ...        0 min,  0.000 sec
     gradient                   ...        0 min,  0.001 sec
 * total energy  :   -13.1666459 Eh     change        0.6879578E-02 Eh
   gradient norm :     0.5976332 Eh/α   predicted    -0.4361781E-02 (-163.40%)
   displ. norm   :     0.0297500 α      lambda       -0.1703425E-01
   maximum displ.:     0.0284230 α      in ANC's #12, #3, #6, ...

........................................................................
.............................. CYCLE    6 ..............................
........................................................................
   1    -13.2262039 -0.132262E+02  0.478E-02    4.16       0.0  T
   2    -13.2262049 -0.952443E-06  0.284E-02    4.15       1.4  T
   3    -13.2262051 -0.251877E-06  0.673E-03    4.13       6.1  T
   4    -13.2262051 -0.338732E-07  0.269E-03    4.13      15.2  T
   5    -13.2262052 -0.880453E-08  0.167E-03    4.13      24.5  T
     SCC iter.                  ...        0 min,  0.000 sec
     gradient                   ...        0 min,  0.001 sec
 * total energy  :   -13.1754711 Eh     change       -0.8825225E-02 Eh
   gradient norm :     0.0282027 Eh/α   predicted    -0.8524663E-02 (  -3.41%)
   displ. norm   :     0.0228657 α      lambda       -0.4640390E-03
   maximum displ.:     0.0167977 α      in ANC's #3, #6, #1, ...

........................................................................
.............................. CYCLE    7 ..............................
........................................................................
   1    -13.2288709 -0.132289E+02  0.203E-02    4.13       0.0  T
   2    -13.2288712 -0.257473E-06  0.132E-02    4.14       3.1  T
   3    -13.2288712 -0.399271E-07  0.459E-03    4.14       8.9  T
   4    -13.2288712 -0.455295E-08  0.642E-04    4.14      63.6  T
     SCC iter.                  ...        0 min,  0.000 sec
     gradient                   ...        0 min,  0.001 sec
 * total energy  :   -13.1758562 Eh     change       -0.3851294E-03 Eh
   gradient norm :     0.0157521 Eh/α   predicted    -0.2321407E-03 ( -39.72%)
   displ. norm   :     0.0868281 α      lambda       -0.7670520E-03
   maximum displ.:     0.0662679 α      in ANC's #1, #3, #6, ...

........................................................................
.............................. CYCLE    8 ..............................
........................................................................
   1    -13.2344936 -0.132345E+02  0.924E-02    4.11       0.0  T
   2    -13.2344956 -0.203381E-05  0.588E-02    4.12       1.0  T
   3    -13.2344959 -0.310494E-06  0.108E-02    4.13       3.8  T
   4    -13.2344960 -0.880106E-07  0.380E-03    4.13      10.7  T
   5    -13.2344960 -0.185563E-07  0.148E-03    4.13      27.5  T
   6    -13.2344960 -0.302554E-08  0.699E-04    4.13      58.4  T
     SCC iter.                  ...        0 min,  0.000 sec
     gradient                   ...        0 min,  0.001 sec
 * total energy  :   -13.1760418 Eh     change       -0.1856043E-03 Eh
   gradient norm :     0.0178017 Eh/α   predicted    -0.3864141E-03 ( 108.19%)
   displ. norm   :     0.2407822 α      lambda       -0.1313020E-02
   maximum displ.:     0.2268910 α      in ANC's #1, #3, #6, ...

........................................................................
.............................. CYCLE    9 ..............................
........................................................................
   1    -13.2403254 -0.132403E+02  0.272E-01    4.07       0.0  T
   2    -13.2403325 -0.712901E-05  0.169E-01    4.09       1.0  T
   3    -13.2403339 -0.138612E-05  0.195E-02    4.11       2.1  T
   4    -13.2403343 -0.441281E-06  0.892E-03    4.10       4.6  T
   5    -13.2403344 -0.800257E-07  0.330E-03    4.10      12.4  T
   6    -13.2403344 -0.137026E-07  0.167E-03    4.10      24.4  T
   7    -13.2403344 -0.476977E-08  0.499E-04    4.10      81.8  T
     SCC iter.                  ...        0 min,  0.001 sec
     gradient                   ...        0 min,  0.001 sec
 * total energy  :   -13.1743356 Eh     change        0.1706248E-02 Eh
   gradient norm :     0.0649798 Eh/α   predicted    -0.6945566E-03 (-140.71%)
   displ. norm   :     0.1700195 α      lambda       -0.3798767E-02
   maximum displ.:     0.1526845 α      in ANC's #1, #3, #6, ...

........................................................................
.............................. CYCLE   10 ..............................
........................................................................
   1    -13.2341468 -0.132341E+02  0.187E-01    4.15       0.0  T
   2    -13.2341518 -0.490942E-05  0.116E-01    4.14       1.0  T
   3    -13.2341527 -0.954086E-06  0.167E-02    4.12       2.4  T
   4    -13.2341529 -0.198734E-06  0.450E-03    4.13       9.1  T
   5    -13.2341529 -0.276294E-07  0.254E-03    4.13      16.1  T
     SCC iter.                  ...        0 min,  0.001 sec
     gradient                   ...        0 min,  0.001 sec
 * total energy  :   -13.1762562 Eh     change       -0.1920634E-02 Eh
   gradient norm :     0.0114642 Eh/α   predicted    -0.1954298E-02 (   1.75%)
   displ. norm   :     0.0206392 α      lambda       -0.3104292E-04
   maximum displ.:     0.0166467 α      in ANC's #2, #1, #3, ...

........................................................................
.............................. CYCLE   11 ..............................
........................................................................
   1    -13.2340527 -0.132341E+02  0.244E-02    4.13       0.0  T
   2    -13.2340528 -0.979020E-07  0.151E-02    4.13       2.7  T
   3    -13.2340528 -0.372617E-08  0.318E-03    4.13      12.8  T
   4    -13.2340528 -0.155372E-07  0.108E-03    4.13      37.8  T
   5    -13.2340528 -0.113546E-08  0.570E-04    4.13      71.6  T
     SCC iter.                  ...        0 min,  0.000 sec
     gradient                   ...        0 min,  0.001 sec
 * total energy  :   -13.1762666 Eh     change       -0.1040865E-04 Eh
   gradient norm :     0.0056033 Eh/α   predicted    -0.1552718E-04 (  49.18%)
   displ. norm   :     0.0509783 α      lambda       -0.1162379E-03
   maximum displ.:     0.0393294 α      in ANC's #2, #1, #3, ...

........................................................................
.............................. CYCLE   12 ..............................
........................................................................
   1    -13.2336039 -0.132336E+02  0.521E-02    4.12       0.0  T
   2    -13.2336053 -0.143415E-05  0.314E-02    4.11       1.3  T
   3    -13.2336054 -0.601878E-07  0.129E-02    4.12       3.2  T
   4    -13.2336055 -0.954494E-07  0.216E-03    4.12      18.9  T
   5    -13.2336055 -0.403541E-08  0.973E-04    4.12      41.9  T
     SCC iter.                  ...        0 min,  0.000 sec
     gradient                   ...        0 min,  0.001 sec
 * total energy  :   -13.1762429 Eh     change        0.2371489E-04 Eh
   gradient norm :     0.0400874 Eh/α   predicted    -0.5826918E-04 (-345.71%)
   displ. norm   :     0.0299742 α      lambda       -0.1264247E-03
   maximum displ.:     0.0208933 α      in ANC's #2, #1, #3, ...

........................................................................
.............................. CYCLE   13 ..............................
........................................................................
   1    -13.2336540 -0.132337E+02  0.303E-02    4.12       0.0  T
   2    -13.2336541 -0.111496E-06  0.187E-02    4.12       2.2  T
   3    -13.2336541 -0.860004E-08  0.291E-03    4.12      14.0  T
   4    -13.2336541 -0.153809E-07  0.102E-03    4.12      39.9  T
     SCC iter.                  ...        0 min,  0.000 sec
     gradient                   ...        0 min,  0.001 sec
 * total energy  :   -13.1763134 Eh     change       -0.7054692E-04 Eh
   gradient norm :     0.0079800 Eh/α   predicted    -0.6326861E-04 ( -10.32%)
   displ. norm   :     0.0072691 α      lambda       -0.1268147E-04
   maximum displ.:     0.0051085 α      in ANC's #3, #1, #2, ...

........................................................................
.............................. CYCLE   14 ..............................
........................................................................
   1    -13.2334567 -0.132335E+02  0.896E-03    4.12       0.0  T
   2    -13.2334568 -0.106799E-06  0.494E-03    4.12       8.3  T
   3    -13.2334568 -0.739024E-08  0.276E-03    4.12      14.8  T
   4    -13.2334568 -0.192613E-08  0.452E-04    4.12      90.3  T
     SCC iter.                  ...        0 min,  0.000 sec
     gradient                   ...        0 min,  0.001 sec
 * total energy  :   -13.1763228 Eh     change       -0.9376567E-05 Eh
   gradient norm :     0.0025646 Eh/α   predicted    -0.6340919E-05 ( -32.37%)
   displ. norm   :     0.0078213 α      lambda       -0.7379376E-05
   maximum displ.:     0.0070415 α      in ANC's #3, #6, #1, ...

........................................................................
.............................. CYCLE   15 ..............................
........................................................................
   1    -13.2332095 -0.132332E+02  0.102E-02    4.12       0.0  T
   2    -13.2332097 -0.187014E-06  0.536E-03    4.12       7.6  T
   3    -13.2332097 -0.137620E-07  0.312E-03    4.12      13.1  T
   4    -13.2332097 -0.204798E-08  0.577E-04    4.12      70.7  T
   5    -13.2332097 -0.339609E-09  0.337E-04    4.12     121.0  T
     SCC iter.                  ...        0 min,  0.000 sec
     gradient                   ...        0 min,  0.001 sec
 * total energy  :   -13.1763267 Eh     change       -0.3880703E-05 Eh
   gradient norm :     0.0004985 Eh/α   predicted    -0.3691113E-05 (  -4.89%)
   displ. norm   :     0.0012049 α      lambda       -0.7364137E-07
   maximum displ.:     0.0007542 α      in ANC's #3, #2, #1, ...

   *** GEOMETRY OPTIMIZATION CONVERGED AFTER 15 ITERATIONS ***

------------------------------------------------------------------------
 total energy gain   :        -6.4355082 Eh    -4038.3424 kcal/mol
 total RMSD          :         0.2015183 a0        0.1066 Å
 total power (kW/mol):     -1126.4283020 (step)********** (real)
------------------------------------------------------------------------

 ANCopt (total)                0 d,  0 h,  0 min,  0.029 sec
 optimizer setup                ...        0 min,  0.000 sec (  0.195%)
 model hessian                  ...        0 min,  0.000 sec (  0.306%)
 ANC generation                 ...        0 min,  0.000 sec (  0.237%)
 coordinate transformation      ...        0 min,  0.000 sec (  0.232%)
 single point calculation       ...        0 min,  0.027 sec ( 94.445%)
 optimization log               ...        0 min,  0.000 sec (  1.379%)
 hessian update                 ...        0 min,  0.000 sec (  0.193%)
 rational function              ...        0 min,  0.000 sec (  1.574%)

================
 final structure:
================
6
 xtb: 6.2.3 (830e466)
F        -2.65452876676676   -0.15550009630334    0.04680812206866
Cl        1.92322011221469    0.11402909035442   -0.03246831700601
C        -1.05408115683072   -0.06143059143137    0.01952073306955
H        -0.76707681474507   -0.61445811948266   -0.85935495984082
H        -0.74279266861505   -0.51686778809071    0.94470210511988
H        -0.84768070525709    0.99413750495366   -0.04051768341125
 
 Bond Distances (Angstroems)
 ---------------------------
F1-C3=1.6034         C3-F1=1.6034         C3-H4=1.0773         C3-H5=1.0772         C3-H6=1.0772         H4-C3=1.0773         
H5-C3=1.0772         H6-C3=1.0772         
 C  H  Rav=1.0772 sigma=0.0001  Rmin=1.0772  Rmax=1.0773     3
 F  C  Rav=1.6034 sigma=0.0000  Rmin=1.6034  Rmax=1.6034     1
 
 selected bond angles (degree)
 --------------------
H4-C3-F1=104.46                H5-C3-F1=104.42                H5-C3-H4=114.00                H6-C3-F1=104.46                
H6-C3-H4=113.99                H6-C3-H5=114.00                
 
 selected dihedral angles (degree)
 ---------------------------------

 
 CMA Distance (Angstroems)
 ---------------------------
R(CMA):  3.7142
           -------------------------------------------------
          |                Final Singlepoint                |
           -------------------------------------------------

          ...................................................
          :                      SETUP                      :
          :.................................................:
          :  # basis functions                  21          :
          :  # atomic orbitals                  20          :
          :  # shells                           10          :
          :  # electrons                        22          :
          :  max. iterations                   250          :
          :  Hamiltonian                  GFN2-xTB          :
          :  restarted?                      false          :
          :  GBSA solvation                  false          :
          :  PC potential                    false          :
          :  electronic temp.          300.0000000     K    :
          :  accuracy                    1.0000000          :
          :  -> integral cutoff          0.2500000E+02      :
          :  -> integral neglect         0.1000000E-07      :
          :  -> SCF convergence          0.1000000E-05 Eh   :
          :  -> wf. convergence          0.1000000E-03 e    :
          :  Broyden damping             0.4000000          :
          ...................................................

 iter      E             dE          RMSdq      gap      omega  full diag
   1    -13.2332097 -0.132332E+02  0.192E-04    4.12       0.0  T
   2    -13.2332097 -0.235172E-10  0.155E-04    4.12     263.1  T
   3    -13.2332097 -0.416893E-10  0.491E-05    4.12     831.2  T

   *** convergence criteria satisfied after 3 iterations ***

         #    Occupation            Energy/Eh            Energy/eV
      -------------------------------------------------------------
         1        2.0000           -0.7871717             -21.4200
       ...           ...                  ...                  ...
         5        2.0000           -0.3739446             -10.1756
         6        2.0000           -0.3710703             -10.0973
         7        2.0000           -0.3169110              -8.6236
         8        2.0000           -0.3169079              -8.6235
         9        2.0000           -0.1903773              -5.1804
        10        2.0000           -0.1886647              -5.1338
        11        2.0000           -0.1886646              -5.1338 (HOMO)
        12                         -0.0372555              -1.0138 (LUMO)
        13                          0.2755843               7.4990
        14                          0.3377225               9.1899
        15                          0.3377373               9.1903
        16                          0.3391577               9.2289
       ...                                ...                  ...
        20                          0.3714318              10.1072
      -------------------------------------------------------------
                  HL-Gap            0.1514091 Eh            4.1201 eV
             Fermi-level           -0.1129600 Eh           -3.0738 eV

 SCC (total)                   0 d,  0 h,  0 min,  0.002 sec
 SCC setup                      ...        0 min,  0.000 sec (  2.884%)
 Dispersion                     ...        0 min,  0.000 sec (  0.437%)
 integral evaluation            ...        0 min,  0.001 sec ( 38.552%)
 zeroth order Hamiltonian       ...        0 min,  0.000 sec (  0.859%)
 iterations                     ...        0 min,  0.000 sec ( 14.666%)
 molecular gradient             ...        0 min,  0.001 sec ( 38.246%)
 printout                       ...        0 min,  0.000 sec (  3.175%)

         :::::::::::::::::::::::::::::::::::::::::::::::::::::
         ::                     SUMMARY                     ::
         :::::::::::::::::::::::::::::::::::::::::::::::::::::
         :: total energy             -13.176326703059 Eh    ::
         :: gradient norm              0.000499417643 Eh/a0 ::
         :: HOMO-LUMO gap              4.120050069284 eV    ::
         ::.................................................::
         :: SCC energy               -13.233209703367 Eh    ::
         :: -> isotropic ES            0.169623794316 Eh    ::
         :: -> anisotropic ES         -0.001552816767 Eh    ::
         :: -> anisotropic XC          0.002689179464 Eh    ::
         :: -> dispersion             -0.001794875428 Eh    ::
         :: repulsion energy           0.056796324076 Eh    ::
         :: add. restraining           0.000086911955 Eh    ::
         :::::::::::::::::::::::::::::::::::::::::::::::::::::

           -------------------------------------------------
          |                Property Printout                |
           -------------------------------------------------

    * Orbital Energies and Occupations

         #    Occupation            Energy/Eh            Energy/eV
      -------------------------------------------------------------
         1        2.0000           -0.7871717             -21.4200
         2        2.0000           -0.6328667             -17.2212
         3        2.0000           -0.4628504             -12.5948
         4        2.0000           -0.3739712             -10.1763
         5        2.0000           -0.3739446             -10.1756
         6        2.0000           -0.3710703             -10.0973
         7        2.0000           -0.3169110              -8.6236
         8        2.0000           -0.3169079              -8.6235
         9        2.0000           -0.1903773              -5.1804
        10        2.0000           -0.1886647              -5.1338
        11        2.0000           -0.1886646              -5.1338 (HOMO)
        12                         -0.0372555              -1.0138 (LUMO)
        13                          0.2755843               7.4990
        14                          0.3377225               9.1899
        15                          0.3377373               9.1903
        16                          0.3391577               9.2289
        17                          0.3397290               9.2445
        18                          0.3397291               9.2445
        19                          0.3712058              10.1010
        20                          0.3714318              10.1072
      -------------------------------------------------------------
                  HL-Gap            0.1514091 Eh            4.1201 eV
             Fermi-level           -0.1129600 Eh           -3.0738 eV

     #   Z        covCN         q      C6AA      α(0)
     1   9 F      0.725    -0.357    13.002     4.258
     2  17 Cl     0.001    -0.982   126.279    17.102
     3   6 C      3.504     0.052    21.206     6.824
     4   1 H      0.926     0.096     1.822     2.111
     5   1 H      0.926     0.096     1.823     2.111
     6   1 H      0.926     0.096     1.822     2.111

 Mol. C6AA /au·bohr⁶  :        547.175159
 Mol. C8AA /au·bohr⁸  :      15849.995562
 Mol. α(0) /au        :         34.517936


Wiberg/Mayer (AO) data.
largest (>0.10) Wiberg bond orders for each atom
          total WBO             WBO to atom ...
     1  F   0.885        C    3 0.858
     2  Cl  0.035
     3  C   3.836        H    5 0.985    H    6 0.985    H    4 0.985    F    1 0.858
     4  H   0.991        C    3 0.985
     5  H   0.991        C    3 0.985
     6  H   0.991        C    3 0.985

molecular dipole:
                 x           y           z       tot (Debye)
 q only:       -2.308      -0.137       0.039
   full:       -2.107      -0.126       0.035       5.365
molecular quadrupole (traceless):
                xx          xy          yy          xz          yz          zz
 q only:      -21.640      -1.920      10.768       0.557       0.033      10.872
  q+dip:      -23.634      -2.095      11.761       0.608       0.036      11.874
   full:      -22.904      -2.031      11.397       0.590       0.035      11.507

           -------------------------------------------------
          |                Geometry Summary                 |
           -------------------------------------------------

      molecular mass/u    :       69.4858989
   center of mass at/Å    :        0.0390789       0.0030554       0.0002565
  moments of inertia/u·Å² :        0.3290627E+01   0.2828123E+03   0.2828124E+03
rotational constants/cm⁻¹ :        0.5122924E+01   0.5960715E-01   0.5960712E-01

 * 3 selected distances

     #   Z        #   Z                                     value/Å
     3   6 C      4   1 H                                 1.0773270 (max)
     3   6 C      5   1 H                                 1.0771649 (min)
     3   6 C      6   1 H                                 1.0772325

 * 1 distinct bonds (by element types)

   Z      Z             #   av. dist./Å        max./Å        min./Å
   1 H    6 C           3     1.0772414     1.0773270     1.0771649


optimized geometry written to: xtbopt.xyz


           -------------------------------------------------
          | TOTAL ENERGY              -13.176326703059 Eh   |
          | GRADIENT NORM               0.000499417643 Eh/α |
          | HOMO-LUMO GAP               4.120050069284 eV   |
           -------------------------------------------------

------------------------------------------------------------------------
 * finished run on 2020/04/08 at 23:04:53.451     
------------------------------------------------------------------------
 total:
 * wall-time:     0 d,  0 h,  0 min,  0.046 sec
 *  cpu-time:     0 d,  0 h,  0 min,  0.040 sec
 * ratio c/w:     0.875 speedup
 SCF:
 * wall-time:     0 d,  0 h,  0 min,  0.003 sec
 *  cpu-time:     0 d,  0 h,  0 min,  0.003 sec
 * ratio c/w:     1.000 speedup
 ANC optimizer:
 * wall-time:     0 d,  0 h,  0 min,  0.031 sec
 *  cpu-time:     0 d,  0 h,  0 min,  0.031 sec
 * ratio c/w:     1.000 speedup

