      -----------------------------------------------------------      
     |                   =====================                   |     
     |                           x T B                           |     
     |                   =====================                   |     
     |                         S. Grimme                         |     
     |          Mulliken Center for Theoretical Chemistry        |     
     |                    University of Bonn                     |     
      -----------------------------------------------------------      

   * xtb version 6.2.3 (830e466) compiled by 'ehlert@majestix' on 2020-03-16

   xtb is free software: you can redistribute it and/or modify it under
   the terms of the GNU Lesser General Public License as published by
   the Free Software Foundation, either version 3 of the License, or
   (at your option) any later version.
   
   xtb is distributed in the hope that it will be useful,
   but WITHOUT ANY WARRANTY; without even the implied warranty of
   MERCHANTABILITY or FITNESS FOR A PARTICULAR PURPOSE.  See the
   GNU Lesser General Public License for more details.
   
   Cite this work as:
   * S. Grimme, C. Bannwarth, P. Shushkov, J. Chem. Theory Comput., 2017,
     13, 1989-2009. DOI: 10.1021/acs.jctc.7b00118
   * C. Bannwarth, S. Ehlert and S. Grimme., J. Chem. Theory Comput., 2019,
     15, 1652-1671. DOI: 10.1021/acs.jctc.8b01176
   * P. Pracht, E. Caldeweyher, S. Ehlert, S. Grimme, ChemRxiv, 2019, preprint.
     DOI: 10.26434/chemrxiv.8326202.v1
   
   for DFT-D4:
   * E. Caldeweyher, C. Bannwarth and S. Grimme, J. Chem. Phys., 2017,
     147, 034112. DOI: 10.1063/1.4993215
   * E. Caldeweyher, S. Ehlert, A. Hansen, H. Neugebauer, S. Spicher,
     C. Bannwarth and S. Grimme, J. Chem. Phys., 2019, 150, 154122.
     DOI: 10.1063/1.5090222
   
   for sTDA-xTB:
   * S. Grimme and C. Bannwarth, J. Chem. Phys., 2016, 145, 054103.
     DOI: 10.1063/1.4959605
   
   in the mass-spec context:
   * V. Asgeirsson, C. Bauer and S. Grimme, Chem. Sci., 2017, 8, 4879.
     DOI: 10.1039/c7sc00601b
   
   for metadynamics refer to:
   * S. Grimme, J. Chem. Theory Comput., 2019, 155, 2847-2862
     DOI: 10.1021/acs.jctc.9b00143
   
   with help from (in alphabetical order)
   C. Bannwarth, F. Bohle, G. Brandenburg, E. Caldeweyher, M. Checinski,
   S. Dohm, S. Ehlert, S. Ehrlich, F. März, H. Neugebauer, J. Pisarek,
   P. Pracht, P. Shushkov, and S. Spicher.
   
 * started run on 2020/04/08 at 13:05:41.404     

           -------------------------------------------------
          |                Calculation Setup                |
           -------------------------------------------------

          program call               : /home/tom/.local/bin/xtb SN2_PES_scan_5-4_xtb.xyz --chrg -1 --opt --input xcontrol_SN2_PES_scan_5-4
          coordinate file            : SN2_PES_scan_5-4_xtb.xyz
          omp threads                :                     4
          number of atoms            :                     6
          number of electrons        :                    22
          charge                     :                    -1
          spin                       :                   0.0
          first test random number   :      0.53198628649992

constraining bond 1 3 to    1.5000000 Å, actual value:    1.9985632 Å
constraining bond 2 3 to    3.5560000 Å, actual value:    3.1117103 Å

molecular fragmentation (1/2 indicates fragments):
122222
# atoms in fragment 1/2:     1     5
 fragment masses (1/2) :       19.00       50.49
CMA distance (Bohr)    :   7.922
constraining FC (au)   : 10.0000
########################################################################
[WARNING] Please study the warnings concerning your input carefully
-2- prog_main: XTBPATH is not set, using XTBHOME instead
-1- prog_main: XTBHOME is not set, using HOME instead
########################################################################
           ------------------------------------------------- 
          |                 G F N 2 - x T B                 |
          | Geometry, Frequencies, Noncovalent interactions |
          |            JCTC 2019 parametrisation            |
           ------------------------------------------------- 
             k(s)              :                1.8500
             k(p)              :                2.2300
             k(d)              :                2.2300
             k(f)              :                2.0000
             kEN (H0ij)        :               -2.0000
             D4 a1             :                0.5200
             D4 a2             :                5.0000
             D4 s6             :                1.0000
             D4 s8             :                2.7000
             D4 s9             :                5.0000
             alphaj            :                2.0000

  Z AO/shell   Hii/eV     exponent
  1     Wed Apr 25 08:07:45 CEST 2018   EN: 2.200 GM2: 0.406  GM3: 0.0800  RAES: 1.40
     1s    -10.707211    1.230000
  6     Wed Apr 25 08:07:45 CEST 2018   EN: 2.550 GM2: 0.538  GM3: 0.1500  RAES: 3.00
     2s    -13.970922    2.096432
     2p    -10.063292    1.800000
  9     Mon Apr 23 13:58:50 CEST 2018   EN: 3.980 GM2: 0.532  GM3: 0.1426  RAES: 2.40
     2s    -23.458179    2.416361
     2p    -15.746583    2.308399
 17     Mon Apr 23 14:09:22 CEST 2018   EN: 3.160 GM2: 0.249  GM3: 0.1495  RAES: 2.50
     3s    -29.278781    2.485265
     3p    -12.673758    2.199650
     3d     -0.240338    2.476089

           ------------------------------------------------- 
          |        Self-Consistent Charge Iterations        |
           ------------------------------------------------- 

          ...................................................
          :                      SETUP                      :
          :.................................................:
          :  # basis functions                  21          :
          :  # atomic orbitals                  20          :
          :  # shells                           10          :
          :  # electrons                        22          :
          :  max. iterations                   250          :
          :  Hamiltonian                  GFN2-xTB          :
          :  restarted?                      false          :
          :  GBSA solvation                  false          :
          :  PC potential                    false          :
          :  electronic temp.          300.0000000     K    :
          :  accuracy                    1.0000000          :
          :  -> integral cutoff          0.2500000E+02      :
          :  -> integral neglect         0.1000000E-07      :
          :  -> SCF convergence          0.1000000E-05 Eh   :
          :  -> wf. convergence          0.1000000E-03 e    :
          :  Broyden damping             0.4000000          :
          ...................................................

 iter      E             dE          RMSdq      gap      omega  full diag
   1    -13.0849275 -0.130849E+02  0.693E+00    3.83       0.0  T
   2    -13.0743790  0.105484E-01  0.412E+00    1.53       1.0  T
   3    -13.1557682 -0.813891E-01  0.387E+00    1.44       1.0  T
   4    -13.1381018  0.176663E-01  0.361E+00    0.40       1.0  T
   5    -13.1827808 -0.446790E-01  0.139E+00    0.78       1.0  T
   6    -13.1876916 -0.491080E-02  0.339E-01    1.01       1.0  T
   7    -13.1879285 -0.236878E-03  0.114E-01    0.90       1.0  T
   8    -13.1879372 -0.870471E-05  0.698E-02    0.93       1.0  T
   9    -13.1879434 -0.622894E-05  0.493E-02    0.93       1.0  T
  10    -13.1879478 -0.439935E-05  0.334E-02    0.94       1.2  T
  11    -13.1879503 -0.243491E-05  0.171E-02    0.93       2.4  T
  12    -13.1879509 -0.623560E-06  0.980E-03    0.93       4.2  T
  13    -13.1879510 -0.101531E-06  0.755E-03    0.93       5.4  T
  14    -13.1879511 -0.140906E-06  0.156E-03    0.92      26.2  T
  15    -13.1879511 -0.631123E-08  0.513E-04    0.92      79.6  T
  16    -13.1879511 -0.796417E-09  0.126E-04    0.92     324.0  T

   *** convergence criteria satisfied after 16 iterations ***

         #    Occupation            Energy/Eh            Energy/eV
      -------------------------------------------------------------
         1        2.0000           -0.8126548             -22.1135
       ...           ...                  ...                  ...
         5        2.0000           -0.3669149              -9.9843
         6        2.0000           -0.3081689              -8.3857
         7        2.0000           -0.2784190              -7.5762
         8        2.0000           -0.2784114              -7.5760
         9        2.0000           -0.2080900              -5.6624
        10        2.0000           -0.2043943              -5.5619
        11        2.0000           -0.2043932              -5.5618 (HOMO)
        12                         -0.1704224              -4.6374 (LUMO)
        13                          0.2515499               6.8450
        14                          0.3058776               8.3234
        15                          0.3058824               8.3235
        16                          0.3059728               8.3259
       ...                                ...                  ...
        20                          0.3962893              10.7836
      -------------------------------------------------------------
                  HL-Gap            0.0339708 Eh            0.9244 eV
             Fermi-level           -0.1870740 Eh           -5.0905 eV

 SCC (total)                   0 d,  0 h,  0 min,  0.013 sec
 SCC setup                      ...        0 min,  0.000 sec (  0.514%)
 Dispersion                     ...        0 min,  0.000 sec (  0.127%)
 integral evaluation            ...        0 min,  0.001 sec (  8.024%)
 zeroth order Hamiltonian       ...        0 min,  0.000 sec (  0.127%)
 iterations                     ...        0 min,  0.007 sec ( 53.179%)
 molecular gradient             ...        0 min,  0.005 sec ( 37.371%)
 printout                       ...        0 min,  0.000 sec (  0.491%)

         :::::::::::::::::::::::::::::::::::::::::::::::::::::
         ::                     SUMMARY                     ::
         :::::::::::::::::::::::::::::::::::::::::::::::::::::
         :: total energy               2.796077231611 Eh    ::
         :: gradient norm             43.721278949517 Eh/a0 ::
         :: HOMO-LUMO gap              0.924392236429 eV    ::
         ::.................................................::
         :: SCC energy               -13.187951145571 Eh    ::
         :: -> isotropic ES            0.168584652792 Eh    ::
         :: -> anisotropic ES         -0.001390251277 Eh    ::
         :: -> anisotropic XC          0.005261826252 Eh    ::
         :: -> dispersion             -0.001796087542 Eh    ::
         :: repulsion energy           0.058563436218 Eh    ::
         :: add. restraining          15.925465713203 Eh    ::
         :::::::::::::::::::::::::::::::::::::::::::::::::::::

      ----------------------------------------------------------- 
     |                   =====================                   |
     |                        A N C O P T                        |
     |                   =====================                   |
     |               Approximate Normal Coordinate               |
     |                Rational Function Optimizer                |
      ----------------------------------------------------------- 

          ...................................................
          :                      SETUP                      :
          :.................................................:
          :   optimization level            normal          :
          :   max. optcycles                   200          :
          :   ANC micro-cycles                  20          :
          :   degrees of freedom                12          :
          :.................................................:
          :   RF solver                   davidson          :
          :   write xtbopt.log                true          :
          :   linear?                        false          :
          :   energy convergence         0.5000000E-05 Eh   :
          :   grad. convergence          0.1000000E-02 Eh/α :
          :   maximium RF displ.         1.0000000          :
          :   Hlow (freq-cutoff)         0.1000000E-01      :
          :   Hmax (freq-cutoff)         5.0000000          :
          :   S6 in model hess.         20.0000000          :
          ...................................................

generating ANC from model Hessian ...
Using Lindh-Hessian (1995)
 Shifting diagonal of input Hessian by   0.748548122318116     
 Lowest  eigenvalues of input Hessian
    0.010000    0.010732   -0.000000   -0.000000    0.000000    0.000000
    0.000000    0.000000    0.778703    0.889739    0.889810    1.192074
    1.448183    1.448374    6.841100    6.841992   20.788353   60.905145
 Highest eigenvalues
    1.448183    1.448374    6.841100    6.841992   20.788353   60.905145
 

........................................................................
.............................. CYCLE    1 ..............................
........................................................................
   1    -13.1879511 -0.131880E+02  0.101E-05    0.92       0.0  T
   2    -13.1879511  0.230926E-13  0.765E-06    0.92    5335.6  T
   3    -13.1879511 -0.255795E-12  0.244E-06    0.92   16725.6  T
     SCC iter.                  ...        0 min,  0.001 sec
     gradient                   ...        0 min,  0.002 sec
 * total energy  :     2.7960772 Eh     change       -0.8091643E-09 Eh
   gradient norm :    43.7212811 Eh/α   predicted     0.0000000E+00 (-100.00%)
   displ. norm   :     0.9444532 α      lambda       -0.4129270E+02
   maximum displ.:     0.9439497 α      in ANC's #9, #12, #6, ...

........................................................................
.............................. CYCLE    2 ..............................
........................................................................
   1    -13.1801215 -0.131801E+02  0.255E+00    9.60       0.0  T
   2    -13.1941336 -0.140120E-01  0.137E+00    8.55       1.0  T
   3    -13.1955400 -0.140648E-02  0.749E-01    8.23       1.0  T
   4    -13.1956659 -0.125824E-03  0.298E-01    7.89       1.0  T
   5    -13.1957023 -0.364255E-04  0.268E-02    7.85       1.5  T
   6    -13.1957026 -0.339131E-06  0.131E-02    7.85       3.1  T
   7    -13.1957027 -0.482012E-07  0.190E-03    7.85      21.4  T
   8    -13.1957027 -0.472604E-08  0.913E-04    7.85      44.7  T
     SCC iter.                  ...        0 min,  0.002 sec
     gradient                   ...        0 min,  0.002 sec
 * total energy  :   -11.7427744 Eh     change       -0.1453885E+02 Eh
   gradient norm :    13.0798286 Eh/α   predicted    -0.3906273E+02 ( 168.68%)
   displ. norm   :     0.2413208 α      lambda       -0.2821569E+01
   maximum displ.:     0.2082693 α      in ANC's #9, #12, #3, ...

........................................................................
.............................. CYCLE    3 ..............................
........................................................................
   1    -13.2117480 -0.132117E+02  0.425E-01    6.12       0.0  T
   2    -13.2120322 -0.284224E-03  0.232E-01    6.28       1.0  T
   3    -13.2120815 -0.492242E-04  0.121E-01    6.38       1.0  T
   4    -13.2120828 -0.128807E-05  0.125E-02    6.40       3.3  T
   5    -13.2120829 -0.975425E-07  0.931E-03    6.40       4.4  T
   6    -13.2120830 -0.111707E-06  0.344E-03    6.40      11.9  T
   7    -13.2120830 -0.178144E-07  0.150E-03    6.40      27.2  T
     SCC iter.                  ...        0 min,  0.002 sec
     gradient                   ...        0 min,  0.001 sec
 * total energy  :   -13.1114550 Eh     change       -0.1368681E+01 Eh
   gradient norm :     1.6225038 Eh/α   predicted    -0.1492943E+01 (   9.08%)
   displ. norm   :     0.2654405 α      lambda       -0.4211037E+00
   maximum displ.:     0.2562704 α      in ANC's #12, #9, #3, ...

........................................................................
.............................. CYCLE    4 ..............................
........................................................................
   1    -13.2053551 -0.132054E+02  0.520E-01    3.23       0.0  T
   2    -13.2055572 -0.202150E-03  0.300E-01    3.38       1.0  T
   3    -13.2055964 -0.392034E-04  0.107E-01    3.50       1.0  T
   4    -13.2055997 -0.322706E-05  0.259E-02    3.50       1.6  T
   5    -13.2056005 -0.876363E-06  0.173E-02    3.51       2.4  T
   6    -13.2056008 -0.277455E-06  0.564E-03    3.51       7.2  T
   7    -13.2056009 -0.483741E-07  0.273E-03    3.51      14.9  T
     SCC iter.                  ...        0 min,  0.001 sec
     gradient                   ...        0 min,  0.002 sec
 * total energy  :   -12.8181747 Eh     change        0.2932802E+00 Eh
   gradient norm :     4.1595910 Eh/α   predicted    -0.2253870E+00 (-176.85%)
   displ. norm   :     0.1772652 α      lambda       -0.6935325E+00
   maximum displ.:     0.1726917 α      in ANC's #12, #9, #3, ...

........................................................................
.............................. CYCLE    5 ..............................
........................................................................
   1    -13.2182098 -0.132182E+02  0.366E-01    5.65       0.0  T
   2    -13.2182670 -0.571862E-04  0.214E-01    5.56       1.0  T
   3    -13.2182813 -0.142827E-04  0.508E-02    5.47       1.0  T
   4    -13.2182827 -0.143357E-05  0.133E-02    5.48       3.1  T
   5    -13.2182828 -0.122107E-06  0.525E-03    5.48       7.8  T
   6    -13.2182828 -0.310928E-07  0.311E-03    5.48      13.1  T
     SCC iter.                  ...        0 min,  0.001 sec
     gradient                   ...        0 min,  0.002 sec
 * total energy  :   -13.1773807 Eh     change       -0.3592060E+00 Eh
   gradient norm :     0.1445606 Eh/α   predicted    -0.3576626E+00 (  -0.43%)
   displ. norm   :     0.0635467 α      lambda       -0.4156747E-02
   maximum displ.:     0.0486397 α      in ANC's #3, #6, #1, ...

........................................................................
.............................. CYCLE    6 ..............................
........................................................................
   1    -13.2263317 -0.132263E+02  0.575E-02    5.58       0.0  T
   2    -13.2263336 -0.185089E-05  0.366E-02    5.59       1.1  T
   3    -13.2263339 -0.323986E-06  0.134E-02    5.60       3.0  T
   4    -13.2263339 -0.221615E-07  0.273E-03    5.60      15.0  T
   5    -13.2263339 -0.125742E-07  0.776E-04    5.60      52.6  T
     SCC iter.                  ...        0 min,  0.001 sec
     gradient                   ...        0 min,  0.002 sec
 * total energy  :   -13.1806191 Eh     change       -0.3238437E-02 Eh
   gradient norm :     0.0405987 Eh/α   predicted    -0.2086771E-02 ( -35.56%)
   displ. norm   :     0.2624461 α      lambda       -0.5913088E-02
   maximum displ.:     0.2198082 α      in ANC's #1, #3, #6, ...

........................................................................
.............................. CYCLE    7 ..............................
........................................................................
   1    -13.2411151 -0.132411E+02  0.267E-01    5.62       0.0  T
   2    -13.2411298 -0.147697E-04  0.167E-01    5.65       1.0  T
   3    -13.2411331 -0.331813E-05  0.313E-02    5.68       1.3  T
   4    -13.2411336 -0.466525E-06  0.396E-03    5.67      10.3  T
   5    -13.2411336 -0.941339E-08  0.240E-03    5.67      17.0  T
     SCC iter.                  ...        0 min,  0.002 sec
     gradient                   ...        0 min,  0.002 sec
 * total energy  :   -13.1812366 Eh     change       -0.6174731E-03 Eh
   gradient norm :     0.1009682 Eh/α   predicted    -0.3160174E-02 ( 411.79%)
   displ. norm   :     0.4730610 α      lambda       -0.9729706E-02
   maximum displ.:     0.4400502 α      in ANC's #1, #3, #6, ...

........................................................................
.............................. CYCLE    8 ..............................
........................................................................
   1    -13.2546955 -0.132547E+02  0.458E-01    5.57       0.0  T
   2    -13.2547255 -0.300384E-04  0.284E-01    5.59       1.0  T
   3    -13.2547329 -0.741986E-05  0.411E-02    5.63       1.0  T
   4    -13.2547337 -0.791022E-06  0.141E-02    5.62       2.9  T
   5    -13.2547338 -0.121157E-06  0.389E-03    5.62      10.5  T
   6    -13.2547338 -0.157229E-07  0.193E-03    5.62      21.1  T
     SCC iter.                  ...        0 min,  0.001 sec
     gradient                   ...        0 min,  0.002 sec
 * total energy  :   -13.1775461 Eh     change        0.3690462E-02 Eh
   gradient norm :     0.1260975 Eh/α   predicted    -0.5953665E-02 (-261.33%)
   displ. norm   :     0.2446901 α      lambda       -0.1210726E-01
   maximum displ.:     0.1897659 α      in ANC's #1, #3, #6, ...

........................................................................
.............................. CYCLE    9 ..............................
........................................................................
   1    -13.2418195 -0.132418E+02  0.221E-01    5.70       0.0  T
   2    -13.2418373 -0.177887E-04  0.133E-01    5.66       1.0  T
   3    -13.2418410 -0.373408E-05  0.367E-02    5.64       1.1  T
   4    -13.2418413 -0.263741E-06  0.324E-03    5.64      12.6  T
   5    -13.2418413 -0.860160E-08  0.184E-03    5.64      22.2  T
     SCC iter.                  ...        0 min,  0.001 sec
     gradient                   ...        0 min,  0.002 sec
 * total energy  :   -13.1838234 Eh     change       -0.6277309E-02 Eh
   gradient norm :     0.0286535 Eh/α   predicted    -0.6416037E-02 (   2.21%)
   displ. norm   :     0.0389124 α      lambda       -0.2309225E-03
   maximum displ.:     0.0351989 α      in ANC's #1, #3, #2, ...

........................................................................
.............................. CYCLE   10 ..............................
........................................................................
   1    -13.2424744 -0.132425E+02  0.416E-02    5.64       0.0  T
   2    -13.2424747 -0.325603E-06  0.258E-02    5.64       1.6  T
   3    -13.2424747 -0.466991E-07  0.437E-03    5.65       9.3  T
   4    -13.2424747 -0.115710E-07  0.175E-03    5.65      23.4  T
     SCC iter.                  ...        0 min,  0.002 sec
     gradient                   ...        0 min,  0.001 sec
 * total energy  :   -13.1839649 Eh     change       -0.1414419E-03 Eh
   gradient norm :     0.0136130 Eh/α   predicted    -0.1156367E-03 ( -18.24%)
   displ. norm   :     0.0323051 α      lambda       -0.1045308E-03
   maximum displ.:     0.0259554 α      in ANC's #2, #3, #1, ...

........................................................................
.............................. CYCLE   11 ..............................
........................................................................
   1    -13.2421558 -0.132422E+02  0.347E-02    5.64       0.0  T
   2    -13.2421562 -0.465381E-06  0.207E-02    5.64       2.0  T
   3    -13.2421563 -0.263147E-07  0.621E-03    5.64       6.6  T
   4    -13.2421563 -0.127548E-07  0.143E-03    5.64      28.5  T
   5    -13.2421563 -0.162490E-08  0.611E-04    5.64      66.9  T
     SCC iter.                  ...        0 min,  0.001 sec
     gradient                   ...        0 min,  0.001 sec
 * total energy  :   -13.1840095 Eh     change       -0.4457774E-04 Eh
   gradient norm :     0.0132609 Eh/α   predicted    -0.5232025E-04 (  17.37%)
   displ. norm   :     0.1084907 α      lambda       -0.4863856E-03
   maximum displ.:     0.0767185 α      in ANC's #2, #3, #6, ...

........................................................................
.............................. CYCLE   12 ..............................
........................................................................
   1    -13.2397732 -0.132398E+02  0.130E-01    5.60       0.0  T
   2    -13.2397835 -0.103789E-04  0.749E-02    5.59       1.0  T
   3    -13.2397839 -0.374930E-06  0.295E-02    5.60       1.4  T
   4    -13.2397841 -0.206260E-06  0.526E-03    5.60       7.8  T
   5    -13.2397841 -0.217544E-07  0.234E-03    5.60      17.5  T
   6    -13.2397842 -0.915240E-08  0.769E-04    5.60      53.1  T
     SCC iter.                  ...        0 min,  0.001 sec
     gradient                   ...        0 min,  0.001 sec
 * total energy  :   -13.1837407 Eh     change        0.2687840E-03 Eh
   gradient norm :     0.0797013 Eh/α   predicted    -0.2460560E-03 (-191.54%)
   displ. norm   :     0.0707653 α      lambda       -0.7482517E-03
   maximum displ.:     0.0514003 α      in ANC's #2, #3, #1, ...

........................................................................
.............................. CYCLE   13 ..............................
........................................................................
   1    -13.2412498 -0.132412E+02  0.841E-02    5.63       0.0  T
   2    -13.2412532 -0.333089E-05  0.493E-02    5.63       1.0  T
   3    -13.2412533 -0.132647E-06  0.169E-02    5.63       2.4  T
   4    -13.2412534 -0.787497E-07  0.315E-03    5.63      13.0  T
   5    -13.2412534 -0.730279E-08  0.120E-03    5.63      34.1  T
     SCC iter.                  ...        0 min,  0.001 sec
     gradient                   ...        0 min,  0.001 sec
 * total energy  :   -13.1841283 Eh     change       -0.3876398E-03 Eh
   gradient norm :     0.0111016 Eh/α   predicted    -0.3760004E-03 (  -3.00%)
   displ. norm   :     0.0055984 α      lambda       -0.1068558E-04
   maximum displ.:     0.0040727 α      in ANC's #1, #2, #6, ...

........................................................................
.............................. CYCLE   14 ..............................
........................................................................
   1    -13.2410106 -0.132410E+02  0.684E-03    5.63       0.0  T
   2    -13.2410107 -0.216547E-07  0.393E-03    5.63      10.4  T
   3    -13.2410107 -0.100730E-08  0.141E-03    5.63      29.0  T
   4    -13.2410107 -0.538153E-09  0.258E-04    5.63     158.3  T
     SCC iter.                  ...        0 min,  0.001 sec
     gradient                   ...        0 min,  0.001 sec
 * total energy  :   -13.1841357 Eh     change       -0.7435010E-05 Eh
   gradient norm :     0.0045010 Eh/α   predicted    -0.5344425E-05 ( -28.12%)
   displ. norm   :     0.0037182 α      lambda       -0.3223639E-05
   maximum displ.:     0.0023322 α      in ANC's #3, #6, #1, ...

........................................................................
.............................. CYCLE   15 ..............................
........................................................................
   1    -13.2408085 -0.132408E+02  0.484E-03    5.64       0.0  T
   2    -13.2408085 -0.222803E-07  0.254E-03    5.63      16.1  T
   3    -13.2408085 -0.648262E-09  0.124E-03    5.63      33.0  T
     SCC iter.                  ...        0 min,  0.000 sec
     gradient                   ...        0 min,  0.001 sec
 * total energy  :   -13.1841374 Eh     change       -0.1637825E-05 Eh
   gradient norm :     0.0002225 Eh/α   predicted    -0.1612329E-05 (  -1.56%)
   displ. norm   :     0.0003834 α      lambda       -0.1995843E-07
   maximum displ.:     0.0002765 α      in ANC's #1, #6, #5, ...

   *** GEOMETRY OPTIMIZATION CONVERGED AFTER 15 ITERATIONS ***

------------------------------------------------------------------------
 total energy gain   :       -15.9802146 Eh   -10027.7361 kcal/mol
 total RMSD          :         0.3324407 a0        0.1759 Å
 total power (kW/mol):     -2797.0698491 (step)********** (real)
------------------------------------------------------------------------

 ANCopt (total)                0 d,  0 h,  0 min,  0.054 sec
 optimizer setup                ...        0 min,  0.000 sec (  0.103%)
 model hessian                  ...        0 min,  0.000 sec (  0.233%)
 ANC generation                 ...        0 min,  0.000 sec (  0.254%)
 coordinate transformation      ...        0 min,  0.000 sec (  0.128%)
 single point calculation       ...        0 min,  0.052 sec ( 94.889%)
 optimization log               ...        0 min,  0.000 sec (  0.657%)
 hessian update                 ...        0 min,  0.001 sec (  2.186%)
 rational function              ...        0 min,  0.000 sec (  0.750%)

================
 final structure:
================
6
 xtb: 6.2.3 (830e466)
F        -2.68069860850246   -0.15366810166296    0.05139671839088
Cl        2.36409608350923    0.15065153781684   -0.02882151346470
C        -1.18453916307833   -0.07184943135746    0.01901854185737
H        -0.86917310706264   -0.62143368606924   -0.85770483721300
H        -0.83451817601679   -0.52329363075759    0.93743133569729
H        -0.93807702884896    0.97952331203040   -0.04262024526783
 
 Bond Distances (Angstroems)
 ---------------------------
F1-C3=1.4987         C3-F1=1.4987         C3-H4=1.0817         C3-H5=1.0816         C3-H6=1.0816         H4-C3=1.0817         
H5-C3=1.0816         H6-C3=1.0816         
 C  H  Rav=1.0816 sigma=0.0001  Rmin=1.0816  Rmax=1.0817     3
 F  C  Rav=1.4987 sigma=0.0000  Rmin=1.4987  Rmax=1.4987     1
 
 selected bond angles (degree)
 --------------------
H4-C3-F1=106.31                H5-C3-F1=106.38                H5-C3-H4=112.45                H6-C3-F1=106.37                
H6-C3-H4=112.41                H6-C3-H5=112.36                
 
 selected dihedral angles (degree)
 ---------------------------------

 
 CMA Distance (Angstroems)
 ---------------------------
R(CMA):  4.0139
           -------------------------------------------------
          |                Final Singlepoint                |
           -------------------------------------------------

          ...................................................
          :                      SETUP                      :
          :.................................................:
          :  # basis functions                  21          :
          :  # atomic orbitals                  20          :
          :  # shells                           10          :
          :  # electrons                        22          :
          :  max. iterations                   250          :
          :  Hamiltonian                  GFN2-xTB          :
          :  restarted?                      false          :
          :  GBSA solvation                  false          :
          :  PC potential                    false          :
          :  electronic temp.          300.0000000     K    :
          :  accuracy                    1.0000000          :
          :  -> integral cutoff          0.2500000E+02      :
          :  -> integral neglect         0.1000000E-07      :
          :  -> SCF convergence          0.1000000E-05 Eh   :
          :  -> wf. convergence          0.1000000E-03 e    :
          :  Broyden damping             0.4000000          :
          ...................................................

 iter      E             dE          RMSdq      gap      omega  full diag
   1    -13.2408085 -0.132408E+02  0.182E-04    5.63       0.0  T
   2    -13.2408085 -0.184794E-10  0.135E-04    5.63     302.0  T
   3    -13.2408085 -0.227924E-10  0.664E-05    5.63     614.9  T

   *** convergence criteria satisfied after 3 iterations ***

         #    Occupation            Energy/Eh            Energy/eV
      -------------------------------------------------------------
         1        2.0000           -0.7787469             -21.1908
       ...           ...                  ...                  ...
         5        2.0000           -0.4005485             -10.8995
         6        2.0000           -0.4004105             -10.8957
         7        2.0000           -0.3371322              -9.1738
         8        2.0000           -0.3370487              -9.1716
         9        2.0000           -0.1827297              -4.9723
        10        2.0000           -0.1817412              -4.9454
        11        2.0000           -0.1817395              -4.9454 (HOMO)
        12                          0.0253133               0.6888 (LUMO)
        13                          0.2609823               7.1017
        14                          0.3400333               9.2528
        15                          0.3402412               9.2584
        16                          0.3493097               9.5052
       ...                                ...                  ...
        20                          0.3499702               9.5232
      -------------------------------------------------------------
                  HL-Gap            0.2070528 Eh            5.6342 eV
             Fermi-level           -0.0782131 Eh           -2.1283 eV

 SCC (total)                   0 d,  0 h,  0 min,  0.001 sec
 SCC setup                      ...        0 min,  0.000 sec (  3.215%)
 Dispersion                     ...        0 min,  0.000 sec (  0.462%)
 integral evaluation            ...        0 min,  0.000 sec ( 20.229%)
 zeroth order Hamiltonian       ...        0 min,  0.000 sec (  0.875%)
 iterations                     ...        0 min,  0.000 sec ( 24.304%)
 molecular gradient             ...        0 min,  0.001 sec ( 46.140%)
 printout                       ...        0 min,  0.000 sec (  3.470%)

         :::::::::::::::::::::::::::::::::::::::::::::::::::::
         ::                     SUMMARY                     ::
         :::::::::::::::::::::::::::::::::::::::::::::::::::::
         :: total energy             -13.184137400429 Eh    ::
         :: gradient norm              0.000224456187 Eh/a0 ::
         :: HOMO-LUMO gap              5.634192969356 eV    ::
         ::.................................................::
         :: SCC energy               -13.240808535073 Eh    ::
         :: -> isotropic ES            0.170734718133 Eh    ::
         :: -> anisotropic ES         -0.001045506444 Eh    ::
         :: -> anisotropic XC          0.000880865322 Eh    ::
         :: -> dispersion             -0.001603703551 Eh    ::
         :: repulsion energy           0.056615088754 Eh    ::
         :: add. restraining           0.000056467736 Eh    ::
         :::::::::::::::::::::::::::::::::::::::::::::::::::::

           -------------------------------------------------
          |                Property Printout                |
           -------------------------------------------------

    * Orbital Energies and Occupations

         #    Occupation            Energy/Eh            Energy/eV
      -------------------------------------------------------------
         1        2.0000           -0.7787469             -21.1908
         2        2.0000           -0.6685501             -18.1922
         3        2.0000           -0.4844622             -13.1829
         4        2.0000           -0.4031790             -10.9711
         5        2.0000           -0.4005485             -10.8995
         6        2.0000           -0.4004105             -10.8957
         7        2.0000           -0.3371322              -9.1738
         8        2.0000           -0.3370487              -9.1716
         9        2.0000           -0.1827297              -4.9723
        10        2.0000           -0.1817412              -4.9454
        11        2.0000           -0.1817395              -4.9454 (HOMO)
        12                          0.0253133               0.6888 (LUMO)
        13                          0.2609823               7.1017
        14                          0.3400333               9.2528
        15                          0.3402412               9.2584
        16                          0.3493097               9.5052
        17                          0.3497390               9.5169
        18                          0.3497612               9.5175
        19                          0.3499612               9.5229
        20                          0.3499702               9.5232
      -------------------------------------------------------------
                  HL-Gap            0.2070528 Eh            5.6342 eV
             Fermi-level           -0.0782131 Eh           -2.1283 eV

     #   Z        covCN         q      C6AA      α(0)
     1   9 F      0.769    -0.314    12.483     4.173
     2  17 Cl     0.000    -0.999   126.973    17.149
     3   6 C      3.545     0.054    20.672     6.655
     4   1 H      0.925     0.086     1.921     2.168
     5   1 H      0.925     0.086     1.914     2.163
     6   1 H      0.925     0.087     1.912     2.162

 Mol. C6AA /au·bohr⁶  :        547.329095
 Mol. C8AA /au·bohr⁸  :      15836.041332
 Mol. α(0) /au        :         34.471366


Wiberg/Mayer (AO) data.
largest (>0.10) Wiberg bond orders for each atom
          total WBO             WBO to atom ...
     1  F   0.927        C    3 0.901
     2  Cl  0.002
     3  C   3.855        H    4 0.984    H    5 0.984    H    6 0.984    F    1 0.901
     4  H   0.993        C    3 0.984
     5  H   0.993        C    3 0.984
     6  H   0.993        C    3 0.984

molecular dipole:
                 x           y           z       tot (Debye)
 q only:       -3.425      -0.226       0.033
   full:       -3.232      -0.216       0.029       8.234
molecular quadrupole (traceless):
                xx          xy          yy          xz          yz          zz
 q only:      -27.448      -2.550      13.650       0.588       0.034      13.798
  q+dip:      -29.563      -2.723      14.703       0.659       0.039      14.860
   full:      -28.865      -2.666      14.355       0.635       0.038      14.509

           -------------------------------------------------
          |                Geometry Summary                 |
           -------------------------------------------------

      molecular mass/u    :       69.4858989
   center of mass at/Å    :        0.2301938       0.0200344       0.0031730
  moments of inertia/u·Å² :        0.3258927E+01   0.3531919E+03   0.3531954E+03
rotational constants/cm⁻¹ :        0.5172755E+01   0.4772938E-01   0.4772891E-01

 * 3 selected distances

     #   Z        #   Z                                     value/Å
     3   6 C      4   1 H                                 1.0817312 (max)
     3   6 C      5   1 H                                 1.0815723 (min)
     3   6 C      6   1 H                                 1.0816319

 * 1 distinct bonds (by element types)

   Z      Z             #   av. dist./Å        max./Å        min./Å
   1 H    6 C           3     1.0816451     1.0817312     1.0815723


optimized geometry written to: xtbopt.xyz


           -------------------------------------------------
          | TOTAL ENERGY              -13.184137400429 Eh   |
          | GRADIENT NORM               0.000224456187 Eh/α |
          | HOMO-LUMO GAP               5.634192969356 eV   |
           -------------------------------------------------

------------------------------------------------------------------------
 * finished run on 2020/04/08 at 13:05:41.494     
------------------------------------------------------------------------
 total:
 * wall-time:     0 d,  0 h,  0 min,  0.089 sec
 *  cpu-time:     0 d,  0 h,  0 min,  0.150 sec
 * ratio c/w:     1.678 speedup
 SCF:
 * wall-time:     0 d,  0 h,  0 min,  0.013 sec
 *  cpu-time:     0 d,  0 h,  0 min,  0.018 sec
 * ratio c/w:     1.439 speedup
 ANC optimizer:
 * wall-time:     0 d,  0 h,  0 min,  0.056 sec
 *  cpu-time:     0 d,  0 h,  0 min,  0.110 sec
 * ratio c/w:     1.955 speedup

