      -----------------------------------------------------------      
     |                   =====================                   |     
     |                           x T B                           |     
     |                   =====================                   |     
     |                         S. Grimme                         |     
     |          Mulliken Center for Theoretical Chemistry        |     
     |                    University of Bonn                     |     
      -----------------------------------------------------------      

   * xtb version 6.2.3 (830e466) compiled by 'ehlert@majestix' on 2020-03-16

   xtb is free software: you can redistribute it and/or modify it under
   the terms of the GNU Lesser General Public License as published by
   the Free Software Foundation, either version 3 of the License, or
   (at your option) any later version.
   
   xtb is distributed in the hope that it will be useful,
   but WITHOUT ANY WARRANTY; without even the implied warranty of
   MERCHANTABILITY or FITNESS FOR A PARTICULAR PURPOSE.  See the
   GNU Lesser General Public License for more details.
   
   Cite this work as:
   * S. Grimme, C. Bannwarth, P. Shushkov, J. Chem. Theory Comput., 2017,
     13, 1989-2009. DOI: 10.1021/acs.jctc.7b00118
   * C. Bannwarth, S. Ehlert and S. Grimme., J. Chem. Theory Comput., 2019,
     15, 1652-1671. DOI: 10.1021/acs.jctc.8b01176
   * P. Pracht, E. Caldeweyher, S. Ehlert, S. Grimme, ChemRxiv, 2019, preprint.
     DOI: 10.26434/chemrxiv.8326202.v1
   
   for DFT-D4:
   * E. Caldeweyher, C. Bannwarth and S. Grimme, J. Chem. Phys., 2017,
     147, 034112. DOI: 10.1063/1.4993215
   * E. Caldeweyher, S. Ehlert, A. Hansen, H. Neugebauer, S. Spicher,
     C. Bannwarth and S. Grimme, J. Chem. Phys., 2019, 150, 154122.
     DOI: 10.1063/1.5090222
   
   for sTDA-xTB:
   * S. Grimme and C. Bannwarth, J. Chem. Phys., 2016, 145, 054103.
     DOI: 10.1063/1.4959605
   
   in the mass-spec context:
   * V. Asgeirsson, C. Bauer and S. Grimme, Chem. Sci., 2017, 8, 4879.
     DOI: 10.1039/c7sc00601b
   
   for metadynamics refer to:
   * S. Grimme, J. Chem. Theory Comput., 2019, 155, 2847-2862
     DOI: 10.1021/acs.jctc.9b00143
   
   with help from (in alphabetical order)
   C. Bannwarth, F. Bohle, G. Brandenburg, E. Caldeweyher, M. Checinski,
   S. Dohm, S. Ehlert, S. Ehrlich, F. März, H. Neugebauer, J. Pisarek,
   P. Pracht, P. Shushkov, and S. Spicher.
   
 * started run on 2020/04/08 at 23:04:04.477     

           -------------------------------------------------
          |                Calculation Setup                |
           -------------------------------------------------

          program call               : /home/tom/.local/bin/xtb SN2_PES_scan_2-3_xtb.xyz --chrg -1 --opt --input xcontrol_SN2_PES_scan_2-3
          coordinate file            : SN2_PES_scan_2-3_xtb.xyz
          omp threads                :                     1
          number of atoms            :                     6
          number of electrons        :                    22
          charge                     :                    -1
          spin                       :                   0.0
          first test random number   :      0.83451353941748

constraining bond 1 3 to    3.0000000 Å, actual value:    3.4999870 Å
constraining bond 2 3 to    3.1120000 Å, actual value:    2.6672057 Å

molecular fragmentation (1/2 indicates fragments):
122222
# atoms in fragment 1/2:     1     5
 fragment masses (1/2) :       19.00       50.49
CMA distance (Bohr)    :  10.144
constraining FC (au)   : 10.0000
########################################################################
[WARNING] Please study the warnings concerning your input carefully
-2- prog_main: XTBPATH is not set, using XTBHOME instead
-1- prog_main: XTBHOME is not set, using HOME instead
########################################################################
           ------------------------------------------------- 
          |                 G F N 2 - x T B                 |
          | Geometry, Frequencies, Noncovalent interactions |
          |            JCTC 2019 parametrisation            |
           ------------------------------------------------- 
             k(s)              :                1.8500
             k(p)              :                2.2300
             k(d)              :                2.2300
             k(f)              :                2.0000
             kEN (H0ij)        :               -2.0000
             D4 a1             :                0.5200
             D4 a2             :                5.0000
             D4 s6             :                1.0000
             D4 s8             :                2.7000
             D4 s9             :                5.0000
             alphaj            :                2.0000

  Z AO/shell   Hii/eV     exponent
  1     Wed Apr 25 08:07:45 CEST 2018   EN: 2.200 GM2: 0.406  GM3: 0.0800  RAES: 1.40
     1s    -10.707211    1.230000
  6     Wed Apr 25 08:07:45 CEST 2018   EN: 2.550 GM2: 0.538  GM3: 0.1500  RAES: 3.00
     2s    -13.970922    2.096432
     2p    -10.063292    1.800000
  9     Mon Apr 23 13:58:50 CEST 2018   EN: 3.980 GM2: 0.532  GM3: 0.1426  RAES: 2.40
     2s    -23.458179    2.416361
     2p    -15.746583    2.308399
 17     Mon Apr 23 14:09:22 CEST 2018   EN: 3.160 GM2: 0.249  GM3: 0.1495  RAES: 2.50
     3s    -29.278781    2.485265
     3p    -12.673758    2.199650
     3d     -0.240338    2.476089

           ------------------------------------------------- 
          |        Self-Consistent Charge Iterations        |
           ------------------------------------------------- 

          ...................................................
          :                      SETUP                      :
          :.................................................:
          :  # basis functions                  21          :
          :  # atomic orbitals                  20          :
          :  # shells                           10          :
          :  # electrons                        22          :
          :  max. iterations                   250          :
          :  Hamiltonian                  GFN2-xTB          :
          :  restarted?                      false          :
          :  GBSA solvation                  false          :
          :  PC potential                    false          :
          :  electronic temp.          300.0000000     K    :
          :  accuracy                    1.0000000          :
          :  -> integral cutoff          0.2500000E+02      :
          :  -> integral neglect         0.1000000E-07      :
          :  -> SCF convergence          0.1000000E-05 Eh   :
          :  -> wf. convergence          0.1000000E-03 e    :
          :  Broyden damping             0.4000000          :
          ...................................................

 iter      E             dE          RMSdq      gap      omega  full diag
   1    -12.9055727 -0.129056E+02  0.930E+00    1.48       0.0  T
   2    -12.0909665  0.814606E+00  0.102E+01    0.00       1.0  T
   3    -13.0798110 -0.988844E+00  0.435E+00    1.48       1.0  T
   4    -13.0907203 -0.109093E-01  0.347E+00    1.41       1.0  T
   5    -12.1744414  0.916279E+00  0.980E+00    0.00       1.0  T
   6    -12.8350779 -0.660636E+00  0.532E+00    0.03       1.0  T
   7    -12.3783412  0.456737E+00  0.830E+00    0.01       1.0  T
   8    -12.8953618 -0.517021E+00  0.481E+00    0.04       1.0  T
   9    -12.1817464  0.713615E+00  0.945E+00    0.00       1.0  T
  10    -12.1864947 -0.474832E-02  0.937E+00    0.00       1.0  T
  11    -12.1858549  0.639830E-03  0.938E+00    0.00       1.0  T
  12    -12.1701542  0.157007E-01  0.977E+00    0.00       1.0  T
  13    -12.1612512  0.890299E-02  0.101E+01    0.01       1.0  T
  14    -12.1763380 -0.150868E-01  0.955E+00    0.00       1.0  T
  15    -13.0625331 -0.886195E+00  0.430E+00    1.68       1.0  T
  16    -13.0540569  0.847611E-02  0.450E+00    1.77       1.0  T
  17    -13.0684926 -0.144356E-01  0.369E+00    1.70       1.0  T
  18    -13.1383243 -0.698317E-01  0.201E+00    0.12       1.0  T
  19    -13.0842576  0.540666E-01  0.304E+00    1.54       1.0  T
  20    -13.1388938 -0.546361E-01  0.106E+00    0.15       1.0  T
  21    -12.1832426  0.955651E+00  0.943E+00    0.01       1.0  T
  22    -13.0716042 -0.888362E+00  0.360E+00    1.66       1.0  T
  23    -13.0992694 -0.276652E-01  0.255E+00    1.32       1.0  T
  24    -13.0938327  0.543673E-02  0.248E+00    0.85       1.0  T
  25    -12.3201784  0.773654E+00  0.866E+00    0.01       1.0  T
  26    -13.0795225 -0.759344E+00  0.319E+00    1.60       1.0  T
  27    -13.0964373 -0.169148E-01  0.245E+00    1.03       1.0  T
  28    -13.1000330 -0.359568E-02  0.220E+00    0.43       1.0  T
  29    -13.1324186 -0.323857E-01  0.121E+00    0.17       1.0  T
  30    -13.1412797 -0.886109E-02  0.807E-01    0.15       1.0  T
  31    -13.1423460 -0.106631E-02  0.743E-01    0.15       1.0  T
  32    -13.1443508 -0.200478E-02  0.631E-01    0.11       1.0  T
  33    -13.1238253  0.205255E-01  0.155E+00    0.19       1.0  T
  34    -13.0505696  0.732557E-01  0.304E+00    0.06       1.0  T
  35    -13.0967019 -0.461323E-01  0.234E+00    0.41       1.0  T
  36    -13.1455281 -0.488262E-01  0.502E-01    0.14       1.0  T
  37    -13.1480728 -0.254464E-02  0.154E-01    0.12       1.0  T
  38    -13.1482398 -0.166992E-03  0.678E-02    0.12       1.0  T
  39    -13.1437190  0.452081E-02  0.662E-01    0.10       1.0  T
  40    -13.1398860  0.383293E-02  0.907E-01    0.15       1.0  T
  41    -13.1228085  0.170776E-01  0.156E+00    0.09       1.0  T
  42    -13.1169393  0.586918E-02  0.177E+00    0.21       1.0  T
  43    -13.1383459 -0.214066E-01  0.987E-01    0.10       1.0  T
  44    -13.1299934  0.835242E-02  0.134E+00    0.18       1.0  T
  45    -13.1047413  0.252521E-01  0.203E+00    0.08       1.0  T
  46    -13.1112946 -0.655322E-02  0.193E+00    0.24       1.0  T
  47    -13.1443677 -0.330731E-01  0.628E-01    0.11       1.0  T
  48    -13.1413786  0.298914E-02  0.820E-01    0.15       1.0  T
  49    -13.1138292  0.275494E-01  0.181E+00    0.08       1.0  T
  50    -13.1195267 -0.569750E-02  0.169E+00    0.21       1.0  T
  51    -13.1422672 -0.227405E-01  0.769E-01    0.10       1.0  T
  52    -13.1411067  0.116043E-02  0.836E-01    0.15       1.0  T
  53    -13.1255129  0.155939E-01  0.147E+00    0.09       1.0  T
  54    -13.1296072 -0.409437E-02  0.136E+00    0.18       1.0  T
  55    -13.1396110 -0.100038E-01  0.916E-01    0.10       1.0  T
  56    -13.1409782 -0.136718E-02  0.844E-01    0.15       1.0  T
  57    -13.1353360  0.564211E-02  0.111E+00    0.10       1.0  T
  58    -13.1392219 -0.388581E-02  0.941E-01    0.15       1.0  T
  59    -13.1409968 -0.177497E-02  0.837E-01    0.10       1.0  T
  60    -13.1440073 -0.301050E-02  0.645E-01    0.14       1.0  T
  61    -13.1428821  0.112526E-02  0.721E-01    0.10       1.0  T
  62    -13.1459069 -0.302484E-02  0.481E-01    0.14       1.0  T
  63    -13.1455210  0.385936E-03  0.516E-01    0.11       1.0  T
  64    -13.1474909 -0.196994E-02  0.278E-01    0.13       1.0  T
  65    -13.1471392  0.351742E-03  0.333E-01    0.11       1.0  T
  66    -13.1481315 -0.992371E-03  0.123E-01    0.12       1.0  T
  67    -13.1479275  0.204056E-03  0.186E-01    0.12       1.0  T
  68    -13.1482789 -0.351398E-03  0.302E-02    0.12       1.4  T
  69    -13.1481906  0.883003E-04  0.970E-02    0.12       1.0  T
  70    -13.1482864 -0.958321E-04  0.129E-02    0.12       3.2  T
  71    -13.1482575  0.288928E-04  0.543E-02    0.12       1.0  T
  72    -13.1482800 -0.225140E-04  0.279E-02    0.12       1.5  T
  73    -13.1482762  0.381075E-05  0.339E-02    0.12       1.2  T
  74    -13.1482809 -0.471307E-05  0.263E-02    0.12       1.6  T
  75    -13.1482819 -0.915480E-06  0.246E-02    0.12       1.7  T
  76    -13.1482854 -0.356793E-05  0.161E-02    0.12       2.5  T
  77    -13.1482868 -0.136395E-05  0.114E-02    0.12       3.6  T
  78    -13.1482879 -0.108062E-05  0.504E-03    0.12       8.1  T
  79    -13.1482881 -0.233891E-06  0.170E-03    0.12      24.0  T
  80    -13.1482881 -0.299643E-07  0.142E-04    0.12     287.3  T
  81    -13.1482881  0.135060E-09  0.178E-04    0.12     228.8  T

   *** convergence criteria satisfied after 81 iterations ***

         #    Occupation            Energy/Eh            Energy/eV
      -------------------------------------------------------------
         1        2.0000           -0.8729083             -23.7530
       ...           ...                  ...                  ...
         5        2.0000           -0.3612417              -9.8299
         6        2.0000           -0.2689993              -7.3198
         7        2.0000           -0.2507766              -6.8240
         8        2.0000           -0.2507764              -6.8240
         9        1.9081           -0.2028788              -5.5206
        10        1.8982           -0.2027776              -5.5179
        11        1.8982           -0.2027774              -5.5179 (HOMO)
        12        0.2955           -0.1983329              -5.3969 (LUMO)
        13                          0.2278964               6.2014
        14                          0.2278965               6.2014
        15                          0.2290406               6.2325
        16                          0.2291360               6.2351
       ...                                ...                  ...
        20                          0.4096490              11.1471
      -------------------------------------------------------------
                  HL-Gap            0.0044445 Eh            0.1209 eV
             Fermi-level           -0.1999977 Eh           -5.4422 eV

 SCC (total)                   0 d,  0 h,  0 min,  0.010 sec
 SCC setup                      ...        0 min,  0.000 sec (  0.609%)
 Dispersion                     ...        0 min,  0.000 sec (  0.131%)
 integral evaluation            ...        0 min,  0.001 sec (  6.447%)
 zeroth order Hamiltonian       ...        0 min,  0.000 sec (  0.140%)
 iterations                     ...        0 min,  0.009 sec ( 85.793%)
 molecular gradient             ...        0 min,  0.001 sec (  6.116%)
 printout                       ...        0 min,  0.000 sec (  0.550%)

         :::::::::::::::::::::::::::::::::::::::::::::::::::::
         ::                     SUMMARY                     ::
         :::::::::::::::::::::::::::::::::::::::::::::::::::::
         :: total energy               2.903640246632 Eh    ::
         :: gradient norm             43.722307607278 Eh/a0 ::
         :: HOMO-LUMO gap              0.120940791189 eV    ::
         ::.................................................::
         :: SCC energy               -13.148288137916 Eh    ::
         :: -> isotropic ES            0.169078595762 Eh    ::
         :: -> anisotropic ES          0.000463696074 Eh    ::
         :: -> anisotropic XC          0.005650602614 Eh    ::
         :: -> dispersion             -0.001717844538 Eh    ::
         :: repulsion energy           0.059673304089 Eh    ::
         :: add. restraining          15.992258485425 Eh    ::
         :::::::::::::::::::::::::::::::::::::::::::::::::::::

      ----------------------------------------------------------- 
     |                   =====================                   |
     |                        A N C O P T                        |
     |                   =====================                   |
     |               Approximate Normal Coordinate               |
     |                Rational Function Optimizer                |
      ----------------------------------------------------------- 

          ...................................................
          :                      SETUP                      :
          :.................................................:
          :   optimization level            normal          :
          :   max. optcycles                   200          :
          :   ANC micro-cycles                  20          :
          :   degrees of freedom                12          :
          :.................................................:
          :   RF solver                   davidson          :
          :   write xtbopt.log                true          :
          :   linear?                        false          :
          :   energy convergence         0.5000000E-05 Eh   :
          :   grad. convergence          0.1000000E-02 Eh/α :
          :   maximium RF displ.         1.0000000          :
          :   Hlow (freq-cutoff)         0.1000000E-01      :
          :   Hmax (freq-cutoff)         5.0000000          :
          :   S6 in model hess.         20.0000000          :
          ...................................................

generating ANC from model Hessian ...
Using Lindh-Hessian (1995)
 Shifting diagonal of input Hessian by    2.26639447662869     
 Lowest  eigenvalues of input Hessian
    0.010000    0.010071   -0.000000   -0.000000   -0.000000    0.000000
    0.000000    0.000000    2.274068    2.411867    2.411877    2.706871
    2.727062    2.727086    3.857972    3.858108   22.271626   62.291190
 Highest eigenvalues
    2.727062    2.727086    3.857972    3.858108   22.271626   62.291190
 

........................................................................
.............................. CYCLE    1 ..............................
........................................................................
   1    -13.1482881 -0.131483E+02  0.119E-04    0.12       0.0  T
   2    -13.1482879  0.272670E-06  0.514E-03    0.12       7.9  T
   3    -13.1482881 -0.272811E-06  0.184E-05    0.12    2216.7  T
   4    -13.1482881 -0.266276E-11  0.868E-06    0.12    4703.6  T
     SCC iter.                  ...        0 min,  0.000 sec
     gradient                   ...        0 min,  0.001 sec
 * total energy  :     2.9036402 Eh     change       -0.6018903E-08 Eh
   gradient norm :    43.7223062 Eh/α   predicted     0.0000000E+00 (-100.00%)
   displ. norm   :     0.9444543 α      lambda       -0.4129372E+02
   maximum displ.:     0.9438943 α      in ANC's #11, #12, #6, ...

........................................................................
.............................. CYCLE    2 ..............................
........................................................................
   1    -12.3798408 -0.123798E+02  0.932E+00    0.05       0.0  T
   2    -12.6942895 -0.314449E+00  0.953E+00    3.31       1.0  T
   3    -13.0216146 -0.327325E+00  0.478E+00    0.33       1.0  T
   4    -12.9478982  0.737164E-01  0.561E+00    0.66       1.0  T
   5    -12.9919656 -0.440675E-01  0.453E+00    0.47       1.0  T
   6    -12.2642781  0.727688E+00  0.102E+01    0.02       1.0  T
   7    -12.2819496 -0.176715E-01  0.985E+00    0.03       1.0  T
   8    -13.0351991 -0.753249E+00  0.343E+00    0.30       1.0  T
   9    -13.0704584 -0.352594E-01  0.184E+00    0.36       1.0  T
  10    -13.0565905  0.138679E-01  0.233E+00    0.34       1.0  T
  11    -13.0673042 -0.107137E-01  0.198E+00    0.37       1.0  T
  12    -13.0860238 -0.187196E-01  0.129E+00    0.38       1.0  T
  13    -13.0769488  0.907500E-02  0.238E+00    0.25       1.0  T
  14    -13.0800000 -0.305125E-02  0.222E+00    0.26       1.0  T
  15    -13.0966206 -0.166206E-01  0.721E-01    0.36       1.0  T
  16    -13.0832124  0.134082E-01  0.203E+00    0.26       1.0  T
  17    -13.1007472 -0.175348E-01  0.779E-01    0.32       1.0  T
  18    -13.0612648  0.394824E-01  0.266E+00    0.24       1.0  T
  19    -13.1006513 -0.393864E-01  0.700E-01    0.32       1.0  T
  20    -13.0500789  0.505723E-01  0.288E+00    0.23       1.0  T
  21    -13.0996040 -0.495251E-01  0.763E-01    0.31       1.0  T
  22    -13.0618919  0.377121E-01  0.251E+00    0.24       1.0  T
  23    -13.0979524 -0.360605E-01  0.880E-01    0.31       1.0  T
  24    -13.0812570  0.166953E-01  0.181E+00    0.27       1.0  T
  25    -13.0969705 -0.157134E-01  0.926E-01    0.30       1.0  T
  26    -13.0946181  0.235233E-02  0.109E+00    0.30       1.0  T
  27    -13.1006211 -0.600300E-02  0.476E-01    0.33       1.0  T
  28    -13.1018634 -0.124223E-02  0.816E-02    0.34       1.0  T
  29    -13.1013795  0.483880E-03  0.243E-01    0.34       1.0  T
  30    -13.1010035  0.375966E-03  0.331E-01    0.34       1.0  T
  31    -13.1013898 -0.386325E-03  0.241E-01    0.34       1.0  T
  32    -13.1018303 -0.440414E-03  0.664E-02    0.34       1.0  T
  33    -13.1018695 -0.392831E-04  0.246E-02    0.34       1.7  T
  34    -13.1018649  0.467348E-05  0.361E-02    0.34       1.1  T
  35    -13.1018612  0.370058E-05  0.402E-02    0.34       1.0  T
  36    -13.1018642 -0.303237E-05  0.331E-02    0.34       1.2  T
  37    -13.1018688 -0.464964E-05  0.197E-02    0.34       2.1  T
  38    -13.1018710 -0.210976E-05  0.832E-03    0.34       4.9  T
  39    -13.1018714 -0.434396E-06  0.145E-03    0.34      28.1  T
  40    -13.1018714 -0.107393E-07  0.317E-04    0.34     128.9  T
     SCC iter.                  ...        0 min,  0.003 sec
     gradient                   ...        0 min,  0.001 sec
 * total energy  :   -11.6558911 Eh     change       -0.1455953E+02 Eh
   gradient norm :    12.9675355 Eh/α   predicted    -0.3906374E+02 ( 168.30%)
   displ. norm   :     0.2407299 α      lambda       -0.2784400E+01
   maximum displ.:     0.2071736 α      in ANC's #11, #12, #3, ...

........................................................................
.............................. CYCLE    3 ..............................
........................................................................
   1    -13.0905644 -0.130906E+02  0.209E+00    0.49       0.0  T
   2    -12.2497203  0.840844E+00  0.998E+00    0.03       1.0  T
   3    -13.1043411 -0.854621E+00  0.183E+00    0.34       1.0  T
   4    -13.1188224 -0.144813E-01  0.647E-01    0.27       1.0  T
   5    -13.1013732  0.174492E-01  0.173E+00    0.23       1.0  T
   6    -13.1197577 -0.183845E-01  0.215E-01    0.31       1.0  T
   7    -13.1069920  0.127657E-01  0.154E+00    0.40       1.0  T
   8    -13.1081391 -0.114713E-02  0.141E+00    0.40       1.0  T
   9    -13.1197592 -0.116201E-01  0.151E-01    0.30       1.0  T
  10    -13.1169960  0.276318E-02  0.694E-01    0.34       1.0  T
  11    -13.1191926 -0.219655E-02  0.351E-01    0.32       1.0  T
  12    -13.1195671 -0.374515E-03  0.264E-01    0.31       1.0  T
  13    -13.1199757 -0.408570E-03  0.642E-02    0.29       1.0  T
  14    -13.1200009 -0.252488E-04  0.188E-02    0.29       2.2  T
  15    -13.1199917  0.918250E-05  0.433E-02    0.29       1.0  T
  16    -13.1200025 -0.107710E-04  0.864E-03    0.30       4.7  T
  17    -13.1200030 -0.520973E-06  0.117E-03    0.30      34.8  T
  18    -13.1200030 -0.605659E-08  0.523E-04    0.29      78.1  T
     SCC iter.                  ...        0 min,  0.001 sec
     gradient                   ...        0 min,  0.001 sec
 * total energy  :   -13.0020033 Eh     change       -0.1346112E+01 Eh
   gradient norm :     1.6779096 Eh/α   predicted    -0.1472879E+01 (   9.42%)
   displ. norm   :     0.2661111 α      lambda       -0.4423954E+00
   maximum displ.:     0.2620457 α      in ANC's #12, #11, #3, ...

........................................................................
.............................. CYCLE    4 ..............................
........................................................................
   1    -13.0899689 -0.130900E+02  0.206E+00    0.17       0.0  T
   2    -12.9258995  0.164069E+00  0.630E+00    1.27       1.0  T
   3    -13.0619775 -0.136078E+00  0.308E+00    0.40       1.0  T
   4    -13.0612016  0.775843E-03  0.297E+00    0.47       1.0  T
   5    -13.0783318 -0.171302E-01  0.242E+00    0.43       1.0  T
   6    -12.7575170  0.320815E+00  0.645E+00    0.10       1.0  T
   7    -12.5709057  0.186611E+00  0.782E+00    0.08       1.0  T
   8    -13.0749077 -0.504002E+00  0.255E+00    0.44       1.0  T
   9    -13.0901567 -0.152489E-01  0.205E+00    0.36       1.0  T
  10    -13.0800645  0.100922E-01  0.245E+00    0.43       1.0  T
  11    -13.0819754 -0.191089E-02  0.239E+00    0.42       1.0  T
  12    -13.0853807 -0.340532E-02  0.212E+00    0.39       1.0  T
  13    -13.0815818  0.379892E-02  0.216E+00    0.41       1.0  T
  14    -13.1014223 -0.198405E-01  0.144E+00    0.31       1.0  T
  15    -13.1128050 -0.113828E-01  0.876E-01    0.26       1.0  T
  16    -13.1168103 -0.400531E-02  0.582E-01    0.25       1.0  T
  17    -13.1192505 -0.244020E-02  0.273E-01    0.23       1.0  T
  18    -13.1197890 -0.538419E-03  0.124E-01    0.23       1.0  T
  19    -13.1198615 -0.725574E-04  0.845E-02    0.22       1.0  T
  20    -13.1198870 -0.254867E-04  0.652E-02    0.22       1.0  T
  21    -13.1199176 -0.305706E-04  0.270E-02    0.22       1.5  T
  22    -13.1199237 -0.616075E-05  0.408E-03    0.22      10.0  T
  23    -13.1199239 -0.112675E-06  0.156E-03    0.22      26.2  T
  24    -13.1199238  0.305975E-07  0.253E-03    0.22      16.1  T
     SCC iter.                  ...        0 min,  0.002 sec
     gradient                   ...        0 min,  0.001 sec
 * total energy  :   -12.6975069 Eh     change        0.3044964E+00 Eh
   gradient norm :     4.2488024 Eh/α   predicted    -0.2368619E+00 (-177.79%)
   displ. norm   :     0.1792895 α      lambda       -0.7180586E+00
   maximum displ.:     0.1755836 α      in ANC's #12, #11, #3, ...

........................................................................
.............................. CYCLE    5 ..............................
........................................................................
   1    -13.1164883 -0.131165E+02  0.855E-01    0.31       0.0  T
   2    -12.3113589  0.805129E+00  0.934E+00    0.05       1.0  T
   3    -13.1023780 -0.791019E+00  0.191E+00    0.36       1.0  T
   4    -13.1123668 -0.998883E-02  0.106E+00    0.33       1.0  T
   5    -13.1135166 -0.114982E-02  0.941E-01    0.33       1.0  T
   6    -13.1206611 -0.714447E-02  0.268E-01    0.27       1.0  T
   7    -13.1206589  0.221285E-05  0.276E-01    0.27       1.0  T
   8    -13.1206919 -0.329696E-04  0.211E-01    0.26       1.0  T
   9    -13.1207424 -0.505366E-04  0.764E-02    0.27       1.0  T
  10    -13.1207623 -0.199228E-04  0.804E-03    0.27       5.1  T
  11    -13.1207625 -0.213103E-06  0.584E-03    0.27       7.0  T
  12    -13.1207627 -0.124770E-06  0.923E-04    0.27      44.2  T
     SCC iter.                  ...        0 min,  0.001 sec
     gradient                   ...        0 min,  0.001 sec
 * total energy  :   -13.0681939 Eh     change       -0.3706870E+00 Eh
   gradient norm :     0.1321135 Eh/α   predicted    -0.3705703E+00 (  -0.03%)
   displ. norm   :     0.0141319 α      lambda       -0.1098751E-02
   maximum displ.:     0.0102309 α      in ANC's #3, #12, #1, ...

........................................................................
.............................. CYCLE    6 ..............................
........................................................................
   1    -13.1220233 -0.131220E+02  0.688E-02    0.28       0.0  T
   2    -13.1061584  0.158649E-01  0.146E+00    0.22       1.0  T
   3    -13.1220112 -0.158528E-01  0.892E-02    0.27       1.0  T
   4    -13.1220024  0.883527E-05  0.100E-01    0.27       1.0  T
   5    -13.1219797  0.226892E-04  0.109E-01    0.27       1.0  T
   6    -13.1220535 -0.738113E-04  0.331E-02    0.27       1.2  T
   7    -13.1220618 -0.833500E-05  0.178E-03    0.27      22.9  T
   8    -13.1220615  0.292284E-06  0.665E-03    0.27       6.1  T
   9    -13.1220618 -0.291434E-06  0.193E-03    0.27      21.1  T
  10    -13.1220618 -0.303883E-07  0.402E-04    0.27     101.5  T
     SCC iter.                  ...        0 min,  0.001 sec
     gradient                   ...        0 min,  0.001 sec
 * total energy  :   -13.0688667 Eh     change       -0.6727808E-03 Eh
   gradient norm :     0.0233764 Eh/α   predicted    -0.5494854E-03 ( -18.33%)
   displ. norm   :     0.1024856 α      lambda       -0.4823383E-03
   maximum displ.:     0.0834235 α      in ANC's #1, #2, #3, ...

........................................................................
.............................. CYCLE    7 ..............................
........................................................................
   1    -13.1236098 -0.131236E+02  0.173E-01    0.28       0.0  T
   2    -13.1082204  0.153894E-01  0.144E+00    0.22       1.0  T
   3    -13.1236330 -0.154126E-01  0.119E-01    0.27       1.0  T
   4    -13.1234251  0.207950E-03  0.268E-01    0.27       1.0  T
   5    -13.1235956 -0.170523E-03  0.926E-02    0.27       1.0  T
   6    -13.1236538 -0.581847E-04  0.140E-02    0.27       2.9  T
   7    -13.1236513  0.255144E-05  0.237E-02    0.27       1.7  T
   8    -13.1236546 -0.336122E-05  0.777E-03    0.27       5.3  T
   9    -13.1236551 -0.464810E-06  0.604E-04    0.27      67.6  T
  10    -13.1236549  0.148936E-06  0.448E-03    0.27       9.1  T
     SCC iter.                  ...        0 min,  0.001 sec
     gradient                   ...        0 min,  0.001 sec
 * total energy  :   -13.0685753 Eh     change        0.2913454E-03 Eh
   gradient norm :     0.0490794 Eh/α   predicted    -0.2437010E-03 (-183.65%)
   displ. norm   :     0.1067165 α      lambda       -0.2086952E-02
   maximum displ.:     0.0749737 α      in ANC's #1, #2, #3, ...

........................................................................
.............................. CYCLE    8 ..............................
........................................................................
   1    -13.1287894 -0.131288E+02  0.245E-01    0.28       0.0  T
   2    -12.9700219  0.158767E+00  0.446E+00    0.15       1.0  T
   3    -13.1286063 -0.158584E+00  0.322E-01    0.26       1.0  T
   4    -13.1281694  0.436900E-03  0.406E-01    0.26       1.0  T
   5    -13.1245859  0.358352E-02  0.786E-01    0.24       1.0  T
   6    -13.1266405 -0.205466E-02  0.563E-01    0.25       1.0  T
   7    -13.1289449 -0.230435E-02  0.117E-01    0.27       1.0  T
   8    -13.1289910 -0.461467E-04  0.929E-02    0.27       1.0  T
   9    -13.1290732 -0.821197E-04  0.102E-02    0.27       4.0  T
  10    -13.1290725  0.646037E-06  0.113E-02    0.27       3.6  T
  11    -13.1290737 -0.113411E-05  0.773E-04    0.27      52.8  T
  12    -13.1290737 -0.268047E-08  0.408E-04    0.27     100.0  T
     SCC iter.                  ...        0 min,  0.001 sec
     gradient                   ...        0 min,  0.001 sec
 * total energy  :   -13.0695747 Eh     change       -0.9993975E-03 Eh
   gradient norm :     0.1419223 Eh/α   predicted    -0.1055351E-02 (   5.60%)
   displ. norm   :     0.0636415 α      lambda       -0.8574191E-03
   maximum displ.:     0.0573502 α      in ANC's #1, #2, #3, ...

........................................................................
.............................. CYCLE    9 ..............................
........................................................................
   1    -13.1299441 -0.131299E+02  0.107E-01    0.28       0.0  T
   2    -13.1212326  0.871145E-02  0.109E+00    0.23       1.0  T
   3    -13.1299498 -0.871716E-02  0.847E-02    0.27       1.0  T
   4    -13.1298986  0.512241E-04  0.150E-01    0.27       1.0  T
   5    -13.1299400 -0.414315E-04  0.667E-02    0.27       1.0  T
   6    -13.1299705 -0.304715E-04  0.726E-03    0.27       5.6  T
   7    -13.1299685  0.191613E-05  0.179E-02    0.27       2.3  T
   8    -13.1299708 -0.221662E-05  0.722E-04    0.27      56.5  T
   9    -13.1299707  0.213661E-07  0.197E-03    0.27      20.7  T
     SCC iter.                  ...        0 min,  0.001 sec
     gradient                   ...        0 min,  0.001 sec
 * total energy  :   -13.0699673 Eh     change       -0.3925502E-03 Eh
   gradient norm :     0.0523837 Eh/α   predicted    -0.4304479E-03 (   9.65%)
   displ. norm   :     0.3215679 α      lambda       -0.3195740E-02
   maximum displ.:     0.2956462 α      in ANC's #2, #1, #3, ...

........................................................................
.............................. CYCLE   10 ..............................
........................................................................
   1    -13.1315891 -0.131316E+02  0.504E-01    0.28       0.0  T
   2    -12.7074302  0.424159E+00  0.708E+00    0.11       1.0  T
   3    -13.1322433 -0.424813E+00  0.262E-01    0.27       1.0  T
   4    -13.1298906  0.235270E-02  0.718E-01    0.25       1.0  T
   5    -13.1278691  0.202145E-02  0.775E-01    0.24       1.0  T
   6    -13.1234886  0.438057E-02  0.107E+00    0.23       1.0  T
   7    -13.1296389 -0.615034E-02  0.548E-01    0.25       1.0  T
   8    -13.1320530 -0.241408E-02  0.144E-01    0.26       1.0  T
   9    -13.1321851 -0.132059E-03  0.912E-02    0.26       1.0  T
  10    -13.1322716 -0.865484E-04  0.191E-02    0.27       2.1  T
  11    -13.1322733 -0.166045E-05  0.602E-03    0.27       6.8  T
  12    -13.1322729  0.386557E-06  0.910E-03    0.27       4.5  T
  13    -13.1322728  0.335831E-07  0.932E-03    0.27       4.4  T
  14    -13.1322736 -0.743117E-06  0.158E-03    0.27      25.9  T
  15    -13.1322736 -0.192952E-08  0.150E-03    0.27      27.3  T
     SCC iter.                  ...        0 min,  0.001 sec
     gradient                   ...        0 min,  0.001 sec
 * total energy  :   -13.0600030 Eh     change        0.9964315E-02 Eh
   gradient norm :     0.4791392 Eh/α   predicted    -0.1763075E-02 (-117.69%)
   displ. norm   :     0.2587628 α      lambda       -0.2481812E-01
   maximum displ.:     0.2510846 α      in ANC's #2, #1, #12, ...

........................................................................
.............................. CYCLE   11 ..............................
........................................................................
   1    -13.1340974 -0.131341E+02  0.354E-01    0.28       0.0  T
   2    -13.1164778  0.176196E-01  0.156E+00    0.22       1.0  T
   3    -13.1327489 -0.162711E-01  0.491E-01    0.30       1.0  T
   4    -13.1330460 -0.297142E-03  0.398E-01    0.29       1.0  T
   5    -13.1337331 -0.687030E-03  0.259E-01    0.28       1.0  T
   6    -13.1339266 -0.193493E-03  0.193E-01    0.26       1.0  T
   7    -13.1340358 -0.109202E-03  0.144E-01    0.27       1.0  T
   8    -13.1341811 -0.145299E-03  0.295E-03    0.27      13.8  T
   9    -13.1341810  0.682423E-07  0.390E-03    0.27      10.5  T
  10    -13.1341811 -0.544583E-07  0.221E-03    0.27      18.4  T
     SCC iter.                  ...        0 min,  0.001 sec
     gradient                   ...        0 min,  0.001 sec
 * total energy  :   -13.0707717 Eh     change       -0.1076877E-01 Eh
   gradient norm :     0.0374051 Eh/α   predicted    -0.1323992E-01 (  22.95%)
   displ. norm   :     0.0317123 α      lambda       -0.3641553E-03
   maximum displ.:     0.0265893 α      in ANC's #3, #2, #1, ...

........................................................................
.............................. CYCLE   12 ..............................
........................................................................
   1    -13.1352385 -0.131352E+02  0.154E-01    0.28       0.0  T
   2    -13.0281811  0.107057E+00  0.370E+00    0.16       1.0  T
   3    -13.1353905 -0.107209E+00  0.793E-02    0.27       1.0  T
   4    -13.1352309  0.159569E-03  0.188E-01    0.27       1.0  T
   5    -13.1350342  0.196729E-03  0.236E-01    0.26       1.0  T
   6    -13.1349021  0.132011E-03  0.263E-01    0.26       1.0  T
   7    -13.1353899 -0.487747E-03  0.584E-02    0.27       1.0  T
   8    -13.1354057 -0.158054E-04  0.402E-02    0.27       1.0  T
   9    -13.1354203 -0.145953E-04  0.200E-03    0.27      20.4  T
  10    -13.1354202  0.790691E-07  0.332E-03    0.27      12.3  T
  11    -13.1354203 -0.927824E-07  0.412E-04    0.27      99.1  T
     SCC iter.                  ...        0 min,  0.001 sec
     gradient                   ...        0 min,  0.001 sec
 * total energy  :   -13.0710758 Eh     change       -0.3040350E-03 Eh
   gradient norm :     0.0217053 Eh/α   predicted    -0.1822604E-03 ( -40.05%)
   displ. norm   :     0.0936456 α      lambda       -0.8912393E-03
   maximum displ.:     0.0877059 α      in ANC's #3, #2, #6, ...

........................................................................
.............................. CYCLE   13 ..............................
........................................................................
   1    -13.1361688 -0.131362E+02  0.523E-01    0.30       0.0  T
   2    -12.4022978  0.733871E+00  0.906E+00    0.07       1.0  T
   3    -13.1375137 -0.735216E+00  0.302E-01    0.29       1.0  T
   4    -13.1379667 -0.453011E-03  0.298E-01    0.27       1.0  T
   5    -13.1373524  0.614257E-03  0.383E-01    0.26       1.0  T
   6    -13.1369991  0.353337E-03  0.444E-01    0.25       1.0  T
   7    -13.1371278 -0.128716E-03  0.569E-01    0.25       1.0  T
   8    -13.1379010 -0.773202E-03  0.227E-01    0.27       1.0  T
   9    -13.1382164 -0.315385E-03  0.386E-02    0.27       1.1  T
  10    -13.1382168 -0.404698E-06  0.664E-03    0.27       6.2  T
  11    -13.1382171 -0.291526E-06  0.252E-03    0.27      16.2  T
  12    -13.1382171  0.311785E-07  0.190E-03    0.27      21.5  T
     SCC iter.                  ...        0 min,  0.001 sec
     gradient                   ...        0 min,  0.001 sec
 * total energy  :   -13.0717102 Eh     change       -0.6344830E-03 Eh
   gradient norm :     0.0586361 Eh/α   predicted    -0.4495256E-03 ( -29.15%)
   displ. norm   :     0.1122099 α      lambda       -0.8569286E-03
   maximum displ.:     0.1090928 α      in ANC's #3, #6, #2, ...

........................................................................
.............................. CYCLE   14 ..............................
........................................................................
   1    -13.1362502 -0.131363E+02  0.663E-01    0.31       0.0  T
   2    -12.3365978  0.799652E+00  0.940E+00    0.06       1.0  T
   3    -13.1374351 -0.800837E+00  0.512E-01    0.30       1.0  T
   4    -13.1385214 -0.108631E-02  0.410E-01    0.29       1.0  T
   5    -13.1392935 -0.772113E-03  0.205E-01    0.26       1.0  T
   6    -13.1387446  0.548885E-03  0.359E-01    0.26       1.0  T
   7    -13.1380433  0.701348E-03  0.629E-01    0.25       1.0  T
   8    -13.1392487 -0.120546E-02  0.163E-01    0.27       1.0  T
   9    -13.1394279 -0.179199E-03  0.651E-02    0.28       1.0  T
  10    -13.1394340 -0.608558E-05  0.745E-03    0.27       5.5  T
  11    -13.1394341 -0.577386E-07  0.638E-03    0.27       6.4  T
  12    -13.1394341  0.430734E-08  0.320E-03    0.27      12.7  T
  13    -13.1394341 -0.240877E-07  0.197E-03    0.27      20.7  T
     SCC iter.                  ...        0 min,  0.001 sec
     gradient                   ...        0 min,  0.001 sec
 * total energy  :   -13.0724107 Eh     change       -0.7004605E-03 Eh
   gradient norm :     0.0766785 Eh/α   predicted    -0.4338599E-03 ( -38.06%)
   displ. norm   :     0.2178304 α      lambda       -0.1588322E-02
   maximum displ.:     0.2104329 α      in ANC's #3, #6, #7, ...

........................................................................
.............................. CYCLE   15 ..............................
........................................................................
   1    -13.1287391 -0.131287E+02  0.106E+00    0.34       0.0  T
   2    -12.2640287  0.864710E+00  0.975E+00    0.04       1.0  T
   3    -13.1319799 -0.867951E+00  0.834E-01    0.31       1.0  T
   4    -13.1337777 -0.179782E-02  0.640E-01    0.30       1.0  T
   5    -13.1344084 -0.630697E-03  0.613E-01    0.24       1.0  T
   6    -13.1344045  0.391157E-05  0.613E-01    0.24       1.0  T
   7    -13.1217267  0.126778E-01  0.223E+00    0.38       1.0  T
   8    -13.1358658 -0.141391E-01  0.289E-01    0.29       1.0  T
   9    -13.1364224 -0.556621E-03  0.242E-02    0.27       1.7  T
  10    -13.1363670  0.553575E-04  0.121E-01    0.28       1.0  T
  11    -13.1364190 -0.519888E-04  0.295E-02    0.27       1.4  T
  12    -13.1364243 -0.524295E-05  0.258E-02    0.27       1.6  T
  13    -13.1364254 -0.112541E-05  0.237E-02    0.27       1.7  T
  14    -13.1364266 -0.121877E-05  0.772E-03    0.27       5.3  T
  15    -13.1364269 -0.306988E-06  0.285E-04    0.27     143.0  T
  16    -13.1364269  0.644590E-09  0.418E-04    0.27      97.6  T
     SCC iter.                  ...        0 min,  0.001 sec
     gradient                   ...        0 min,  0.001 sec
 * total energy  :   -13.0733786 Eh     change       -0.9678595E-03 Eh
   gradient norm :     0.0571248 Eh/α   predicted    -0.8318319E-03 ( -14.05%)
   displ. norm   :     0.0282179 α      lambda       -0.2081488E-03
   maximum displ.:     0.0213240 α      in ANC's #3, #2, #6, ...

........................................................................
.............................. CYCLE   16 ..............................
........................................................................
   1    -13.1348850 -0.131349E+02  0.183E-01    0.28       0.0  T
   2    -12.9916597  0.143225E+00  0.422E+00    0.15       1.0  T
   3    -13.1347489 -0.143089E+00  0.225E-01    0.28       1.0  T
   4    -13.1348090 -0.601081E-04  0.201E-01    0.28       1.0  T
   5    -13.1350837 -0.274686E-03  0.568E-02    0.27       1.0  T
   6    -13.1351050 -0.213385E-04  0.237E-02    0.27       1.7  T
   7    -13.1350876  0.174122E-04  0.502E-02    0.27       1.0  T
   8    -13.1350971 -0.950574E-05  0.384E-02    0.27       1.1  T
   9    -13.1351054 -0.828713E-05  0.246E-02    0.27       1.7  T
  10    -13.1351098 -0.434674E-05  0.107E-02    0.27       3.8  T
  11    -13.1351108 -0.100593E-05  0.122E-03    0.27      33.4  T
  12    -13.1351108 -0.317155E-08  0.924E-04    0.27      44.2  T
     SCC iter.                  ...        0 min,  0.001 sec
     gradient                   ...        0 min,  0.001 sec
 * total energy  :   -13.0735208 Eh     change       -0.1422494E-03 Eh
   gradient norm :     0.0213707 Eh/α   predicted    -0.1041572E-03 ( -26.78%)
   displ. norm   :     0.0332364 α      lambda       -0.1208788E-03
   maximum displ.:     0.0290830 α      in ANC's #3, #2, #1, ...

........................................................................
.............................. CYCLE   17 ..............................
........................................................................
   1    -13.1343780 -0.131344E+02  0.873E-02    0.27       0.0  T
   2    -13.1338262  0.551821E-03  0.325E-01    0.29       1.0  T
   3    -13.1327124  0.111384E-02  0.487E-01    0.25       1.0  T
   4    -13.1343760 -0.166364E-02  0.630E-02    0.27       1.0  T
   5    -13.1343975 -0.215381E-04  0.708E-03    0.27       5.8  T
   6    -13.1343973  0.181520E-06  0.786E-03    0.27       5.2  T
   7    -13.1343978 -0.411764E-06  0.102E-03    0.27      40.0  T
   8    -13.1343977  0.165951E-07  0.178E-03    0.27      22.9  T
     SCC iter.                  ...        0 min,  0.001 sec
     gradient                   ...        0 min,  0.001 sec
 * total energy  :   -13.0735948 Eh     change       -0.7393580E-04 Eh
   gradient norm :     0.0074240 Eh/α   predicted    -0.6050465E-04 ( -18.17%)
   displ. norm   :     0.0144623 α      lambda       -0.2224820E-04
   maximum displ.:     0.0134773 α      in ANC's #3, #6, #2, ...

........................................................................
.............................. CYCLE   18 ..............................
........................................................................
   1    -13.1336790 -0.131337E+02  0.511E-02    0.27       0.0  T
   2    -13.1333761  0.302980E-03  0.247E-01    0.26       1.0  T
   3    -13.1331254  0.250630E-03  0.278E-01    0.29       1.0  T
   4    -13.1336833 -0.557864E-03  0.236E-02    0.27       1.7  T
   5    -13.1336859 -0.262061E-05  0.362E-03    0.27      11.3  T
   6    -13.1336859 -0.231388E-07  0.134E-03    0.27      30.5  T
   7    -13.1336859  0.245579E-08  0.114E-03    0.27      35.9  T
     SCC iter.                  ...        0 min,  0.000 sec
     gradient                   ...        0 min,  0.001 sec
 * total energy  :   -13.0736087 Eh     change       -0.1398384E-04 Eh
   gradient norm :     0.0060371 Eh/α   predicted    -0.1112634E-04 ( -20.43%)
   displ. norm   :     0.0063225 α      lambda       -0.4155469E-05
   maximum displ.:     0.0060628 α      in ANC's #3, #6, #2, ...

........................................................................
.............................. CYCLE   19 ..............................
........................................................................
   1    -13.1334011 -0.131334E+02  0.210E-02    0.27       0.0  T
   2    -13.1333900  0.111148E-04  0.621E-02    0.27       1.0  T
   3    -13.1334021 -0.121619E-04  0.563E-03    0.27       7.3  T
   4    -13.1333816  0.205106E-04  0.540E-02    0.27       1.0  T
   5    -13.1334022 -0.205711E-04  0.941E-04    0.27      43.4  T
   6    -13.1334022 -0.181960E-08  0.478E-04    0.27      85.5  T
   7    -13.1334022 -0.477351E-09  0.167E-04    0.27     244.5  T
     SCC iter.                  ...        0 min,  0.000 sec
     gradient                   ...        0 min,  0.001 sec
 * total energy  :   -13.0736112 Eh     change       -0.2437777E-05 Eh
   gradient norm :     0.0012033 Eh/α   predicted    -0.2078410E-05 ( -14.74%)
   displ. norm   :     0.0019187 α      lambda       -0.3277900E-06
   maximum displ.:     0.0015043 α      in ANC's #2, #3, #1, ...

........................................................................
.............................. CYCLE   20 ..............................
........................................................................
   1    -13.1333614 -0.131334E+02  0.426E-03    0.27       0.0  T
   2    -13.1333570  0.436342E-05  0.249E-02    0.27       1.6  T
   3    -13.1333599 -0.293067E-05  0.157E-02    0.27       2.6  T
   4    -13.1333614 -0.144242E-05  0.301E-03    0.27      13.5  T
   5    -13.1333614 -0.375000E-07  0.355E-04    0.27     114.8  T
   6    -13.1333614 -0.242544E-09  0.113E-04    0.27     361.9  T
     SCC iter.                  ...        0 min,  0.000 sec
     gradient                   ...        0 min,  0.001 sec
 * total energy  :   -13.0736114 Eh     change       -0.1991964E-06 Eh
   gradient norm :     0.0009532 Eh/α   predicted    -0.1645022E-06 ( -17.42%)
   displ. norm   :     0.0004339 α      lambda       -0.3531159E-07
   maximum displ.:     0.0003811 α      in ANC's #3, #6, #2, ...

   *** GEOMETRY OPTIMIZATION CONVERGED AFTER 20 ITERATIONS ***

------------------------------------------------------------------------
 total energy gain   :       -15.9772516 Eh   -10025.8768 kcal/mol
 total RMSD          :         0.3801331 a0        0.2012 Å
 total power (kW/mol):     -2097.4134189 (step)********** (real)
------------------------------------------------------------------------

 ANCopt (total)                0 d,  0 h,  0 min,  0.044 sec
 optimizer setup                ...        0 min,  0.000 sec (  0.126%)
 model hessian                  ...        0 min,  0.000 sec (  0.167%)
 ANC generation                 ...        0 min,  0.000 sec (  0.151%)
 coordinate transformation      ...        0 min,  0.000 sec (  0.198%)
 single point calculation       ...        0 min,  0.043 sec ( 95.852%)
 optimization log               ...        0 min,  0.000 sec (  0.997%)
 hessian update                 ...        0 min,  0.000 sec (  0.144%)
 rational function              ...        0 min,  0.001 sec (  1.174%)

================
 final structure:
================
6
 xtb: 6.2.3 (830e466)
F        -3.69706118464538   -0.21788672784906    0.06854101716718
Cl        2.40295723408027    0.13637214932782   -0.04417102403276
C        -0.70315575928984   -0.03915107245541    0.01326715737733
H        -0.69947666922273   -0.62247301624687   -0.88128957329532
H        -0.66955367480857   -0.52176060935446    0.96520439274636
H        -0.77664994611395    1.02483927657798   -0.04285196996291
 
 Bond Distances (Angstroems)
 ---------------------------
C3-H4=1.0679         C3-H5=1.0678         C3-H6=1.0680         H4-C3=1.0679         H5-C3=1.0678         H6-C3=1.0680         
 C  H  Rav=1.0679 sigma=0.0001  Rmin=1.0678  Rmax=1.0680     3
 
 selected bond angles (degree)
 --------------------
H5-C3-H4=119.98                H6-C3-H4=120.03                H6-C3-H5=119.95                
 
 selected dihedral angles (degree)
 ---------------------------------

 
 CMA Distance (Angstroems)
 ---------------------------
R(CMA):  5.1840
           -------------------------------------------------
          |                Final Singlepoint                |
           -------------------------------------------------

          ...................................................
          :                      SETUP                      :
          :.................................................:
          :  # basis functions                  21          :
          :  # atomic orbitals                  20          :
          :  # shells                           10          :
          :  # electrons                        22          :
          :  max. iterations                   250          :
          :  Hamiltonian                  GFN2-xTB          :
          :  restarted?                      false          :
          :  GBSA solvation                  false          :
          :  PC potential                    false          :
          :  electronic temp.          300.0000000     K    :
          :  accuracy                    1.0000000          :
          :  -> integral cutoff          0.2500000E+02      :
          :  -> integral neglect         0.1000000E-07      :
          :  -> SCF convergence          0.1000000E-05 Eh   :
          :  -> wf. convergence          0.1000000E-03 e    :
          :  Broyden damping             0.4000000          :
          ...................................................

 iter      E             dE          RMSdq      gap      omega  full diag
   1    -13.1333614 -0.131334E+02  0.493E-05    0.27       0.0  T
   2    -13.1333614  0.288948E-09  0.238E-04    0.27     171.5  T
   3    -13.1333614 -0.103935E-10  0.235E-04    0.27     174.1  T

   *** convergence criteria satisfied after 3 iterations ***

         #    Occupation            Energy/Eh            Energy/eV
      -------------------------------------------------------------
         1        2.0000           -0.8563818             -23.3033
       ...           ...                  ...                  ...
         5        2.0000           -0.3669399              -9.9849
         6        2.0000           -0.2463017              -6.7022
         7        2.0000           -0.2371045              -6.4519
         8        2.0000           -0.2371043              -6.4519
         9        1.9976           -0.2284590              -6.2167
        10        1.9933           -0.2274710              -6.1898
        11        1.9933           -0.2274707              -6.1898 (HOMO)
        12        0.0157           -0.2174635              -5.9175 (LUMO)
        13                          0.2395496               6.5185
        14                          0.2496555               6.7935
        15                          0.2496556               6.7935
        16                          0.2498365               6.7984
       ...                                ...                  ...
        20                          0.4075797              11.0908
      -------------------------------------------------------------
                  HL-Gap            0.0100072 Eh            0.2723 eV
             Fermi-level           -0.2220583 Eh           -6.0425 eV

 SCC (total)                   0 d,  0 h,  0 min,  0.002 sec
 SCC setup                      ...        0 min,  0.000 sec (  2.955%)
 Dispersion                     ...        0 min,  0.000 sec (  0.446%)
 integral evaluation            ...        0 min,  0.001 sec ( 39.511%)
 zeroth order Hamiltonian       ...        0 min,  0.000 sec (  1.031%)
 iterations                     ...        0 min,  0.000 sec ( 15.700%)
 molecular gradient             ...        0 min,  0.001 sec ( 35.047%)
 printout                       ...        0 min,  0.000 sec (  2.832%)

         :::::::::::::::::::::::::::::::::::::::::::::::::::::
         ::                     SUMMARY                     ::
         :::::::::::::::::::::::::::::::::::::::::::::::::::::
         :: total energy             -13.073611363934 Eh    ::
         :: gradient norm              0.000953088130 Eh/a0 ::
         :: HOMO-LUMO gap              0.272310540312 eV    ::
         ::.................................................::
         :: SCC energy               -13.133361421986 Eh    ::
         :: -> isotropic ES            0.165145868863 Eh    ::
         :: -> anisotropic ES         -0.000453690936 Eh    ::
         :: -> anisotropic XC          0.005999176615 Eh    ::
         :: -> dispersion             -0.001701226356 Eh    ::
         :: repulsion energy           0.059745317162 Eh    ::
         :: add. restraining           0.000008073737 Eh    ::
         :::::::::::::::::::::::::::::::::::::::::::::::::::::

           -------------------------------------------------
          |                Property Printout                |
           -------------------------------------------------

    * Orbital Energies and Occupations

         #    Occupation            Energy/Eh            Energy/eV
      -------------------------------------------------------------
         1        2.0000           -0.8563818             -23.3033
         2        2.0000           -0.5128180             -13.9545
         3        2.0000           -0.4640391             -12.6271
         4        2.0000           -0.3669939              -9.9864
         5        2.0000           -0.3669399              -9.9849
         6        2.0000           -0.2463017              -6.7022
         7        2.0000           -0.2371045              -6.4519
         8        2.0000           -0.2371043              -6.4519
         9        1.9976           -0.2284590              -6.2167
        10        1.9933           -0.2274710              -6.1898
        11        1.9933           -0.2274707              -6.1898 (HOMO)
        12        0.0157           -0.2174635              -5.9175 (LUMO)
        13                          0.2395496               6.5185
        14                          0.2496555               6.7935
        15                          0.2496556               6.7935
        16                          0.2498365               6.7984
        17                          0.2509676               6.8292
        18                          0.2509676               6.8292
        19                          0.4072811              11.0827
        20                          0.4075797              11.0908
      -------------------------------------------------------------
                  HL-Gap            0.0100072 Eh            0.2723 eV
             Fermi-level           -0.2220583 Eh           -6.0425 eV

     #   Z        covCN         q      C6AA      α(0)
     1   9 F      0.000    -0.566    16.306     4.703
     2  17 Cl     0.000    -0.648   113.427    16.209
     3   6 C      2.780    -0.056    29.376     8.877
     4   1 H      0.927     0.090     1.875     2.141
     5   1 H      0.927     0.090     1.875     2.141
     6   1 H      0.927     0.090     1.877     2.142

 Mol. C6AA /au·bohr⁶  :        579.705485
 Mol. C8AA /au·bohr⁸  :      16469.992999
 Mol. α(0) /au        :         36.213874


Wiberg/Mayer (AO) data.
largest (>0.10) Wiberg bond orders for each atom
          total WBO             WBO to atom ...
     1  F   0.507        C    3 0.507
     2  Cl  0.427        C    3 0.427
     3  C   3.905        H    6 0.990    H    5 0.990    H    4 0.990    F    1 0.507    Cl   2 0.427
     4  H   0.992        C    3 0.990
     5  H   0.992        C    3 0.990
     6  H   0.992        C    3 0.990

molecular dipole:
                 x           y           z       tot (Debye)
 q only:        0.722       0.050      -0.014
   full:        0.769       0.052      -0.015       1.960
molecular quadrupole (traceless):
                xx          xy          yy          xz          yz          zz
 q only:      -41.097      -3.595      20.454       1.142       0.067      20.643
  q+dip:      -41.493      -3.630      20.652       1.154       0.069      20.842
   full:      -40.423      -3.538      20.119       1.123       0.067      20.304

           -------------------------------------------------
          |                Geometry Summary                 |
           -------------------------------------------------

      molecular mass/u    :       69.4858989
   center of mass at/Å    :        0.0625378       0.0015070      -0.0009079
  moments of inertia/u·Å² :        0.3448356E+01   0.4750695E+03   0.4750713E+03
rotational constants/cm⁻¹ :        0.4888600E+01   0.3548456E-01   0.3548442E-01

 * 3 selected distances

     #   Z        #   Z                                     value/Å
     3   6 C      4   1 H                                 1.0679465
     3   6 C      5   1 H                                 1.0678135 (min)
     3   6 C      6   1 H                                 1.0680010 (max)

 * 1 distinct bonds (by element types)

   Z      Z             #   av. dist./Å        max./Å        min./Å
   1 H    6 C           3     1.0679203     1.0680010     1.0678135


optimized geometry written to: xtbopt.xyz


           -------------------------------------------------
          | TOTAL ENERGY              -13.073611363934 Eh   |
          | GRADIENT NORM               0.000953088130 Eh/α |
          | HOMO-LUMO GAP               0.272310540312 eV   |
           -------------------------------------------------

------------------------------------------------------------------------
 * finished run on 2020/04/08 at 23:04:04.557     
------------------------------------------------------------------------
 total:
 * wall-time:     0 d,  0 h,  0 min,  0.080 sec
 *  cpu-time:     0 d,  0 h,  0 min,  0.063 sec
 * ratio c/w:     0.791 speedup
 SCF:
 * wall-time:     0 d,  0 h,  0 min,  0.010 sec
 *  cpu-time:     0 d,  0 h,  0 min,  0.010 sec
 * ratio c/w:     1.000 speedup
 ANC optimizer:
 * wall-time:     0 d,  0 h,  0 min,  0.046 sec
 *  cpu-time:     0 d,  0 h,  0 min,  0.046 sec
 * ratio c/w:     1.000 speedup

