      -----------------------------------------------------------      
     |                   =====================                   |     
     |                           x T B                           |     
     |                   =====================                   |     
     |                         S. Grimme                         |     
     |          Mulliken Center for Theoretical Chemistry        |     
     |                    University of Bonn                     |     
      -----------------------------------------------------------      

   * xtb version 6.2.3 (830e466) compiled by 'ehlert@majestix' on 2020-03-16

   xtb is free software: you can redistribute it and/or modify it under
   the terms of the GNU Lesser General Public License as published by
   the Free Software Foundation, either version 3 of the License, or
   (at your option) any later version.
   
   xtb is distributed in the hope that it will be useful,
   but WITHOUT ANY WARRANTY; without even the implied warranty of
   MERCHANTABILITY or FITNESS FOR A PARTICULAR PURPOSE.  See the
   GNU Lesser General Public License for more details.
   
   Cite this work as:
   * S. Grimme, C. Bannwarth, P. Shushkov, J. Chem. Theory Comput., 2017,
     13, 1989-2009. DOI: 10.1021/acs.jctc.7b00118
   * C. Bannwarth, S. Ehlert and S. Grimme., J. Chem. Theory Comput., 2019,
     15, 1652-1671. DOI: 10.1021/acs.jctc.8b01176
   * P. Pracht, E. Caldeweyher, S. Ehlert, S. Grimme, ChemRxiv, 2019, preprint.
     DOI: 10.26434/chemrxiv.8326202.v1
   
   for DFT-D4:
   * E. Caldeweyher, C. Bannwarth and S. Grimme, J. Chem. Phys., 2017,
     147, 034112. DOI: 10.1063/1.4993215
   * E. Caldeweyher, S. Ehlert, A. Hansen, H. Neugebauer, S. Spicher,
     C. Bannwarth and S. Grimme, J. Chem. Phys., 2019, 150, 154122.
     DOI: 10.1063/1.5090222
   
   for sTDA-xTB:
   * S. Grimme and C. Bannwarth, J. Chem. Phys., 2016, 145, 054103.
     DOI: 10.1063/1.4959605
   
   in the mass-spec context:
   * V. Asgeirsson, C. Bauer and S. Grimme, Chem. Sci., 2017, 8, 4879.
     DOI: 10.1039/c7sc00601b
   
   for metadynamics refer to:
   * S. Grimme, J. Chem. Theory Comput., 2019, 155, 2847-2862
     DOI: 10.1021/acs.jctc.9b00143
   
   with help from (in alphabetical order)
   C. Bannwarth, F. Bohle, G. Brandenburg, E. Caldeweyher, M. Checinski,
   S. Dohm, S. Ehlert, S. Ehrlich, F. März, H. Neugebauer, J. Pisarek,
   P. Pracht, P. Shushkov, and S. Spicher.
   
 * started run on 2020/04/08 at 23:04:52.733     

           -------------------------------------------------
          |                Calculation Setup                |
           -------------------------------------------------

          program call               : /home/tom/.local/bin/xtb SN2_PES_scan_7-4_xtb.xyz --chrg -1 --opt --input xcontrol_SN2_PES_scan_7-4
          coordinate file            : SN2_PES_scan_7-4_xtb.xyz
          omp threads                :                     1
          number of atoms            :                     6
          number of electrons        :                    22
          charge                     :                    -1
          spin                       :                   0.0
          first test random number   :      0.10807124859935

constraining bond 1 3 to    1.9050000 Å, actual value:    2.2039965 Å
constraining bond 2 3 to    2.9830000 Å, actual value:    2.6824228 Å

molecular fragmentation (1/2 indicates fragments):
122222
# atoms in fragment 1/2:     1     5
 fragment masses (1/2) :       19.00       50.49
CMA distance (Bohr)    :   7.728
constraining FC (au)   : 10.0000
########################################################################
[WARNING] Please study the warnings concerning your input carefully
-2- prog_main: XTBPATH is not set, using XTBHOME instead
-1- prog_main: XTBHOME is not set, using HOME instead
########################################################################
           ------------------------------------------------- 
          |                 G F N 2 - x T B                 |
          | Geometry, Frequencies, Noncovalent interactions |
          |            JCTC 2019 parametrisation            |
           ------------------------------------------------- 
             k(s)              :                1.8500
             k(p)              :                2.2300
             k(d)              :                2.2300
             k(f)              :                2.0000
             kEN (H0ij)        :               -2.0000
             D4 a1             :                0.5200
             D4 a2             :                5.0000
             D4 s6             :                1.0000
             D4 s8             :                2.7000
             D4 s9             :                5.0000
             alphaj            :                2.0000

  Z AO/shell   Hii/eV     exponent
  1     Wed Apr 25 08:07:45 CEST 2018   EN: 2.200 GM2: 0.406  GM3: 0.0800  RAES: 1.40
     1s    -10.707211    1.230000
  6     Wed Apr 25 08:07:45 CEST 2018   EN: 2.550 GM2: 0.538  GM3: 0.1500  RAES: 3.00
     2s    -13.970922    2.096432
     2p    -10.063292    1.800000
  9     Mon Apr 23 13:58:50 CEST 2018   EN: 3.980 GM2: 0.532  GM3: 0.1426  RAES: 2.40
     2s    -23.458179    2.416361
     2p    -15.746583    2.308399
 17     Mon Apr 23 14:09:22 CEST 2018   EN: 3.160 GM2: 0.249  GM3: 0.1495  RAES: 2.50
     3s    -29.278781    2.485265
     3p    -12.673758    2.199650
     3d     -0.240338    2.476089

           ------------------------------------------------- 
          |        Self-Consistent Charge Iterations        |
           ------------------------------------------------- 

          ...................................................
          :                      SETUP                      :
          :.................................................:
          :  # basis functions                  21          :
          :  # atomic orbitals                  20          :
          :  # shells                           10          :
          :  # electrons                        22          :
          :  max. iterations                   250          :
          :  Hamiltonian                  GFN2-xTB          :
          :  restarted?                      false          :
          :  GBSA solvation                  false          :
          :  PC potential                    false          :
          :  electronic temp.          300.0000000     K    :
          :  accuracy                    1.0000000          :
          :  -> integral cutoff          0.2500000E+02      :
          :  -> integral neglect         0.1000000E-07      :
          :  -> SCF convergence          0.1000000E-05 Eh   :
          :  -> wf. convergence          0.1000000E-03 e    :
          :  Broyden damping             0.4000000          :
          ...................................................

 iter      E             dE          RMSdq      gap      omega  full diag
   1    -13.0689943 -0.130690E+02  0.728E+00    2.63       0.0  T
   2    -12.8565043  0.212490E+00  0.660E+00    0.72       1.0  T
   3    -13.1307471 -0.274243E+00  0.441E+00    1.99       1.0  T
   4    -13.1621666 -0.314195E-01  0.245E+00    1.51       1.0  T
   5    -13.1757082 -0.135416E-01  0.176E+00    2.06       1.0  T
   6    -13.1840992 -0.839103E-02  0.382E-01    1.80       1.0  T
   7    -13.1844384 -0.339171E-03  0.101E-01    1.71       1.0  T
   8    -13.1844396 -0.117985E-05  0.758E-02    1.71       1.0  T
   9    -13.1844020  0.375877E-04  0.141E-01    1.78       1.0  T
  10    -13.1844404 -0.384825E-04  0.657E-02    1.75       1.0  T
  11    -13.1844552 -0.147640E-04  0.974E-03    1.74       4.2  T
  12    -13.1844530  0.220282E-05  0.218E-02    1.74       1.9  T
  13    -13.1844555 -0.244801E-05  0.150E-03    1.74      27.2  T
  14    -13.1844555 -0.967180E-08  0.610E-04    1.74      66.9  T
  15    -13.1844555 -0.185859E-08  0.112E-04    1.74     365.6  T

   *** convergence criteria satisfied after 15 iterations ***

         #    Occupation            Energy/Eh            Energy/eV
      -------------------------------------------------------------
         1        2.0000           -0.8389075             -22.8278
       ...           ...                  ...                  ...
         5        2.0000           -0.3472914              -9.4503
         6        2.0000           -0.2571856              -6.9984
         7        2.0000           -0.2281639              -6.2087
         8        2.0000           -0.2281636              -6.2086
         9        2.0000           -0.2235633              -6.0835
        10        2.0000           -0.2223501              -6.0505
        11        2.0000           -0.2223498              -6.0504 (HOMO)
        12                         -0.1584284              -4.3111 (LUMO)
        13                          0.2628623               7.1528
        14                          0.2706031               7.3635
        15                          0.2706039               7.3635
        16                          0.2717188               7.3938
       ...                                ...                  ...
        20                          0.4287211              11.6661
      -------------------------------------------------------------
                  HL-Gap            0.0639213 Eh            1.7394 eV
             Fermi-level           -0.1899700 Eh           -5.1693 eV

 SCC (total)                   0 d,  0 h,  0 min,  0.003 sec
 SCC setup                      ...        0 min,  0.000 sec (  2.232%)
 Dispersion                     ...        0 min,  0.000 sec (  0.465%)
 integral evaluation            ...        0 min,  0.001 sec ( 25.245%)
 zeroth order Hamiltonian       ...        0 min,  0.000 sec (  0.566%)
 iterations                     ...        0 min,  0.001 sec ( 46.238%)
 molecular gradient             ...        0 min,  0.001 sec ( 22.371%)
 printout                       ...        0 min,  0.000 sec (  2.164%)

         :::::::::::::::::::::::::::::::::::::::::::::::::::::
         ::                     SUMMARY                     ::
         :::::::::::::::::::::::::::::::::::::::::::::::::::::
         :: total energy              -6.705653439244 Eh    ::
         :: gradient norm             27.773355333616 Eh/a0 ::
         :: HOMO-LUMO gap              1.739388182218 eV    ::
         ::.................................................::
         :: SCC energy               -13.184455466859 Eh    ::
         :: -> isotropic ES            0.170147639391 Eh    ::
         :: -> anisotropic ES          0.000511138905 Eh    ::
         :: -> anisotropic XC          0.005283749766 Eh    ::
         :: -> dispersion             -0.001916716473 Eh    ::
         :: repulsion energy           0.059973871899 Eh    ::
         :: add. restraining           6.418828751310 Eh    ::
         :::::::::::::::::::::::::::::::::::::::::::::::::::::

      ----------------------------------------------------------- 
     |                   =====================                   |
     |                        A N C O P T                        |
     |                   =====================                   |
     |               Approximate Normal Coordinate               |
     |                Rational Function Optimizer                |
      ----------------------------------------------------------- 

          ...................................................
          :                      SETUP                      :
          :.................................................:
          :   optimization level            normal          :
          :   max. optcycles                   200          :
          :   ANC micro-cycles                  20          :
          :   degrees of freedom                12          :
          :.................................................:
          :   RF solver                   davidson          :
          :   write xtbopt.log                true          :
          :   linear?                        false          :
          :   energy convergence         0.5000000E-05 Eh   :
          :   grad. convergence          0.1000000E-02 Eh/α :
          :   maximium RF displ.         1.0000000          :
          :   Hlow (freq-cutoff)         0.1000000E-01      :
          :   Hmax (freq-cutoff)         5.0000000          :
          :   S6 in model hess.         20.0000000          :
          ...................................................

generating ANC from model Hessian ...
Using Lindh-Hessian (1995)
 Shifting diagonal of input Hessian by   0.900502801921454     
 Lowest  eigenvalues of input Hessian
    0.010000    0.010240   -0.000000   -0.000000    0.000000    0.000000
    0.000000    0.000000    0.911295    1.053461    1.053484    1.339595
    1.571402    1.571425    3.581294    3.581588   20.922712   60.970839
 Highest eigenvalues
    1.571402    1.571425    3.581294    3.581588   20.922712   60.970839
 

........................................................................
.............................. CYCLE    1 ..............................
........................................................................
   1    -13.1844555 -0.131845E+02  0.384E-05    1.74       0.0  T
   2    -13.1844555 -0.117062E-11  0.282E-05    1.74    1448.6  T
   3    -13.1844555 -0.356160E-11  0.141E-05    1.74    2894.9  T
     SCC iter.                  ...        0 min,  0.000 sec
     gradient                   ...        0 min,  0.001 sec
 * total energy  :    -6.7056534 Eh     change       -0.1946301E-09 Eh
   gradient norm :    27.7733575 Eh/α   predicted     0.0000000E+00 (-100.00%)
   displ. norm   :     0.9140288 α      lambda       -0.2538564E+02
   maximum displ.:     0.9140286 α      in ANC's #11, #12, #6, ...

........................................................................
.............................. CYCLE    2 ..............................
........................................................................
   1    -13.1776557 -0.131777E+02  0.273E+00    6.32       0.0  T
   2    -13.1916097 -0.139539E-01  0.145E+00    4.85       1.0  T
   3    -13.1932915 -0.168180E-02  0.816E-01    3.86       1.0  T
   4    -13.1933488 -0.573543E-04  0.111E-01    3.47       1.0  T
   5    -13.1933792 -0.303991E-04  0.713E-02    3.45       1.0  T
   6    -13.1933854 -0.620631E-05  0.368E-02    3.46       1.1  T
   7    -13.1933879 -0.251791E-05  0.173E-02    3.47       2.4  T
   8    -13.1933883 -0.358779E-06  0.897E-04    3.47      45.5  T
   9    -13.1933883 -0.583427E-10  0.415E-04    3.47      98.3  T
     SCC iter.                  ...        0 min,  0.001 sec
     gradient                   ...        0 min,  0.001 sec
 * total energy  :    -7.0456594 Eh     change       -0.3400060E+00 Eh
   gradient norm :    27.0577757 Eh/α   predicted    -0.2329703E+02 (6751.95%)
   displ. norm   :     0.3844153 α      lambda       -0.1040113E+02
   maximum displ.:     0.3843953 α      in ANC's #11, #3, #6, ...

........................................................................
.............................. CYCLE    3 ..............................
........................................................................
   1    -13.1562529 -0.131563E+02  0.292E+00    0.62       0.0  T
   2    -13.1854983 -0.292454E-01  0.138E+00    2.32       1.0  T
   3    -13.1907628 -0.526446E-02  0.786E-01    1.74       1.0  T
   4    -13.1911670 -0.404185E-03  0.498E-01    1.67       1.0  T
   5    -13.1914034 -0.236454E-03  0.118E-01    1.43       1.0  T
   6    -13.1914433 -0.398832E-04  0.363E-02    1.49       1.1  T
   7    -13.1914433 -0.291400E-07  0.226E-02    1.50       1.8  T
   8    -13.1914445 -0.115981E-05  0.122E-02    1.50       3.4  T
   9    -13.1914445  0.134042E-07  0.129E-02    1.49       3.2  T
  10    -13.1914449 -0.392840E-06  0.236E-03    1.49      17.3  T
  11    -13.1914449 -0.140569E-07  0.740E-04    1.49      55.2  T
     SCC iter.                  ...        0 min,  0.001 sec
     gradient                   ...        0 min,  0.001 sec
 * total energy  :   -13.0086584 Eh     change       -0.5962999E+01 Eh
   gradient norm :     3.9772740 Eh/α   predicted    -0.5969083E+01 (   0.10%)
   displ. norm   :     0.0680514 α      lambda       -0.2626993E+00
   maximum displ.:     0.0659256 α      in ANC's #11, #6, #3, ...

........................................................................
.............................. CYCLE    4 ..............................
........................................................................
   1    -13.1919631 -0.131920E+02  0.508E-01    1.19       0.0  T
   2    -13.1928511 -0.887959E-03  0.149E-01    1.48       1.0  T
   3    -13.1928857 -0.346384E-04  0.963E-02    1.42       1.0  T
   4    -13.1928883 -0.254355E-05  0.407E-02    1.43       1.0  T
   5    -13.1928929 -0.460149E-05  0.850E-03    1.43       4.8  T
   6    -13.1928929 -0.502885E-07  0.541E-03    1.43       7.5  T
   7    -13.1928930 -0.623237E-07  0.141E-03    1.43      29.0  T
     SCC iter.                  ...        0 min,  0.000 sec
     gradient                   ...        0 min,  0.001 sec
 * total energy  :   -13.1408955 Eh     change       -0.1322371E+00 Eh
   gradient norm :     0.0320482 Eh/α   predicted    -0.1319580E+00 (  -0.21%)
   displ. norm   :     0.0185121 α      lambda       -0.3937345E-03
   maximum displ.:     0.0143858 α      in ANC's #3, #6, #12, ...

........................................................................
.............................. CYCLE    5 ..............................
........................................................................
   1    -13.1951293 -0.131951E+02  0.228E-02    1.43       0.0  T
   2    -13.1951300 -0.736137E-06  0.113E-02    1.44       3.6  T
   3    -13.1951300  0.224658E-08  0.921E-03    1.43       4.4  T
   4    -13.1951301 -0.329259E-07  0.230E-03    1.43      17.7  T
   5    -13.1951301 -0.307508E-07  0.991E-04    1.43      41.2  T
     SCC iter.                  ...        0 min,  0.000 sec
     gradient                   ...        0 min,  0.001 sec
 * total energy  :   -13.1411854 Eh     change       -0.2898426E-03 Eh
   gradient norm :     0.0393530 Eh/α   predicted    -0.1969365E-03 ( -32.05%)
   displ. norm   :     0.0924891 α      lambda       -0.1544512E-02
   maximum displ.:     0.0731707 α      in ANC's #3, #6, #1, ...

........................................................................
.............................. CYCLE    6 ..............................
........................................................................
   1    -13.2046246 -0.132046E+02  0.140E-01    1.37       0.0  T
   2    -13.2046647 -0.401718E-04  0.575E-02    1.43       1.0  T
   3    -13.2046660 -0.129979E-05  0.517E-02    1.42       1.0  T
   4    -13.2046674 -0.135605E-05  0.153E-02    1.42       2.7  T
   5    -13.2046679 -0.549359E-06  0.413E-03    1.42       9.9  T
   6    -13.2046679 -0.160856E-07  0.158E-03    1.42      25.9  T
     SCC iter.                  ...        0 min,  0.000 sec
     gradient                   ...        0 min,  0.001 sec
 * total energy  :   -13.1413993 Eh     change       -0.2139477E-03 Eh
   gradient norm :     0.1139396 Eh/α   predicted    -0.7788752E-03 ( 264.05%)
   displ. norm   :     0.0800805 α      lambda       -0.6890225E-03
   maximum displ.:     0.0696254 α      in ANC's #1, #2, #6, ...

........................................................................
.............................. CYCLE    7 ..............................
........................................................................
   1    -13.2020023 -0.132020E+02  0.109E-01    1.45       0.0  T
   2    -13.2020075 -0.518607E-05  0.634E-02    1.42       1.0  T
   3    -13.2020056  0.186877E-05  0.404E-02    1.43       1.0  T
   4    -13.2020087 -0.303878E-05  0.847E-03    1.43       4.8  T
   5    -13.2020089 -0.206173E-06  0.262E-03    1.43      15.6  T
   6    -13.2020089 -0.401957E-08  0.482E-04    1.43      84.8  T
     SCC iter.                  ...        0 min,  0.000 sec
     gradient                   ...        0 min,  0.001 sec
 * total energy  :   -13.1415572 Eh     change       -0.1579193E-03 Eh
   gradient norm :     0.0205145 Eh/α   predicted    -0.3467199E-03 ( 119.56%)
   displ. norm   :     0.2086288 α      lambda       -0.1432359E-02
   maximum displ.:     0.1822735 α      in ANC's #1, #2, #6, ...

........................................................................
.............................. CYCLE    8 ..............................
........................................................................
   1    -13.1946057 -0.131946E+02  0.283E-01    1.50       0.0  T
   2    -13.1946381 -0.323755E-04  0.166E-01    1.44       1.0  T
   3    -13.1946226  0.155346E-04  0.108E-01    1.47       1.0  T
   4    -13.1946477 -0.251332E-04  0.193E-02    1.45       2.1  T
   5    -13.1946486 -0.864864E-06  0.694E-03    1.45       5.9  T
   6    -13.1946486 -0.290807E-07  0.177E-03    1.45      23.1  T
   7    -13.1946486 -0.403101E-08  0.753E-04    1.45      54.2  T
     SCC iter.                  ...        0 min,  0.000 sec
     gradient                   ...        0 min,  0.001 sec
 * total energy  :   -13.1396997 Eh     change        0.1857518E-02 Eh
   gradient norm :     0.2352011 Eh/α   predicted    -0.7473476E-03 (-140.23%)
   displ. norm   :     0.1349396 α      lambda       -0.3821953E-02
   maximum displ.:     0.1140496 α      in ANC's #1, #2, #3, ...

........................................................................
.............................. CYCLE    9 ..............................
........................................................................
   1    -13.2011905 -0.132012E+02  0.196E-01    1.38       0.0  T
   2    -13.2012179 -0.273822E-04  0.108E-01    1.44       1.0  T
   3    -13.2012149  0.298216E-05  0.746E-02    1.42       1.0  T
   4    -13.2012215 -0.657480E-05  0.194E-02    1.43       2.1  T
   5    -13.2012229 -0.137947E-05  0.486E-03    1.43       8.4  T
   6    -13.2012229 -0.139435E-07  0.118E-03    1.43      34.6  T
     SCC iter.                  ...        0 min,  0.000 sec
     gradient                   ...        0 min,  0.001 sec
 * total energy  :   -13.1417853 Eh     change       -0.2085618E-02 Eh
   gradient norm :     0.0140129 Eh/α   predicted    -0.1945776E-02 (  -6.71%)
   displ. norm   :     0.0442289 α      lambda       -0.7954703E-04
   maximum displ.:     0.0432834 α      in ANC's #2, #3, #1, ...

........................................................................
.............................. CYCLE   10 ..............................
........................................................................
   1    -13.2013869 -0.132014E+02  0.470E-02    1.43       0.0  T
   2    -13.2013875 -0.582801E-06  0.296E-02    1.43       1.4  T
   3    -13.2013870  0.552535E-06  0.158E-02    1.43       2.6  T
   4    -13.2013878 -0.792819E-06  0.341E-03    1.43      12.0  T
   5    -13.2013878 -0.159332E-07  0.122E-03    1.43      33.5  T
   6    -13.2013878 -0.805690E-09  0.205E-04    1.43     199.4  T
     SCC iter.                  ...        0 min,  0.000 sec
     gradient                   ...        0 min,  0.001 sec
 * total energy  :   -13.1417714 Eh     change        0.1393424E-04 Eh
   gradient norm :     0.0111083 Eh/α   predicted    -0.3985201E-04 (-386.00%)
   displ. norm   :     0.0606143 α      lambda       -0.2324654E-03
   maximum displ.:     0.0483605 α      in ANC's #1, #2, #3, ...

........................................................................
.............................. CYCLE   11 ..............................
........................................................................
   1    -13.2015623 -0.132016E+02  0.683E-02    1.42       0.0  T
   2    -13.2015642 -0.195974E-05  0.449E-02    1.43       1.0  T
   3    -13.2015640  0.267121E-06  0.279E-02    1.43       1.5  T
   4    -13.2015656 -0.158825E-05  0.511E-03    1.43       8.0  T
   5    -13.2015656 -0.318812E-07  0.180E-03    1.43      22.6  T
   6    -13.2015656 -0.177160E-08  0.306E-04    1.43     133.4  T
     SCC iter.                  ...        0 min,  0.000 sec
     gradient                   ...        0 min,  0.001 sec
 * total energy  :   -13.1418296 Eh     change       -0.5820415E-04 Eh
   gradient norm :     0.0239974 Eh/α   predicted    -0.1166596E-03 ( 100.43%)
   displ. norm   :     0.0289767 α      lambda       -0.1309617E-03
   maximum displ.:     0.0274768 α      in ANC's #1, #2, #6, ...

........................................................................
.............................. CYCLE   12 ..............................
........................................................................
   1    -13.2011403 -0.132011E+02  0.372E-02    1.43       0.0  T
   2    -13.2011405 -0.207817E-06  0.230E-02    1.43       1.8  T
   3    -13.2011401  0.445992E-06  0.144E-02    1.43       2.8  T
   4    -13.2011407 -0.627434E-06  0.191E-03    1.43      21.4  T
   5    -13.2011407 -0.238343E-08  0.574E-04    1.43      71.1  T
     SCC iter.                  ...        0 min,  0.000 sec
     gradient                   ...        0 min,  0.001 sec
 * total energy  :   -13.1419083 Eh     change       -0.7870134E-04 Eh
   gradient norm :     0.0052438 Eh/α   predicted    -0.6553574E-04 ( -16.73%)
   displ. norm   :     0.0166248 α      lambda       -0.4943409E-04
   maximum displ.:     0.0127639 α      in ANC's #3, #1, #6, ...

........................................................................
.............................. CYCLE   13 ..............................
........................................................................
   1    -13.2008023 -0.132008E+02  0.237E-02    1.43       0.0  T
   2    -13.2008030 -0.670167E-06  0.182E-02    1.43       2.2  T
   3    -13.2008039 -0.945919E-06  0.791E-03    1.43       5.2  T
   4    -13.2008039 -0.159362E-07  0.206E-03    1.43      19.8  T
   5    -13.2008039 -0.269584E-08  0.556E-04    1.43      73.4  T
     SCC iter.                  ...        0 min,  0.000 sec
     gradient                   ...        0 min,  0.001 sec
 * total energy  :   -13.1419458 Eh     change       -0.3752304E-04 Eh
   gradient norm :     0.0035464 Eh/α   predicted    -0.2472155E-04 ( -34.12%)
   displ. norm   :     0.0225862 α      lambda       -0.4135055E-04
   maximum displ.:     0.0213532 α      in ANC's #3, #6, #1, ...

........................................................................
.............................. CYCLE   14 ..............................
........................................................................
   1    -13.2003699 -0.132004E+02  0.333E-02    1.43       0.0  T
   2    -13.2003716 -0.174186E-05  0.266E-02    1.43       1.5  T
   3    -13.2003739 -0.224999E-05  0.980E-03    1.43       4.2  T
   4    -13.2003739 -0.726383E-08  0.378E-03    1.43      10.8  T
   5    -13.2003739 -0.962279E-08  0.717E-04    1.43      56.9  T
   6    -13.2003739 -0.755941E-09  0.364E-04    1.43     112.1  T
     SCC iter.                  ...        0 min,  0.000 sec
     gradient                   ...        0 min,  0.001 sec
 * total energy  :   -13.1419682 Eh     change       -0.2235103E-04 Eh
   gradient norm :     0.0018035 Eh/α   predicted    -0.2068766E-04 (  -7.44%)
   displ. norm   :     0.0048184 α      lambda       -0.1023554E-05
   maximum displ.:     0.0035448 α      in ANC's #3, #1, #6, ...

........................................................................
.............................. CYCLE   15 ..............................
........................................................................
   1    -13.2003732 -0.132004E+02  0.609E-03    1.43       0.0  T
   2    -13.2003733 -0.471221E-07  0.449E-03    1.43       9.1  T
   3    -13.2003733 -0.354704E-07  0.231E-03    1.43      17.6  T
   4    -13.2003733 -0.226891E-08  0.812E-04    1.43      50.3  T
   5    -13.2003733 -0.706452E-09  0.175E-04    1.43     233.1  T
     SCC iter.                  ...        0 min,  0.000 sec
     gradient                   ...        0 min,  0.001 sec
 * total energy  :   -13.1419687 Eh     change       -0.5657625E-06 Eh
   gradient norm :     0.0003751 Eh/α   predicted    -0.5113886E-06 (  -9.61%)
   displ. norm   :     0.0012358 α      lambda       -0.6792864E-07
   maximum displ.:     0.0011724 α      in ANC's #3, #6, #1, ...

   *** GEOMETRY OPTIMIZATION CONVERGED AFTER 15 ITERATIONS ***

------------------------------------------------------------------------
 total energy gain   :        -6.4363153 Eh    -4038.8488 kcal/mol
 total RMSD          :         0.2008131 a0        0.1063 Å
 total power (kW/mol):     -1126.5695681 (step)********** (real)
------------------------------------------------------------------------

 ANCopt (total)                0 d,  0 h,  0 min,  0.027 sec
 optimizer setup                ...        0 min,  0.000 sec (  0.196%)
 model hessian                  ...        0 min,  0.000 sec (  0.289%)
 ANC generation                 ...        0 min,  0.000 sec (  0.234%)
 coordinate transformation      ...        0 min,  0.000 sec (  0.224%)
 single point calculation       ...        0 min,  0.025 sec ( 94.619%)
 optimization log               ...        0 min,  0.000 sec (  1.221%)
 hessian update                 ...        0 min,  0.000 sec (  0.172%)
 rational function              ...        0 min,  0.000 sec (  1.455%)

================
 final structure:
================
6
 xtb: 6.2.3 (830e466)
F        -2.85188729231671   -0.16688898303158    0.04960316337014
Cl        2.02531873833551    0.11838454053302   -0.03246356800766
C        -0.95192149845803   -0.05525598395366    0.01748843069034
H        -0.76909447067474   -0.62259323821398   -0.87263440836541
H        -0.74391648566713   -0.52353316685872    0.95825341638351
H        -0.85144899121894    1.00980683152493   -0.04156703407096
 
 Bond Distances (Angstroems)
 ---------------------------
C3-H4=1.0713         C3-H5=1.0713         C3-H6=1.0714         H4-C3=1.0713         H5-C3=1.0713         H6-C3=1.0714         
 C  H  Rav=1.0713 sigma=0.0001  Rmin=1.0713  Rmax=1.0714     3
 
 selected bond angles (degree)
 --------------------
H5-C3-H4=117.71                H6-C3-H4=117.69                H6-C3-H5=117.69                
 
 selected dihedral angles (degree)
 ---------------------------------

 
 CMA Distance (Angstroems)
 ---------------------------
R(CMA):  4.0078
           -------------------------------------------------
          |                Final Singlepoint                |
           -------------------------------------------------

          ...................................................
          :                      SETUP                      :
          :.................................................:
          :  # basis functions                  21          :
          :  # atomic orbitals                  20          :
          :  # shells                           10          :
          :  # electrons                        22          :
          :  max. iterations                   250          :
          :  Hamiltonian                  GFN2-xTB          :
          :  restarted?                      false          :
          :  GBSA solvation                  false          :
          :  PC potential                    false          :
          :  electronic temp.          300.0000000     K    :
          :  accuracy                    1.0000000          :
          :  -> integral cutoff          0.2500000E+02      :
          :  -> integral neglect         0.1000000E-07      :
          :  -> SCF convergence          0.1000000E-05 Eh   :
          :  -> wf. convergence          0.1000000E-03 e    :
          :  Broyden damping             0.4000000          :
          ...................................................

 iter      E             dE          RMSdq      gap      omega  full diag
   1    -13.2003733 -0.132004E+02  0.818E-05    1.43       0.0  T
   2    -13.2003733 -0.427214E-11  0.669E-05    1.43     610.0  T
   3    -13.2003733 -0.864731E-11  0.276E-05    1.43    1478.6  T

   *** convergence criteria satisfied after 3 iterations ***

         #    Occupation            Energy/Eh            Energy/eV
      -------------------------------------------------------------
         1        2.0000           -0.8073922             -21.9703
       ...           ...                  ...                  ...
         5        2.0000           -0.3641938              -9.9102
         6        2.0000           -0.3189622              -8.6794
         7        2.0000           -0.2844767              -7.7410
         8        2.0000           -0.2844751              -7.7410
         9        2.0000           -0.2048585              -5.5745
        10        2.0000           -0.2011567              -5.4738
        11        2.0000           -0.2011565              -5.4737 (HOMO)
        12                         -0.1484892              -4.0406 (LUMO)
        13                          0.2588055               7.0425
        14                          0.3125471               8.5048
        15                          0.3125480               8.5049
        16                          0.3128846               8.5140
       ...                                ...                  ...
        20                          0.3959129              10.7733
      -------------------------------------------------------------
                  HL-Gap            0.0526673 Eh            1.4332 eV
             Fermi-level           -0.1745020 Eh           -4.7484 eV

 SCC (total)                   0 d,  0 h,  0 min,  0.002 sec
 SCC setup                      ...        0 min,  0.000 sec (  2.933%)
 Dispersion                     ...        0 min,  0.000 sec (  0.456%)
 integral evaluation            ...        0 min,  0.001 sec ( 39.204%)
 zeroth order Hamiltonian       ...        0 min,  0.000 sec (  0.821%)
 iterations                     ...        0 min,  0.000 sec ( 14.466%)
 molecular gradient             ...        0 min,  0.001 sec ( 37.927%)
 printout                       ...        0 min,  0.000 sec (  2.993%)

         :::::::::::::::::::::::::::::::::::::::::::::::::::::
         ::                     SUMMARY                     ::
         :::::::::::::::::::::::::::::::::::::::::::::::::::::
         :: total energy             -13.141968746221 Eh    ::
         :: gradient norm              0.000374761786 Eh/a0 ::
         :: HOMO-LUMO gap              1.433150346097 eV    ::
         ::.................................................::
         :: SCC energy               -13.200373312932 Eh    ::
         :: -> isotropic ES            0.169105086853 Eh    ::
         :: -> anisotropic ES         -0.001552274081 Eh    ::
         :: -> anisotropic XC          0.004950267237 Eh    ::
         :: -> dispersion             -0.001845042882 Eh    ::
         :: repulsion energy           0.058323327414 Eh    ::
         :: add. restraining           0.000081762024 Eh    ::
         :::::::::::::::::::::::::::::::::::::::::::::::::::::

           -------------------------------------------------
          |                Property Printout                |
           -------------------------------------------------

    * Orbital Energies and Occupations

         #    Occupation            Energy/Eh            Energy/eV
      -------------------------------------------------------------
         1        2.0000           -0.8073922             -21.9703
         2        2.0000           -0.5795772             -15.7711
         3        2.0000           -0.4587634             -12.4836
         4        2.0000           -0.3642109              -9.9107
         5        2.0000           -0.3641938              -9.9102
         6        2.0000           -0.3189622              -8.6794
         7        2.0000           -0.2844767              -7.7410
         8        2.0000           -0.2844751              -7.7410
         9        2.0000           -0.2048585              -5.5745
        10        2.0000           -0.2011567              -5.4738
        11        2.0000           -0.2011565              -5.4737 (HOMO)
        12                         -0.1484892              -4.0406 (LUMO)
        13                          0.2588055               7.0425
        14                          0.3125471               8.5048
        15                          0.3125480               8.5049
        16                          0.3128846               8.5140
        17                          0.3137015               8.5363
        18                          0.3137015               8.5363
        19                          0.3955680              10.7640
        20                          0.3959129              10.7733
      -------------------------------------------------------------
                  HL-Gap            0.0526673 Eh            1.4332 eV
             Fermi-level           -0.1745020 Eh           -4.7484 eV

     #   Z        covCN         q      C6AA      α(0)
     1   9 F      0.304    -0.449    14.518     4.452
     2  17 Cl     0.001    -0.885   122.353    16.834
     3   6 C      3.084     0.020    27.462     8.591
     4   1 H      0.926     0.104     1.745     2.066
     5   1 H      0.926     0.104     1.745     2.065
     6   1 H      0.926     0.104     1.745     2.066

 Mol. C6AA /au·bohr⁶  :        573.339668
 Mol. C8AA /au·bohr⁸  :      16542.297240
 Mol. α(0) /au        :         36.073511


Wiberg/Mayer (AO) data.
largest (>0.10) Wiberg bond orders for each atom
          total WBO             WBO to atom ...
     1  F   0.800        C    3 0.731
     2  Cl  0.217        C    3 0.152
     3  C   3.842        H    6 0.986    H    4 0.986    H    5 0.986    F    1 0.731    Cl   2 0.152
     4  H   0.989        C    3 0.986
     5  H   0.989        C    3 0.986
     6  H   0.989        C    3 0.986

molecular dipole:
                 x           y           z       tot (Debye)
 q only:       -1.471      -0.086       0.022
   full:       -1.266      -0.074       0.018       3.224
molecular quadrupole (traceless):
                xx          xy          yy          xz          yz          zz
 q only:      -25.811      -2.270      12.844       0.646       0.038      12.967
  q+dip:      -27.033      -2.378      13.452       0.678       0.040      13.581
   full:      -26.284      -2.312      13.079       0.659       0.039      13.204

           -------------------------------------------------
          |                Geometry Summary                 |
           -------------------------------------------------

      molecular mass/u    :       69.4858989
   center of mass at/Å    :        0.0547691       0.0032437       0.0006606
  moments of inertia/u·Å² :        0.3389076E+01   0.3153485E+03   0.3153487E+03
rotational constants/cm⁻¹ :        0.4974109E+01   0.5345716E-01   0.5345712E-01

 * 3 selected distances

     #   Z        #   Z                                     value/Å
     3   6 C      4   1 H                                 1.0712684
     3   6 C      5   1 H                                 1.0712555 (min)
     3   6 C      6   1 H                                 1.0714201 (max)

 * 1 distinct bonds (by element types)

   Z      Z             #   av. dist./Å        max./Å        min./Å
   1 H    6 C           3     1.0713147     1.0714201     1.0712555


optimized geometry written to: xtbopt.xyz


           -------------------------------------------------
          | TOTAL ENERGY              -13.141968746221 Eh   |
          | GRADIENT NORM               0.000374761786 Eh/α |
          | HOMO-LUMO GAP               1.433150346097 eV   |
           -------------------------------------------------

------------------------------------------------------------------------
 * finished run on 2020/04/08 at 23:04:52.772     
------------------------------------------------------------------------
 total:
 * wall-time:     0 d,  0 h,  0 min,  0.038 sec
 *  cpu-time:     0 d,  0 h,  0 min,  0.038 sec
 * ratio c/w:     0.999 speedup
 SCF:
 * wall-time:     0 d,  0 h,  0 min,  0.003 sec
 *  cpu-time:     0 d,  0 h,  0 min,  0.003 sec
 * ratio c/w:     1.000 speedup
 ANC optimizer:
 * wall-time:     0 d,  0 h,  0 min,  0.029 sec
 *  cpu-time:     0 d,  0 h,  0 min,  0.029 sec
 * ratio c/w:     1.000 speedup

