      -----------------------------------------------------------      
     |                   =====================                   |     
     |                           x T B                           |     
     |                   =====================                   |     
     |                         S. Grimme                         |     
     |          Mulliken Center for Theoretical Chemistry        |     
     |                    University of Bonn                     |     
      -----------------------------------------------------------      

   * xtb version 6.2.3 (830e466) compiled by 'ehlert@majestix' on 2020-03-16

   xtb is free software: you can redistribute it and/or modify it under
   the terms of the GNU Lesser General Public License as published by
   the Free Software Foundation, either version 3 of the License, or
   (at your option) any later version.
   
   xtb is distributed in the hope that it will be useful,
   but WITHOUT ANY WARRANTY; without even the implied warranty of
   MERCHANTABILITY or FITNESS FOR A PARTICULAR PURPOSE.  See the
   GNU Lesser General Public License for more details.
   
   Cite this work as:
   * S. Grimme, C. Bannwarth, P. Shushkov, J. Chem. Theory Comput., 2017,
     13, 1989-2009. DOI: 10.1021/acs.jctc.7b00118
   * C. Bannwarth, S. Ehlert and S. Grimme., J. Chem. Theory Comput., 2019,
     15, 1652-1671. DOI: 10.1021/acs.jctc.8b01176
   * P. Pracht, E. Caldeweyher, S. Ehlert, S. Grimme, ChemRxiv, 2019, preprint.
     DOI: 10.26434/chemrxiv.8326202.v1
   
   for DFT-D4:
   * E. Caldeweyher, C. Bannwarth and S. Grimme, J. Chem. Phys., 2017,
     147, 034112. DOI: 10.1063/1.4993215
   * E. Caldeweyher, S. Ehlert, A. Hansen, H. Neugebauer, S. Spicher,
     C. Bannwarth and S. Grimme, J. Chem. Phys., 2019, 150, 154122.
     DOI: 10.1063/1.5090222
   
   for sTDA-xTB:
   * S. Grimme and C. Bannwarth, J. Chem. Phys., 2016, 145, 054103.
     DOI: 10.1063/1.4959605
   
   in the mass-spec context:
   * V. Asgeirsson, C. Bauer and S. Grimme, Chem. Sci., 2017, 8, 4879.
     DOI: 10.1039/c7sc00601b
   
   for metadynamics refer to:
   * S. Grimme, J. Chem. Theory Comput., 2019, 155, 2847-2862
     DOI: 10.1021/acs.jctc.9b00143
   
   with help from (in alphabetical order)
   C. Bannwarth, F. Bohle, G. Brandenburg, E. Caldeweyher, M. Checinski,
   S. Dohm, S. Ehlert, S. Ehrlich, F. März, H. Neugebauer, J. Pisarek,
   P. Pracht, P. Shushkov, and S. Spicher.
   
 * started run on 2020/04/08 at 23:04:53.350     

           -------------------------------------------------
          |                Calculation Setup                |
           -------------------------------------------------

          program call               : /home/tom/.local/bin/xtb SN2_PES_scan_7-5_xtb.xyz --chrg -1 --opt --input xcontrol_SN2_PES_scan_7-5
          coordinate file            : SN2_PES_scan_7-5_xtb.xyz
          omp threads                :                     1
          number of atoms            :                     6
          number of electrons        :                    22
          charge                     :                    -1
          spin                       :                   0.0
          first test random number   :      0.23884234498329

constraining bond 1 3 to    1.9050000 Å, actual value:    2.2038931 Å
constraining bond 2 3 to    3.2830000 Å, actual value:    2.9825845 Å

molecular fragmentation (1/2 indicates fragments):
122222
# atoms in fragment 1/2:     1     5
 fragment masses (1/2) :       19.00       50.49
CMA distance (Bohr)    :   8.131
constraining FC (au)   : 10.0000
########################################################################
[WARNING] Please study the warnings concerning your input carefully
-2- prog_main: XTBPATH is not set, using XTBHOME instead
-1- prog_main: XTBHOME is not set, using HOME instead
########################################################################
           ------------------------------------------------- 
          |                 G F N 2 - x T B                 |
          | Geometry, Frequencies, Noncovalent interactions |
          |            JCTC 2019 parametrisation            |
           ------------------------------------------------- 
             k(s)              :                1.8500
             k(p)              :                2.2300
             k(d)              :                2.2300
             k(f)              :                2.0000
             kEN (H0ij)        :               -2.0000
             D4 a1             :                0.5200
             D4 a2             :                5.0000
             D4 s6             :                1.0000
             D4 s8             :                2.7000
             D4 s9             :                5.0000
             alphaj            :                2.0000

  Z AO/shell   Hii/eV     exponent
  1     Wed Apr 25 08:07:45 CEST 2018   EN: 2.200 GM2: 0.406  GM3: 0.0800  RAES: 1.40
     1s    -10.707211    1.230000
  6     Wed Apr 25 08:07:45 CEST 2018   EN: 2.550 GM2: 0.538  GM3: 0.1500  RAES: 3.00
     2s    -13.970922    2.096432
     2p    -10.063292    1.800000
  9     Mon Apr 23 13:58:50 CEST 2018   EN: 3.980 GM2: 0.532  GM3: 0.1426  RAES: 2.40
     2s    -23.458179    2.416361
     2p    -15.746583    2.308399
 17     Mon Apr 23 14:09:22 CEST 2018   EN: 3.160 GM2: 0.249  GM3: 0.1495  RAES: 2.50
     3s    -29.278781    2.485265
     3p    -12.673758    2.199650
     3d     -0.240338    2.476089

           ------------------------------------------------- 
          |        Self-Consistent Charge Iterations        |
           ------------------------------------------------- 

          ...................................................
          :                      SETUP                      :
          :.................................................:
          :  # basis functions                  21          :
          :  # atomic orbitals                  20          :
          :  # shells                           10          :
          :  # electrons                        22          :
          :  max. iterations                   250          :
          :  Hamiltonian                  GFN2-xTB          :
          :  restarted?                      false          :
          :  GBSA solvation                  false          :
          :  PC potential                    false          :
          :  electronic temp.          300.0000000     K    :
          :  accuracy                    1.0000000          :
          :  -> integral cutoff          0.2500000E+02      :
          :  -> integral neglect         0.1000000E-07      :
          :  -> SCF convergence          0.1000000E-05 Eh   :
          :  -> wf. convergence          0.1000000E-03 e    :
          :  Broyden damping             0.4000000          :
          ...................................................

 iter      E             dE          RMSdq      gap      omega  full diag
   1    -13.0615256 -0.130615E+02  0.729E+00    2.49       0.0  T
   2    -12.8021151  0.259410E+00  0.708E+00    0.67       1.0  T
   3    -13.1051129 -0.302998E+00  0.505E+00    1.29       1.0  T
   4    -13.1183470 -0.132341E-01  0.398E+00    0.52       1.0  T
   5    -13.1442766 -0.259295E-01  0.285E+00    0.69       1.0  T
   6    -13.1728398 -0.285632E-01  0.520E-01    0.99       1.0  T
   7    -13.1732335 -0.393704E-03  0.342E-01    0.90       1.0  T
   8    -13.1733113 -0.777324E-04  0.212E-01    0.93       1.0  T
   9    -13.1731469  0.164384E-03  0.272E-01    0.90       1.0  T
  10    -13.1734810 -0.334092E-03  0.690E-02    0.97       1.0  T
  11    -13.1734573  0.237122E-04  0.951E-02    0.96       1.0  T
  12    -13.1734958 -0.385690E-04  0.364E-02    0.96       1.1  T
  13    -13.1735004 -0.458900E-05  0.183E-02    0.96       2.2  T
  14    -13.1735012 -0.807136E-06  0.117E-02    0.96       3.5  T
  15    -13.1735015 -0.253497E-06  0.743E-03    0.96       5.5  T
  16    -13.1735016 -0.156169E-06  0.213E-03    0.95      19.1  T
  17    -13.1735016 -0.103814E-07  0.793E-04    0.95      51.5  T
  18    -13.1735016 -0.174711E-08  0.984E-05    0.95     415.1  T

   *** convergence criteria satisfied after 18 iterations ***

         #    Occupation            Energy/Eh            Energy/eV
      -------------------------------------------------------------
         1        2.0000           -0.8303828             -22.5959
       ...           ...                  ...                  ...
         5        2.0000           -0.3588710              -9.7654
         6        2.0000           -0.2708199              -7.3694
         7        2.0000           -0.2490970              -6.7783
         8        2.0000           -0.2490969              -6.7783
         9        2.0000           -0.2212863              -6.0215
        10        2.0000           -0.2165703              -5.8932
        11        2.0000           -0.2165701              -5.8932 (HOMO)
        12                         -0.1815058              -4.9390 (LUMO)
        13                          0.2530920               6.8870
        14                          0.2825625               7.6889
        15                          0.2825630               7.6889
        16                          0.2827314               7.6935
       ...                                ...                  ...
        20                          0.4132098              11.2440
      -------------------------------------------------------------
                  HL-Gap            0.0350644 Eh            0.9542 eV
             Fermi-level           -0.1987071 Eh           -5.4071 eV

 SCC (total)                   0 d,  0 h,  0 min,  0.003 sec
 SCC setup                      ...        0 min,  0.000 sec (  2.100%)
 Dispersion                     ...        0 min,  0.000 sec (  0.429%)
 integral evaluation            ...        0 min,  0.001 sec ( 22.037%)
 zeroth order Hamiltonian       ...        0 min,  0.000 sec (  0.461%)
 iterations                     ...        0 min,  0.002 sec ( 52.779%)
 molecular gradient             ...        0 min,  0.001 sec ( 19.781%)
 printout                       ...        0 min,  0.000 sec (  1.733%)

         :::::::::::::::::::::::::::::::::::::::::::::::::::::
         ::                     SUMMARY                     ::
         :::::::::::::::::::::::::::::::::::::::::::::::::::::
         :: total energy              -6.700848990516 Eh    ::
         :: gradient norm             27.773673996782 Eh/a0 ::
         :: HOMO-LUMO gap              0.954150514837 eV    ::
         ::.................................................::
         :: SCC energy               -13.173501640299 Eh    ::
         :: -> isotropic ES            0.167733826090 Eh    ::
         :: -> anisotropic ES         -0.000353400740 Eh    ::
         :: -> anisotropic XC          0.005445401522 Eh    ::
         :: -> dispersion             -0.001826150864 Eh    ::
         :: repulsion energy           0.059501469756 Eh    ::
         :: add. restraining           6.413152129815 Eh    ::
         :::::::::::::::::::::::::::::::::::::::::::::::::::::

      ----------------------------------------------------------- 
     |                   =====================                   |
     |                        A N C O P T                        |
     |                   =====================                   |
     |               Approximate Normal Coordinate               |
     |                Rational Function Optimizer                |
      ----------------------------------------------------------- 

          ...................................................
          :                      SETUP                      :
          :.................................................:
          :   optimization level            normal          :
          :   max. optcycles                   200          :
          :   ANC micro-cycles                  20          :
          :   degrees of freedom                12          :
          :.................................................:
          :   RF solver                   davidson          :
          :   write xtbopt.log                true          :
          :   linear?                        false          :
          :   energy convergence         0.5000000E-05 Eh   :
          :   grad. convergence          0.1000000E-02 Eh/α :
          :   maximium RF displ.         1.0000000          :
          :   Hlow (freq-cutoff)         0.1000000E-01      :
          :   Hmax (freq-cutoff)         5.0000000          :
          :   S6 in model hess.         20.0000000          :
          ...................................................

generating ANC from model Hessian ...
Using Lindh-Hessian (1995)
 Shifting diagonal of input Hessian by   0.635701805354322     
 Lowest  eigenvalues of input Hessian
    0.010000    0.010030   -0.000000   -0.000000   -0.000000    0.000000
    0.000000    0.000000    0.648805    0.785487    0.785506    1.075571
    1.317490    1.317536    3.576101    3.576160   20.653202   60.698949
 Highest eigenvalues
    1.317490    1.317536    3.576101    3.576160   20.653202   60.698949
 

........................................................................
.............................. CYCLE    1 ..............................
........................................................................
   1    -13.1735016 -0.131735E+02  0.109E-05    0.95       0.0  T
   2    -13.1735016  0.817124E-13  0.102E-05    0.95    3993.1  T
   3    -13.1735016 -0.387246E-12  0.286E-06    0.95   14259.2  T
     SCC iter.                  ...        0 min,  0.000 sec
     gradient                   ...        0 min,  0.001 sec
 * total energy  :    -6.7008490 Eh     change       -0.2173497E-09 Eh
   gradient norm :    27.7736757 Eh/α   predicted     0.0000000E+00 (-100.00%)
   displ. norm   :     0.9140299 α      lambda       -0.2538596E+02
   maximum displ.:     0.9140293 α      in ANC's #11, #6, #12, ...

........................................................................
.............................. CYCLE    2 ..............................
........................................................................
   1    -13.1680187 -0.131680E+02  0.246E+00    5.89       0.0  T
   2    -13.1798350 -0.118163E-01  0.134E+00    4.26       1.0  T
   3    -13.1811140 -0.127897E-02  0.760E-01    3.44       1.0  T
   4    -13.1811420 -0.279485E-04  0.125E-01    3.01       1.0  T
   5    -13.1811854 -0.434343E-04  0.526E-02    3.01       1.0  T
   6    -13.1811883 -0.292634E-05  0.215E-02    3.02       1.9  T
   7    -13.1811890 -0.659248E-06  0.141E-02    3.02       2.9  T
   8    -13.1811893 -0.313427E-06  0.765E-04    3.02      53.4  T
   9    -13.1811893 -0.838357E-09  0.331E-04    3.02     123.4  T
     SCC iter.                  ...        0 min,  0.001 sec
     gradient                   ...        0 min,  0.001 sec
 * total energy  :    -7.0314716 Eh     change       -0.3306226E+00 Eh
   gradient norm :    27.0793072 Eh/α   predicted    -0.2329735E+02 (6946.51%)
   displ. norm   :     0.3845361 α      lambda       -0.1041254E+02
   maximum displ.:     0.3845075 α      in ANC's #11, #3, #6, ...

........................................................................
.............................. CYCLE    3 ..............................
........................................................................
   1    -12.9973657 -0.129974E+02  0.604E+00    0.17       0.0  T
   2    -13.1288666 -0.131501E+00  0.360E+00    4.32       1.0  T
   3    -13.1761697 -0.473032E-01  0.189E+00    2.63       1.0  T
   4    -13.1772023 -0.103250E-02  0.148E+00    2.21       1.0  T
   5    -13.1800204 -0.281815E-02  0.862E-01    1.50       1.0  T
   6    -13.1810666 -0.104622E-02  0.248E-01    0.76       1.0  T
   7    -13.1812098 -0.143227E-03  0.900E-02    0.88       1.0  T
   8    -13.1811337  0.761331E-04  0.208E-01    1.03       1.0  T
   9    -13.1812338 -0.100043E-03  0.605E-02    0.93       1.0  T
  10    -13.1812401 -0.635056E-05  0.371E-02    0.92       1.1  T
  11    -13.1812444 -0.427710E-05  0.568E-03    0.89       7.2  T
  12    -13.1812445 -0.734365E-07  0.235E-03    0.90      17.4  T
     SCC iter.                  ...        0 min,  0.001 sec
     gradient                   ...        0 min,  0.001 sec
 * total energy  :   -13.0014171 Eh     change       -0.5969945E+01 Eh
   gradient norm :     3.9823602 Eh/α   predicted    -0.5976109E+01 (   0.10%)
   displ. norm   :     0.0725776 α      lambda       -0.2638557E+00
   maximum displ.:     0.0659624 α      in ANC's #11, #3, #6, ...

........................................................................
.............................. CYCLE    4 ..............................
........................................................................
   1    -13.1824897 -0.131825E+02  0.722E-01    0.58       0.0  T
   2    -13.1838847 -0.139503E-02  0.372E-01    1.02       1.0  T
   3    -13.1843947 -0.510019E-03  0.157E-01    0.84       1.0  T
   4    -13.1844341 -0.394147E-04  0.830E-02    0.84       1.0  T
   5    -13.1844372 -0.305144E-05  0.309E-02    0.81       1.3  T
   6    -13.1844405 -0.336610E-05  0.523E-03    0.82       7.8  T
   7    -13.1844406 -0.178976E-07  0.171E-03    0.82      23.8  T
     SCC iter.                  ...        0 min,  0.000 sec
     gradient                   ...        0 min,  0.001 sec
 * total energy  :   -13.1344754 Eh     change       -0.1330583E+00 Eh
   gradient norm :     0.0365350 Eh/α   predicted    -0.1326228E+00 (  -0.33%)
   displ. norm   :     0.0338675 α      lambda       -0.9040868E-03
   maximum displ.:     0.0287692 α      in ANC's #3, #6, #12, ...

........................................................................
.............................. CYCLE    5 ..............................
........................................................................
   1    -13.1882067 -0.131882E+02  0.346E-02    0.82       0.0  T
   2    -13.1882091 -0.243891E-05  0.222E-02    0.83       1.8  T
   3    -13.1882093 -0.141660E-06  0.137E-02    0.82       3.0  T
   4    -13.1882093  0.130553E-08  0.260E-03    0.82      15.7  T
   5    -13.1882093 -0.250245E-08  0.287E-03    0.82      14.2  T
     SCC iter.                  ...        0 min,  0.000 sec
     gradient                   ...        0 min,  0.001 sec
 * total energy  :   -13.1352020 Eh     change       -0.7265902E-03 Eh
   gradient norm :     0.0402620 Eh/α   predicted    -0.4525630E-03 ( -37.71%)
   displ. norm   :     0.1519302 α      lambda       -0.3189278E-02
   maximum displ.:     0.1325025 α      in ANC's #3, #6, #1, ...

........................................................................
.............................. CYCLE    6 ..............................
........................................................................
   1    -13.2014466 -0.132014E+02  0.219E-01    0.72       0.0  T
   2    -13.2015769 -0.130293E-03  0.108E-01    0.84       1.0  T
   3    -13.2015943 -0.173884E-04  0.756E-02    0.80       1.0  T
   4    -13.2015940  0.296964E-06  0.278E-02    0.80       1.5  T
   5    -13.2015964 -0.246242E-05  0.110E-02    0.79       3.7  T
   6    -13.2015965 -0.114666E-06  0.595E-03    0.80       6.9  T
   7    -13.2015966 -0.974388E-07  0.189E-03    0.80      21.6  T
     SCC iter.                  ...        0 min,  0.000 sec
     gradient                   ...        0 min,  0.001 sec
 * total energy  :   -13.1349154 Eh     change        0.2866458E-03 Eh
   gradient norm :     0.2063675 Eh/α   predicted    -0.1631450E-02 (-669.15%)
   displ. norm   :     0.0485051 α      lambda       -0.2693952E-02
   maximum displ.:     0.0278603 α      in ANC's #6, #1, #3, ...

........................................................................
.............................. CYCLE    7 ..............................
........................................................................
   1    -13.1978182 -0.131978E+02  0.965E-02    0.86       0.0  T
   2    -13.1978365 -0.182380E-04  0.417E-02    0.80       1.0  T
   3    -13.1978419 -0.544901E-05  0.347E-02    0.82       1.2  T
   4    -13.1978435 -0.160819E-05  0.167E-02    0.82       2.4  T
   5    -13.1978436 -0.722358E-07  0.151E-03    0.82      27.0  T
   6    -13.1978436 -0.711230E-09  0.578E-04    0.82      70.7  T
     SCC iter.                  ...        0 min,  0.000 sec
     gradient                   ...        0 min,  0.001 sec
 * total energy  :   -13.1362550 Eh     change       -0.1339589E-02 Eh
   gradient norm :     0.0197207 Eh/α   predicted    -0.1350144E-02 (   0.79%)
   displ. norm   :     0.1149219 α      lambda       -0.2899211E-03
   maximum displ.:     0.1045389 α      in ANC's #1, #2, #6, ...

........................................................................
.............................. CYCLE    8 ..............................
........................................................................
   1    -13.1958058 -0.131958E+02  0.121E-01    0.83       0.0  T
   2    -13.1958077 -0.187311E-05  0.747E-02    0.82       1.0  T
   3    -13.1958018  0.586245E-05  0.550E-02    0.83       1.0  T
   4    -13.1958106 -0.882965E-05  0.668E-03    0.82       6.1  T
   5    -13.1958107 -0.219892E-07  0.203E-03    0.82      20.1  T
   6    -13.1958107 -0.428709E-08  0.675E-04    0.82      60.5  T
     SCC iter.                  ...        0 min,  0.000 sec
     gradient                   ...        0 min,  0.001 sec
 * total energy  :   -13.1360366 Eh     change        0.2183259E-03 Eh
   gradient norm :     0.0300533 Eh/α   predicted    -0.1468736E-03 (-167.27%)
   displ. norm   :     0.0908863 α      lambda       -0.7366891E-03
   maximum displ.:     0.0825859 α      in ANC's #1, #2, #3, ...

........................................................................
.............................. CYCLE    9 ..............................
........................................................................
   1    -13.1952252 -0.131952E+02  0.935E-02    0.82       0.0  T
   2    -13.1952265 -0.128582E-05  0.590E-02    0.82       1.0  T
   3    -13.1952228  0.374033E-05  0.403E-02    0.83       1.0  T
   4    -13.1952280 -0.526893E-05  0.545E-03    0.82       7.5  T
   5    -13.1952281 -0.203477E-07  0.224E-03    0.82      18.2  T
     SCC iter.                  ...        0 min,  0.000 sec
     gradient                   ...        0 min,  0.001 sec
 * total energy  :   -13.1364592 Eh     change       -0.4225432E-03 Eh
   gradient norm :     0.0069773 Eh/α   predicted    -0.3713865E-03 ( -12.11%)
   displ. norm   :     0.0292588 α      lambda       -0.1251175E-03
   maximum displ.:     0.0258558 α      in ANC's #3, #1, #2, ...

........................................................................
.............................. CYCLE   10 ..............................
........................................................................
   1    -13.1955248 -0.131955E+02  0.358E-02    0.82       0.0  T
   2    -13.1955266 -0.184410E-05  0.296E-02    0.82       1.4  T
   3    -13.1955291 -0.246508E-05  0.119E-02    0.82       3.4  T
   4    -13.1955291 -0.141848E-08  0.643E-03    0.82       6.3  T
   5    -13.1955291 -0.491870E-07  0.128E-03    0.82      31.9  T
   6    -13.1955291 -0.206089E-08  0.374E-04    0.82     109.3  T
     SCC iter.                  ...        0 min,  0.000 sec
     gradient                   ...        0 min,  0.001 sec
 * total energy  :   -13.1365546 Eh     change       -0.9544701E-04 Eh
   gradient norm :     0.0043295 Eh/α   predicted    -0.6261276E-04 ( -34.40%)
   displ. norm   :     0.0559766 α      lambda       -0.1442905E-03
   maximum displ.:     0.0409396 α      in ANC's #3, #2, #1, ...

........................................................................
.............................. CYCLE   11 ..............................
........................................................................
   1    -13.1947016 -0.131947E+02  0.762E-02    0.82       0.0  T
   2    -13.1947062 -0.461626E-05  0.585E-02    0.81       1.0  T
   3    -13.1947166 -0.103990E-04  0.264E-02    0.83       1.5  T
   4    -13.1947170 -0.370282E-06  0.886E-03    0.82       4.6  T
   5    -13.1947170 -0.723846E-07  0.202E-03    0.82      20.2  T
   6    -13.1947170 -0.418279E-08  0.717E-04    0.82      57.0  T
     SCC iter.                  ...        0 min,  0.000 sec
     gradient                   ...        0 min,  0.001 sec
 * total energy  :   -13.1365861 Eh     change       -0.3145032E-04 Eh
   gradient norm :     0.0076054 Eh/α   predicted    -0.7237097E-04 ( 130.11%)
   displ. norm   :     0.0984939 α      lambda       -0.2099886E-03
   maximum displ.:     0.0785124 α      in ANC's #2, #1, #3, ...

........................................................................
.............................. CYCLE   12 ..............................
........................................................................
   1    -13.1932885 -0.131933E+02  0.117E-01    0.82       0.0  T
   2    -13.1932936 -0.508271E-05  0.805E-02    0.81       1.0  T
   3    -13.1933029 -0.927328E-05  0.510E-02    0.83       1.0  T
   4    -13.1933061 -0.326337E-05  0.938E-03    0.82       4.4  T
   5    -13.1933062 -0.109328E-06  0.313E-03    0.82      13.1  T
   6    -13.1933062 -0.667456E-08  0.903E-04    0.82      45.2  T
   7    -13.1933062 -0.117856E-08  0.430E-04    0.82      94.9  T
     SCC iter.                  ...        0 min,  0.000 sec
     gradient                   ...        0 min,  0.001 sec
 * total energy  :   -13.1364563 Eh     change        0.1298013E-03 Eh
   gradient norm :     0.0124750 Eh/α   predicted    -0.1060158E-03 (-181.68%)
   displ. norm   :     0.0678758 α      lambda       -0.3340928E-03
   maximum displ.:     0.0489704 α      in ANC's #2, #3, #1, ...

........................................................................
.............................. CYCLE   13 ..............................
........................................................................
   1    -13.1947436 -0.131947E+02  0.894E-02    0.82       0.0  T
   2    -13.1947486 -0.501591E-05  0.642E-02    0.83       1.0  T
   3    -13.1947599 -0.112943E-04  0.335E-02    0.82       1.2  T
   4    -13.1947608 -0.903892E-06  0.901E-03    0.82       4.5  T
   5    -13.1947609 -0.776349E-07  0.219E-03    0.82      18.7  T
   6    -13.1947609 -0.361531E-08  0.686E-04    0.82      59.5  T
     SCC iter.                  ...        0 min,  0.000 sec
     gradient                   ...        0 min,  0.001 sec
 * total energy  :   -13.1366267 Eh     change       -0.1703840E-03 Eh
   gradient norm :     0.0023207 Eh/α   predicted    -0.1678166E-03 (  -1.51%)
   displ. norm   :     0.0028075 α      lambda       -0.8505081E-06
   maximum displ.:     0.0024244 α      in ANC's #2, #1, #6, ...

........................................................................
.............................. CYCLE   14 ..............................
........................................................................
   1    -13.1946563 -0.131947E+02  0.344E-03    0.82       0.0  T
   2    -13.1946563 -0.191623E-08  0.221E-03    0.82      18.5  T
   3    -13.1946563 -0.540930E-08  0.163E-03    0.82      25.1  T
   4    -13.1946563 -0.410991E-08  0.207E-04    0.82     197.5  T
   5    -13.1946563 -0.297025E-10  0.122E-04    0.82     334.9  T
     SCC iter.                  ...        0 min,  0.000 sec
     gradient                   ...        0 min,  0.001 sec
 * total energy  :   -13.1366270 Eh     change       -0.3736670E-06 Eh
   gradient norm :     0.0002967 Eh/α   predicted    -0.4262424E-06 (  14.07%)
   displ. norm   :     0.0007453 α      lambda       -0.2225881E-07
   maximum displ.:     0.0007045 α      in ANC's #1, #2, #6, ...

   *** GEOMETRY OPTIMIZATION CONVERGED AFTER 14 ITERATIONS ***

------------------------------------------------------------------------
 total energy gain   :        -6.4357780 Eh    -4038.5117 kcal/mol
 total RMSD          :         0.2141244 a0        0.1133 Å
 total power (kW/mol):     -1206.9380667 (step)********** (real)
------------------------------------------------------------------------

 ANCopt (total)                0 d,  0 h,  0 min,  0.025 sec
 optimizer setup                ...        0 min,  0.000 sec (  0.206%)
 model hessian                  ...        0 min,  0.000 sec (  0.293%)
 ANC generation                 ...        0 min,  0.000 sec (  0.250%)
 coordinate transformation      ...        0 min,  0.000 sec (  0.227%)
 single point calculation       ...        0 min,  0.024 sec ( 94.639%)
 optimization log               ...        0 min,  0.000 sec (  1.286%)
 hessian update                 ...        0 min,  0.000 sec (  0.167%)
 rational function              ...        0 min,  0.000 sec (  1.374%)

================
 final structure:
================
6
 xtb: 6.2.3 (830e466)
F        -2.90514178364930   -0.17081442485506    0.05107235503773
Cl        2.27121349292333    0.13597322304469   -0.03603642792276
C        -1.00534232305334   -0.05891562318254    0.01813535184225
H        -0.81617305871293   -0.62590563694917   -0.87195435855865
H        -0.78997893663918   -0.52670102472385    0.95852679465051
H        -0.89749739086858    1.00628348666594   -0.04104371504908
 
 Bond Distances (Angstroems)
 ---------------------------
C3-H4=1.0722         C3-H5=1.0722         C3-H6=1.0723         H4-C3=1.0722         H5-C3=1.0722         H6-C3=1.0723         
 C  H  Rav=1.0722 sigma=0.0001  Rmin=1.0722  Rmax=1.0723     3
 
 selected bond angles (degree)
 --------------------
H5-C3-H4=117.52                H6-C3-H4=117.50                H6-C3-H5=117.49                
 
 selected dihedral angles (degree)
 ---------------------------------

 
 CMA Distance (Angstroems)
 ---------------------------
R(CMA):  4.2188
           -------------------------------------------------
          |                Final Singlepoint                |
           -------------------------------------------------

          ...................................................
          :                      SETUP                      :
          :.................................................:
          :  # basis functions                  21          :
          :  # atomic orbitals                  20          :
          :  # shells                           10          :
          :  # electrons                        22          :
          :  max. iterations                   250          :
          :  Hamiltonian                  GFN2-xTB          :
          :  restarted?                      false          :
          :  GBSA solvation                  false          :
          :  PC potential                    false          :
          :  electronic temp.          300.0000000     K    :
          :  accuracy                    1.0000000          :
          :  -> integral cutoff          0.2500000E+02      :
          :  -> integral neglect         0.1000000E-07      :
          :  -> SCF convergence          0.1000000E-05 Eh   :
          :  -> wf. convergence          0.1000000E-03 e    :
          :  Broyden damping             0.4000000          :
          ...................................................

 iter      E             dE          RMSdq      gap      omega  full diag
   1    -13.1946563 -0.131947E+02  0.621E-05    0.82       0.0  T
   2    -13.1946563 -0.242117E-11  0.507E-05    0.82     805.6  T
   3    -13.1946563 -0.370370E-11  0.240E-05    0.82    1703.0  T

   *** convergence criteria satisfied after 3 iterations ***

         #    Occupation            Energy/Eh            Energy/eV
      -------------------------------------------------------------
         1        2.0000           -0.8003868             -21.7796
       ...           ...                  ...                  ...
         5        2.0000           -0.3775820             -10.2745
         6        2.0000           -0.3348603              -9.1120
         7        2.0000           -0.3001450              -8.1674
         8        2.0000           -0.3001447              -8.1674
         9        2.0000           -0.1990657              -5.4169
        10        2.0000           -0.1964663              -5.3461
        11        2.0000           -0.1964661              -5.3461 (HOMO)
        12        0.0000           -0.1662636              -4.5243 (LUMO)
        13                          0.2458307               6.6894
        14                          0.3220291               8.7629
        15                          0.3220305               8.7629
        16                          0.3220351               8.7630
       ...                                ...                  ...
        20                          0.3801685              10.3449
      -------------------------------------------------------------
                  HL-Gap            0.0302024 Eh            0.8219 eV
             Fermi-level           -0.1810205 Eh           -4.9258 eV

 SCC (total)                   0 d,  0 h,  0 min,  0.002 sec
 SCC setup                      ...        0 min,  0.000 sec (  2.697%)
 Dispersion                     ...        0 min,  0.000 sec (  0.414%)
 integral evaluation            ...        0 min,  0.001 sec ( 40.462%)
 zeroth order Hamiltonian       ...        0 min,  0.000 sec (  0.785%)
 iterations                     ...        0 min,  0.000 sec ( 14.239%)
 molecular gradient             ...        0 min,  0.001 sec ( 35.554%)
 printout                       ...        0 min,  0.000 sec (  4.608%)

         :::::::::::::::::::::::::::::::::::::::::::::::::::::
         ::                     SUMMARY                     ::
         :::::::::::::::::::::::::::::::::::::::::::::::::::::
         :: total energy             -13.136627031913 Eh    ::
         :: gradient norm              0.000296286144 Eh/a0 ::
         :: HOMO-LUMO gap              0.821850020004 eV    ::
         ::.................................................::
         :: SCC energy               -13.194656265111 Eh    ::
         :: -> isotropic ES            0.171387164141 Eh    ::
         :: -> anisotropic ES         -0.002162300819 Eh    ::
         :: -> anisotropic XC          0.005103267953 Eh    ::
         :: -> dispersion             -0.001732118290 Eh    ::
         :: repulsion energy           0.057934455157 Eh    ::
         :: add. restraining           0.000095581450 Eh    ::
         :::::::::::::::::::::::::::::::::::::::::::::::::::::

           -------------------------------------------------
          |                Property Printout                |
           -------------------------------------------------

    * Orbital Energies and Occupations

         #    Occupation            Energy/Eh            Energy/eV
      -------------------------------------------------------------
         1        2.0000           -0.8003868             -21.7796
         2        2.0000           -0.5957588             -16.2114
         3        2.0000           -0.4730126             -12.8713
         4        2.0000           -0.3776149             -10.2754
         5        2.0000           -0.3775820             -10.2745
         6        2.0000           -0.3348603              -9.1120
         7        2.0000           -0.3001450              -8.1674
         8        2.0000           -0.3001447              -8.1674
         9        2.0000           -0.1990657              -5.4169
        10        2.0000           -0.1964663              -5.3461
        11        2.0000           -0.1964661              -5.3461 (HOMO)
        12        0.0000           -0.1662636              -4.5243 (LUMO)
        13                          0.2458307               6.6894
        14                          0.3220291               8.7629
        15                          0.3220305               8.7629
        16                          0.3220351               8.7630
        17                          0.3229612               8.7882
        18                          0.3229613               8.7882
        19                          0.3799257              10.3383
        20                          0.3801685              10.3449
      -------------------------------------------------------------
                  HL-Gap            0.0302024 Eh            0.8219 eV
             Fermi-level           -0.1810205 Eh           -4.9258 eV

     #   Z        covCN         q      C6AA      α(0)
     1   9 F      0.304    -0.427    14.234     4.408
     2  17 Cl     0.000    -0.915   123.554    16.917
     3   6 C      3.083     0.017    27.541     8.603
     4   1 H      0.926     0.108     1.710     2.045
     5   1 H      0.926     0.109     1.709     2.044
     6   1 H      0.926     0.109     1.709     2.044

 Mol. C6AA /au·bohr⁶  :        572.606966
 Mol. C8AA /au·bohr⁸  :      16567.673627
 Mol. α(0) /au        :         36.061177


Wiberg/Mayer (AO) data.
largest (>0.10) Wiberg bond orders for each atom
          total WBO             WBO to atom ...
     1  F   0.819        C    3 0.765
     2  Cl  0.163        C    3 0.113
     3  C   3.835        H    4 0.986    H    6 0.986    H    5 0.986    F    1 0.765    Cl   2 0.113
     4  H   0.988        C    3 0.986
     5  H   0.988        C    3 0.986
     6  H   0.988        C    3 0.986

molecular dipole:
                 x           y           z       tot (Debye)
 q only:       -2.126      -0.129       0.031
   full:       -1.922      -0.117       0.028       4.895
molecular quadrupole (traceless):
                xx          xy          yy          xz          yz          zz
 q only:      -29.459      -2.631      14.657       0.734       0.043      14.801
  q+dip:      -30.647      -2.735      15.249       0.766       0.046      15.399
   full:      -29.887      -2.668      14.870       0.746       0.044      15.017

           -------------------------------------------------
          |                Geometry Summary                 |
           -------------------------------------------------

      molecular mass/u    :       69.4858989
   center of mass at/Å    :        0.1544156       0.0103668      -0.0006274
  moments of inertia/u·Å² :        0.3387703E+01   0.3588582E+03   0.3588585E+03
rotational constants/cm⁻¹ :        0.4976124E+01   0.4697575E-01   0.4697571E-01

 * 3 selected distances

     #   Z        #   Z                                     value/Å
     3   6 C      4   1 H                                 1.0721578 (min)
     3   6 C      5   1 H                                 1.0721663
     3   6 C      6   1 H                                 1.0722788 (max)

 * 1 distinct bonds (by element types)

   Z      Z             #   av. dist./Å        max./Å        min./Å
   1 H    6 C           3     1.0722010     1.0722788     1.0721578


optimized geometry written to: xtbopt.xyz


           -------------------------------------------------
          | TOTAL ENERGY              -13.136627031913 Eh   |
          | GRADIENT NORM               0.000296286144 Eh/α |
          | HOMO-LUMO GAP               0.821850020004 eV   |
           -------------------------------------------------

------------------------------------------------------------------------
 * finished run on 2020/04/08 at 23:04:53.388     
------------------------------------------------------------------------
 total:
 * wall-time:     0 d,  0 h,  0 min,  0.038 sec
 *  cpu-time:     0 d,  0 h,  0 min,  0.037 sec
 * ratio c/w:     0.987 speedup
 SCF:
 * wall-time:     0 d,  0 h,  0 min,  0.003 sec
 *  cpu-time:     0 d,  0 h,  0 min,  0.003 sec
 * ratio c/w:     1.000 speedup
 ANC optimizer:
 * wall-time:     0 d,  0 h,  0 min,  0.027 sec
 *  cpu-time:     0 d,  0 h,  0 min,  0.027 sec
 * ratio c/w:     1.000 speedup

