      -----------------------------------------------------------      
     |                   =====================                   |     
     |                           x T B                           |     
     |                   =====================                   |     
     |                         S. Grimme                         |     
     |          Mulliken Center for Theoretical Chemistry        |     
     |                    University of Bonn                     |     
      -----------------------------------------------------------      

   * xtb version 6.2.3 (830e466) compiled by 'ehlert@majestix' on 2020-03-16

   xtb is free software: you can redistribute it and/or modify it under
   the terms of the GNU Lesser General Public License as published by
   the Free Software Foundation, either version 3 of the License, or
   (at your option) any later version.
   
   xtb is distributed in the hope that it will be useful,
   but WITHOUT ANY WARRANTY; without even the implied warranty of
   MERCHANTABILITY or FITNESS FOR A PARTICULAR PURPOSE.  See the
   GNU Lesser General Public License for more details.
   
   Cite this work as:
   * S. Grimme, C. Bannwarth, P. Shushkov, J. Chem. Theory Comput., 2017,
     13, 1989-2009. DOI: 10.1021/acs.jctc.7b00118
   * C. Bannwarth, S. Ehlert and S. Grimme., J. Chem. Theory Comput., 2019,
     15, 1652-1671. DOI: 10.1021/acs.jctc.8b01176
   * P. Pracht, E. Caldeweyher, S. Ehlert, S. Grimme, ChemRxiv, 2019, preprint.
     DOI: 10.26434/chemrxiv.8326202.v1
   
   for DFT-D4:
   * E. Caldeweyher, C. Bannwarth and S. Grimme, J. Chem. Phys., 2017,
     147, 034112. DOI: 10.1063/1.4993215
   * E. Caldeweyher, S. Ehlert, A. Hansen, H. Neugebauer, S. Spicher,
     C. Bannwarth and S. Grimme, J. Chem. Phys., 2019, 150, 154122.
     DOI: 10.1063/1.5090222
   
   for sTDA-xTB:
   * S. Grimme and C. Bannwarth, J. Chem. Phys., 2016, 145, 054103.
     DOI: 10.1063/1.4959605
   
   in the mass-spec context:
   * V. Asgeirsson, C. Bauer and S. Grimme, Chem. Sci., 2017, 8, 4879.
     DOI: 10.1039/c7sc00601b
   
   for metadynamics refer to:
   * S. Grimme, J. Chem. Theory Comput., 2019, 155, 2847-2862
     DOI: 10.1021/acs.jctc.9b00143
   
   with help from (in alphabetical order)
   C. Bannwarth, F. Bohle, G. Brandenburg, E. Caldeweyher, M. Checinski,
   S. Dohm, S. Ehlert, S. Ehrlich, F. März, H. Neugebauer, J. Pisarek,
   P. Pracht, P. Shushkov, and S. Spicher.
   
 * started run on 2020/04/08 at 23:04:49.790     

           -------------------------------------------------
          |                Calculation Setup                |
           -------------------------------------------------

          program call               : /home/tom/.local/bin/xtb SN2_PES_scan_2-6_xtb.xyz --chrg -1 --opt --input xcontrol_SN2_PES_scan_2-6
          coordinate file            : SN2_PES_scan_2-6_xtb.xyz
          omp threads                :                     1
          number of atoms            :                     6
          number of electrons        :                    22
          charge                     :                    -1
          spin                       :                   0.0
          first test random number   :      0.99614628808220

constraining bond 1 3 to    3.4050000 Å, actual value:    3.4999578 Å
constraining bond 2 3 to    3.5830000 Å, actual value:    3.9999750 Å

molecular fragmentation (1/2 indicates fragments):
122222
# atoms in fragment 1/2:     1     5
 fragment masses (1/2) :       19.00       50.49
CMA distance (Bohr)    :  11.921
constraining FC (au)   : 10.0000
########################################################################
[WARNING] Please study the warnings concerning your input carefully
-2- prog_main: XTBPATH is not set, using XTBHOME instead
-1- prog_main: XTBHOME is not set, using HOME instead
########################################################################
           ------------------------------------------------- 
          |                 G F N 2 - x T B                 |
          | Geometry, Frequencies, Noncovalent interactions |
          |            JCTC 2019 parametrisation            |
           ------------------------------------------------- 
             k(s)              :                1.8500
             k(p)              :                2.2300
             k(d)              :                2.2300
             k(f)              :                2.0000
             kEN (H0ij)        :               -2.0000
             D4 a1             :                0.5200
             D4 a2             :                5.0000
             D4 s6             :                1.0000
             D4 s8             :                2.7000
             D4 s9             :                5.0000
             alphaj            :                2.0000

  Z AO/shell   Hii/eV     exponent
  1     Wed Apr 25 08:07:45 CEST 2018   EN: 2.200 GM2: 0.406  GM3: 0.0800  RAES: 1.40
     1s    -10.707211    1.230000
  6     Wed Apr 25 08:07:45 CEST 2018   EN: 2.550 GM2: 0.538  GM3: 0.1500  RAES: 3.00
     2s    -13.970922    2.096432
     2p    -10.063292    1.800000
  9     Mon Apr 23 13:58:50 CEST 2018   EN: 3.980 GM2: 0.532  GM3: 0.1426  RAES: 2.40
     2s    -23.458179    2.416361
     2p    -15.746583    2.308399
 17     Mon Apr 23 14:09:22 CEST 2018   EN: 3.160 GM2: 0.249  GM3: 0.1495  RAES: 2.50
     3s    -29.278781    2.485265
     3p    -12.673758    2.199650
     3d     -0.240338    2.476089

           ------------------------------------------------- 
          |        Self-Consistent Charge Iterations        |
           ------------------------------------------------- 

          ...................................................
          :                      SETUP                      :
          :.................................................:
          :  # basis functions                  21          :
          :  # atomic orbitals                  20          :
          :  # shells                           10          :
          :  # electrons                        22          :
          :  max. iterations                   250          :
          :  Hamiltonian                  GFN2-xTB          :
          :  restarted?                      false          :
          :  GBSA solvation                  false          :
          :  PC potential                    false          :
          :  electronic temp.          300.0000000     K    :
          :  accuracy                    1.0000000          :
          :  -> integral cutoff          0.2500000E+02      :
          :  -> integral neglect         0.1000000E-07      :
          :  -> SCF convergence          0.1000000E-05 Eh   :
          :  -> wf. convergence          0.1000000E-03 e    :
          :  Broyden damping             0.4000000          :
          ...................................................

 iter      E             dE          RMSdq      gap      omega  full diag
   1    -12.8013113 -0.128013E+02  0.105E+01    1.20       0.0  T
   2    -12.1320486  0.669263E+00  0.106E+01    0.00       1.0  T
   3    -12.4553255 -0.323277E+00  0.910E+00    0.00       1.0  T
   4    -12.8367246 -0.381399E+00  0.832E+00    1.62       1.0  T
   5    -12.4510294  0.385695E+00  0.981E+00    0.00       1.0  T
   6    -12.2483636  0.202666E+00  0.100E+01    0.00       1.0  T
   7    -12.9588428 -0.710479E+00  0.533E+00    0.19       1.0  T
   8    -12.2869201  0.671923E+00  0.935E+00    0.00       1.0  T
   9    -12.2609288  0.259912E-01  0.957E+00    0.00       1.0  T
  10    -13.0233596 -0.762431E+00  0.417E+00    0.14       1.0  T
  11    -12.2621756  0.761184E+00  0.957E+00    0.00       1.0  T
  12    -12.9694304 -0.707255E+00  0.489E+00    0.19       1.0  T
  13    -12.2641866  0.705244E+00  0.959E+00    0.00       1.0  T
  14    -12.5838188 -0.319632E+00  0.874E+00    0.01       1.0  T
  15    -12.2506593  0.333160E+00  0.974E+00    0.00       1.0  T
  16    -12.4610143 -0.210355E+00  0.831E+00    0.00       1.0  T
  17    -12.3071876  0.153827E+00  0.929E+00    0.00       1.0  T
  18    -12.4872807 -0.180093E+00  0.814E+00    0.00       1.0  T
  19    -12.3964357  0.908450E-01  0.874E+00    0.00       1.0  T
  20    -12.5286631 -0.132227E+00  0.788E+00    0.00       1.0  T
  21    -12.4211928  0.107470E+00  0.859E+00    0.00       1.0  T
  22    -12.3370421  0.841506E-01  0.911E+00    0.00       1.0  T
  23    -12.3437535 -0.671134E-02  0.907E+00    0.00       1.0  T
  24    -12.3795930 -0.358395E-01  0.885E+00    0.00       1.0  T
  25    -12.2604242  0.119169E+00  0.960E+00    0.00       1.0  T
  26    -12.2578707  0.255353E-02  0.963E+00    0.00       1.0  T
  27    -12.2476465  0.102242E-01  0.976E+00    0.00       1.0  T
  28    -12.2440947  0.355183E-02  0.984E+00    0.00       1.0  T
  29    -12.2399300  0.416468E-02  0.993E+00    0.00       1.0  T
  30    -12.2581032 -0.181733E-01  0.987E+00    0.00       1.0  T
  31    -12.4196685 -0.161565E+00  0.106E+01    0.00       1.0  T
  32    -12.2585037  0.161165E+00  0.964E+00    0.00       1.0  T
  33    -12.2315864  0.269173E-01  0.112E+01    0.00       1.0  T
  34    -12.2215178  0.100686E-01  0.109E+01    0.00       1.0  T
  35    -12.2146560  0.686182E-02  0.110E+01    0.00       1.0  T
  36    -12.2204130 -0.575703E-02  0.108E+01    0.00       1.0  T
  37    -12.2370124 -0.165994E-01  0.100E+01    0.00       1.0  T
  38    -12.4841589 -0.247147E+00  0.962E+00    0.00       1.0  T
  39    -12.8658122 -0.381653E+00  0.720E+00    1.57       1.0  T
  40    -12.8638502  0.196198E-02  0.685E+00    1.49       1.0  T
  41    -12.9292879 -0.654377E-01  0.562E+00    0.23       1.0  T
  42    -12.2469409  0.682347E+00  0.100E+01    0.00       1.0  T
  43    -12.4218806 -0.174940E+00  0.106E+01    0.00       1.0  T
  44    -12.8428333 -0.420953E+00  0.757E+00    1.92       1.0  T
  45    -12.8431904 -0.357084E-03  0.756E+00    2.53       1.0  T
  46    -12.8594971 -0.163067E-01  0.695E+00    1.45       1.0  T
  47    -12.2679971  0.591500E+00  0.957E+00    0.00       1.0  T
  48    -12.8767046 -0.608707E+00  0.654E+00    0.61       1.0  T
  49    -12.2519385  0.624766E+00  0.975E+00    0.00       1.0  T
  50    -12.9279131 -0.675975E+00  0.567E+00    0.21       1.0  T
  51    -13.0846428 -0.156730E+00  0.218E+00    0.08       1.0  T
  52    -12.9239363  0.160706E+00  0.562E+00    0.22       1.0  T
  53    -12.8929806  0.309557E-01  0.599E+00    0.57       1.0  T
  54    -12.8933120 -0.331421E-03  0.599E+00    0.46       1.0  T
  55    -12.8939918 -0.679795E-03  0.600E+00    0.42       1.0  T
  56    -12.8984913 -0.449944E-02  0.593E+00    0.36       1.0  T
  57    -12.2493193  0.649172E+00  0.974E+00    0.00       1.0  T
  58    -12.8877711 -0.638452E+00  0.621E+00    0.40       1.0  T
  59    -12.2454392  0.642332E+00  0.984E+00    0.00       1.0  T
  60    -13.0509553 -0.805516E+00  0.303E+00    0.09       1.0  T
  61    -12.3444508  0.706504E+00  0.942E+00    0.03       1.0  T
  62    -12.8619725 -0.517522E+00  0.708E+00    0.88       1.0  T
  63    -12.4371184  0.424854E+00  0.101E+01    0.00       1.0  T
  64    -12.8802986 -0.443180E+00  0.664E+00    0.94       1.0  T
  65    -12.4307975  0.449501E+00  0.102E+01    0.00       1.0  T
  66    -12.8676678 -0.436870E+00  0.671E+00    1.19       1.0  T
  67    -12.8921260 -0.244582E-01  0.603E+00    0.45       1.0  T
  68    -12.9015638 -0.943780E-02  0.584E+00    0.38       1.0  T
  69    -12.9082774 -0.671356E-02  0.573E+00    0.35       1.0  T
  70    -12.3654679  0.542809E+00  0.894E+00    0.00       1.0  T
  71    -12.8798047 -0.514337E+00  0.644E+00    0.49       1.0  T
  72    -12.9617682 -0.819635E-01  0.486E+00    0.18       1.0  T
  73    -12.5825460  0.379222E+00  0.877E+00    0.01       1.0  T
  74    -12.8834370 -0.300891E+00  0.626E+00    0.78       1.0  T
  75    -12.9810751 -0.976380E-01  0.471E+00    0.17       1.0  T
  76    -12.2461950  0.734880E+00  0.978E+00    0.00       1.0  T
  77    -12.8842793 -0.638084E+00  0.625E+00    0.53       1.0  T
  78    -12.2653232  0.618956E+00  0.959E+00    0.00       1.0  T
  79    -12.8853326 -0.620009E+00  0.631E+00    0.38       1.0  T
  80    -12.5069015  0.378431E+00  0.944E+00    0.01       1.0  T
  81    -12.9012775 -0.394376E+00  0.607E+00    0.35       1.0  T
  82    -12.5404702  0.360807E+00  0.962E+00    0.00       1.0  T
  83    -12.8738807 -0.333410E+00  0.654E+00    1.21       1.0  T
  84    -12.3096094  0.564271E+00  0.926E+00    0.00       1.0  T
  85    -12.8680780 -0.558469E+00  0.676E+00    1.02       1.0  T
  86    -13.0281726 -0.160095E+00  0.386E+00    0.14       1.0  T
  87    -12.4852388  0.542934E+00  0.957E+00    0.00       1.0  T
  88    -12.8847807 -0.399542E+00  0.629E+00    0.62       1.0  T
  89    -12.2637247  0.621056E+00  0.958E+00    0.00       1.0  T
  90    -12.8775947 -0.613870E+00  0.645E+00    0.71       1.0  T
  91    -12.7063709  0.171224E+00  0.651E+00    0.01       1.0  T
  92    -12.9771064 -0.270736E+00  0.483E+00    0.15       1.0  T
  93    -12.6558449  0.321262E+00  0.809E+00    0.01       1.0  T
  94    -12.8891092 -0.233264E+00  0.611E+00    0.50       1.0  T
  95    -12.8985040 -0.939484E-02  0.588E+00    0.42       1.0  T
  96    -12.2536957  0.644808E+00  0.968E+00    0.00       1.0  T
  97    -12.8767347 -0.623039E+00  0.648E+00    0.68       1.0  T
  98    -13.0974774 -0.220743E+00  0.191E+00    0.10       1.0  T
  99    -12.4303573  0.667120E+00  0.102E+01    0.00       1.0  T
 100    -12.8629048 -0.432548E+00  0.728E+00    1.30       1.0  T
 101    -12.8761576 -0.132528E-01  0.648E+00    0.81       1.0  T
 102    -12.3903219  0.485836E+00  0.876E+00    0.01       1.0  T
 103    -12.8627207 -0.472399E+00  0.695E+00    1.21       1.0  T
 104    -12.9110255 -0.483047E-01  0.567E+00    0.29       1.0  T
 105    -12.9432933 -0.322678E-01  0.518E+00    0.24       1.0  T
 106    -12.9142225  0.290708E-01  0.612E+00    0.03       1.0  T
 107    -12.9316182 -0.173957E-01  0.548E+00    0.26       1.0  T
 108    -12.4447395  0.486879E+00  0.101E+01    0.00       1.0  T
 109    -12.8805255 -0.435786E+00  0.642E+00    0.77       1.0  T
 110    -12.2569907  0.623535E+00  0.967E+00    0.00       1.0  T
 111    -12.8620335 -0.605043E+00  0.696E+00    1.49       1.0  T
 112    -12.2795121  0.582521E+00  0.947E+00    0.00       1.0  T
 113    -12.8722146 -0.592702E+00  0.663E+00    0.82       1.0  T
 114    -12.9419054 -0.696908E-01  0.516E+00    0.21       1.0  T
 115    -12.8394596  0.102446E+00  0.614E+00    0.03       1.0  T
 116    -12.2898465  0.549613E+00  0.944E+00    0.03       1.0  T
 117    -12.8596832 -0.569837E+00  0.714E+00    1.10       1.0  T
 118    -12.9228088 -0.631256E-01  0.505E+00    0.04       1.0  T
 119    -12.3349719  0.587837E+00  0.922E+00    0.04       1.0  T
 120    -12.8593042 -0.524332E+00  0.718E+00    1.04       1.0  T
 121    -12.9526671 -0.933629E-01  0.462E+00    0.04       1.0  T
 122    -12.9142878  0.383794E-01  0.530E+00    0.03       1.0  T
 123    -12.9053361  0.895164E-02  0.590E+00    0.28       1.0  T
 124    -12.9162379 -0.109018E-01  0.558E+00    0.32       1.0  T
 125    -12.2484568  0.667781E+00  0.975E+00    0.00       1.0  T
 126    -12.8829879 -0.634531E+00  0.628E+00    0.59       1.0  T
 127    -12.2602967  0.622691E+00  0.962E+00    0.00       1.0  T
 128    -12.8823126 -0.622016E+00  0.634E+00    0.48       1.0  T
 129    -12.9757112 -0.933986E-01  0.421E+00    0.05       1.0  T
 130    -12.5453900  0.430321E+00  0.925E+00    0.00       1.0  T
 131    -12.8802225 -0.334832E+00  0.639E+00    0.79       1.0  T
 132    -12.9706599 -0.904374E-01  0.493E+00    0.18       1.0  T
 133    -12.2587436  0.711916E+00  0.961E+00    0.00       1.0  T
 134    -12.8768693 -0.618126E+00  0.646E+00    0.79       1.0  T
 135    -13.0503306 -0.173461E+00  0.337E+00    0.13       1.0  T
 136    -12.4401002  0.610230E+00  0.996E+00    0.00       1.0  T
 137    -12.9038210 -0.463721E+00  0.589E+00    0.32       1.0  T
 138    -12.2525484  0.651273E+00  0.969E+00    0.00       1.0  T
 139    -12.8771447 -0.624596E+00  0.644E+00    0.81       1.0  T
 140    -13.0876709 -0.210526E+00  0.223E+00    0.09       1.0  T
 141    -12.4445986  0.643072E+00  0.992E+00    0.00       1.0  T
 142    -12.8947720 -0.450173E+00  0.600E+00    0.43       1.0  T
 143    -12.2583699  0.636402E+00  0.963E+00    0.00       1.0  T
 144    -12.8760271 -0.617657E+00  0.649E+00    0.80       1.0  T
 145    -13.0205103 -0.144483E+00  0.393E+00    0.15       1.0  T
 146    -12.4389985  0.581512E+00  0.997E+00    0.00       1.0  T
 147    -12.8963836 -0.457385E+00  0.597E+00    0.39       1.0  T
 148    -12.2581517  0.638232E+00  0.963E+00    0.00       1.0  T
 149    -12.8753711 -0.617219E+00  0.650E+00    0.87       1.0  T
 150    -13.0405503 -0.165179E+00  0.358E+00    0.13       1.0  T
 151    -12.4478904  0.592660E+00  0.988E+00    0.00       1.0  T
 152    -13.0832316 -0.635341E+00  0.232E+00    0.09       1.0  T
 153    -12.9755555  0.107676E+00  0.464E+00    0.16       1.0  T
 154    -13.0055161 -0.299606E-01  0.396E+00    0.14       1.0  T
 155    -12.7091205  0.296396E+00  0.842E+00    0.00       1.0  T
 156    -12.8930187 -0.183898E+00  0.603E+00    0.46       1.0  T
 157    -12.2517794  0.641239E+00  0.971E+00    0.00       1.0  T
 158    -12.8790779 -0.627299E+00  0.638E+00    0.85       1.0  T
 159    -12.2592268  0.619851E+00  0.962E+00    0.00       1.0  T
 160    -12.8790336 -0.619807E+00  0.639E+00    0.69       1.0  T
 161    -13.0876996 -0.208666E+00  0.226E+00    0.11       1.0  T
 162    -12.4326481  0.655052E+00  0.101E+01    0.00       1.0  T
 163    -12.8795741 -0.446926E+00  0.639E+00    0.86       1.0  T
 164    -13.0786116 -0.199037E+00  0.232E+00    0.08       1.0  T
 165    -12.9140726  0.164539E+00  0.565E+00    0.26       1.0  T
 166    -12.9459149 -0.318423E-01  0.513E+00    0.24       1.0  T
 167    -12.3035529  0.642362E+00  0.945E+00    0.00       1.0  T
 168    -12.8813960 -0.577843E+00  0.635E+00    0.63       1.0  T
 169    -12.3515870  0.529809E+00  0.905E+00    0.00       1.0  T
 170    -12.8827972 -0.531210E+00  0.633E+00    0.48       1.0  T
 171    -12.7212867  0.161511E+00  0.746E+00    0.02       1.0  T
 172    -12.2701098  0.451177E+00  0.959E+00    0.04       1.0  T
 173    -12.8620484 -0.591939E+00  0.708E+00    1.10       1.0  T
 174    -12.6005093  0.261539E+00  0.860E+00    0.01       1.0  T
 175    -12.9201125 -0.319603E+00  0.555E+00    0.27       1.0  T
 176    -12.4375005  0.482612E+00  0.100E+01    0.00       1.0  T
 177    -12.8998812 -0.462381E+00  0.591E+00    0.35       1.0  T
 178    -12.2592192  0.640662E+00  0.962E+00    0.00       1.0  T
 179    -12.8770650 -0.617846E+00  0.644E+00    0.84       1.0  T
 180    -13.0846191 -0.207554E+00  0.237E+00    0.10       1.0  T
 181    -12.4505178  0.634101E+00  0.986E+00    0.00       1.0  T
 182    -12.8943175 -0.443800E+00  0.600E+00    0.46       1.0  T
 183    -12.2812675  0.613050E+00  0.946E+00    0.00       1.0  T
 184    -12.8770440 -0.595776E+00  0.645E+00    0.78       1.0  T
 185    -12.9730484 -0.960044E-01  0.467E+00    0.20       1.0  T
 186    -12.4524291  0.520619E+00  0.983E+00    0.00       1.0  T
 187    -12.9691724 -0.516743E+00  0.497E+00    0.19       1.0  T
 188    -12.3419274  0.627245E+00  0.909E+00    0.00       1.0  T
 189    -12.8802509 -0.538323E+00  0.637E+00    0.66       1.0  T
 190    -12.9425773 -0.623264E-01  0.514E+00    0.22       1.0  T
 191    -12.6872243  0.255353E+00  0.788E+00    0.01       1.0  T
 192    -12.2839080  0.403316E+00  0.947E+00    0.03       1.0  T
 193    -12.8634801 -0.579572E+00  0.697E+00    1.18       1.0  T
 194    -13.0504000 -0.186920E+00  0.278E+00    0.10       1.0  T
 195    -12.7420852  0.308315E+00  0.722E+00    0.02       1.0  T
 196    -12.8966593 -0.154574E+00  0.593E+00    0.41       1.0  T
 197    -12.2750205  0.621639E+00  0.950E+00    0.00       1.0  T
 198    -12.8834087 -0.608388E+00  0.626E+00    0.61       1.0  T
 199    -12.2985673  0.584841E+00  0.936E+00    0.00       1.0  T
 200    -12.8831041 -0.584537E+00  0.629E+00    0.53       1.0  T
 201    -13.0515338 -0.168430E+00  0.278E+00    0.11       1.0  T
 202    -12.4526060  0.598928E+00  0.985E+00    0.00       1.0  T
 203    -12.8837061 -0.431100E+00  0.625E+00    0.77       1.0  T
 204    -13.0760780 -0.192372E+00  0.227E+00    0.07       1.0  T
 205    -12.9476112  0.128467E+00  0.508E+00    0.20       1.0  T
 206    -13.0401433 -0.925321E-01  0.321E+00    0.13       1.0  T
 207    -12.5078214  0.532322E+00  0.960E+00    0.00       1.0  T
 208    -12.8894163 -0.381595E+00  0.612E+00    0.51       1.0  T
 209    -12.2586193  0.630797E+00  0.962E+00    0.00       1.0  T
 210    -12.8763891 -0.617770E+00  0.646E+00    1.04       1.0  T
 211    -12.2678026  0.608587E+00  0.955E+00    0.00       1.0  T
 212    -12.8786040 -0.610801E+00  0.639E+00    0.81       1.0  T
 213    -13.0870067 -0.208403E+00  0.195E+00    0.08       1.0  T
 214    -12.4662553  0.620751E+00  0.972E+00    0.00       1.0  T
 215    -12.8982601 -0.432005E+00  0.593E+00    0.41       1.0  T
 216    -12.3121391  0.586121E+00  0.927E+00    0.00       1.0  T
 217    -12.8809870 -0.568848E+00  0.634E+00    0.64       1.0  T
 218    -12.9856428 -0.104656E+00  0.442E+00    0.18       1.0  T
 219    -12.4517153  0.533928E+00  0.983E+00    0.00       1.0  T
 220    -12.9120104 -0.460295E+00  0.574E+00    0.29       1.0  T
 221    -12.2712401  0.640770E+00  0.952E+00    0.00       1.0  T
 222    -12.8799742 -0.608734E+00  0.636E+00    0.76       1.0  T
 223    -13.0823803 -0.202406E+00  0.246E+00    0.10       1.0  T
 224    -12.4627085  0.619672E+00  0.974E+00    0.00       1.0  T
 225    -12.9299846 -0.467276E+00  0.549E+00    0.24       1.0  T
 226    -12.3164421  0.613543E+00  0.925E+00    0.00       1.0  T
 227    -12.8822360 -0.565794E+00  0.631E+00    0.62       1.0  T
 228    -12.9588149 -0.765788E-01  0.488E+00    0.21       1.0  T
 229    -12.5167548  0.442060E+00  0.930E+00    0.00       1.0  T
 230    -12.3576585  0.159096E+00  0.900E+00    0.02       1.0  T
 231    -12.8681965 -0.510538E+00  0.678E+00    1.02       1.0  T
 232    -12.9945519 -0.126355E+00  0.420E+00    0.15       1.0  T
 233    -12.9601205  0.344314E-01  0.442E+00    0.04       1.0  T
 234    -12.9594800  0.640531E-03  0.487E+00    0.18       1.0  T
 235    -12.4800906  0.479389E+00  0.968E+00    0.00       1.0  T
 236    -12.6878395 -0.207749E+00  0.665E+00    0.02       1.0  T
 237    -12.8849192 -0.197080E+00  0.624E+00    0.54       1.0  T
 238    -13.0137249 -0.128806E+00  0.411E+00    0.15       1.0  T
 239    -12.6305391  0.383186E+00  0.834E+00    0.01       1.0  T
 240    -12.3580386  0.272500E+00  0.900E+00    0.03       1.0  T
 241    -12.8647765 -0.506738E+00  0.693E+00    1.18       1.0  T
 242    -12.9444220 -0.796455E-01  0.512E+00    0.20       1.0  T
 243    -13.0635571 -0.119135E+00  0.245E+00    0.10       1.0  T
 244    -12.5967744  0.466783E+00  0.866E+00    0.00       1.0  T
 245    -12.8941814 -0.297407E+00  0.599E+00    0.49       1.0  T
 246    -12.2617672  0.632414E+00  0.958E+00    0.00       1.0  T
 247    -12.8809780 -0.619211E+00  0.632E+00    0.86       1.0  T
 248    -12.2575558  0.623422E+00  0.963E+00    0.00       1.0  T
 249    -12.8817257 -0.624170E+00  0.629E+00    0.78       1.0  T
 250    -12.2850375  0.596688E+00  0.944E+00    0.00       1.0  T

   *** convergence criteria cannot be satisfied within 250 iterations ***

         #    Occupation            Energy/Eh            Energy/eV
      -------------------------------------------------------------
         1        2.0000           -0.8697393             -23.6668
       ...           ...                  ...                  ...
         5        2.0000           -0.3782455             -10.2926
         6        2.0000           -0.2495713              -6.7912
         7        2.0000           -0.2493434              -6.7850
         8        2.0000           -0.2493429              -6.7850
         9        1.9985           -0.2407252              -6.5505
        10        1.3724           -0.2346285              -6.3846
        11        1.3146           -0.2345039              -6.3812 (HOMO)
        12        1.3145           -0.2345037              -6.3812 (LUMO)
        13                          0.2264185               6.1612
        14                          0.2340571               6.3690
        15                          0.2340575               6.3690
        16                          0.2340850               6.3698
       ...                                ...                  ...
        20                          0.3953432              10.7578
      -------------------------------------------------------------
                  HL-Gap            0.0000002 Eh            0.0000 eV
             Fermi-level           -0.2338851 Eh           -6.3643 eV

 SCC (total)                   0 d,  0 h,  0 min,  0.114 sec
 SCC setup                      ...        0 min,  0.000 sec (  0.055%)
 Dispersion                     ...        0 min,  0.000 sec (  0.012%)
 integral evaluation            ...        0 min,  0.001 sec (  0.574%)
 zeroth order Hamiltonian       ...        0 min,  0.000 sec (  0.012%)
 iterations                     ...        0 min,  0.112 sec ( 98.783%)
 molecular gradient             ...        0 min,  0.001 sec (  0.492%)
 printout                       ...        0 min,  0.000 sec (  0.053%)

         :::::::::::::::::::::::::::::::::::::::::::::::::::::
         ::                     SUMMARY                     ::
         :::::::::::::::::::::::::::::::::::::::::::::::::::::
         :: total energy              -5.693892883673 Eh    ::
         :: gradient norm             20.233005215655 Eh/a0 ::
         :: HOMO-LUMO gap              0.000004369867 eV    ::
         ::.................................................::
         :: SCC energy               -12.285037520116 Eh    ::
         :: -> isotropic ES            0.700230974882 Eh    ::
         :: -> anisotropic ES          0.011406556306 Eh    ::
         :: -> anisotropic XC          0.004178871186 Eh    ::
         :: -> dispersion             -0.001314209476 Eh    ::
         :: repulsion energy           0.059831729885 Eh    ::
         :: add. restraining           6.530946623966 Eh    ::
         :::::::::::::::::::::::::::::::::::::::::::::::::::::

      ----------------------------------------------------------- 
     |                   =====================                   |
     |                        A N C O P T                        |
     |                   =====================                   |
     |               Approximate Normal Coordinate               |
     |                Rational Function Optimizer                |
      ----------------------------------------------------------- 

          ...................................................
          :                      SETUP                      :
          :.................................................:
          :   optimization level            normal          :
          :   max. optcycles                   200          :
          :   ANC micro-cycles                  20          :
          :   degrees of freedom                12          :
          :.................................................:
          :   RF solver                   davidson          :
          :   write xtbopt.log                true          :
          :   linear?                        false          :
          :   energy convergence         0.5000000E-05 Eh   :
          :   grad. convergence          0.1000000E-02 Eh/α :
          :   maximium RF displ.         1.0000000          :
          :   Hlow (freq-cutoff)         0.1000000E-01      :
          :   Hmax (freq-cutoff)         5.0000000          :
          :   S6 in model hess.         20.0000000          :
          ...................................................

generating ANC from model Hessian ...
Using Lindh-Hessian (1995)
 Shifting diagonal of input Hessian by   9.774244855949526E-003
 Lowest  eigenvalues of input Hessian
   -0.000000   -0.000000   -0.000000    0.000000    0.000000    0.000000
    0.010000    0.061582    0.061623    0.160821    0.161032    0.447798
    0.609600    0.609899    4.570628    4.571512   20.014833   60.007140
 Highest eigenvalues
    0.609600    0.609899    4.570628    4.571512   20.014833   60.007140
 

........................................................................
.............................. CYCLE    1 ..............................
........................................................................
   1    -12.8821745 -0.128822E+02  0.629E+00    0.64       0.0  T
   2    -12.1063206  0.775854E+00  0.120E+01    0.00       1.0  T
   3    -12.4039226 -0.297602E+00  0.110E+01    0.00       1.0  T
   4    -12.4232437 -0.193211E-01  0.102E+01    0.00       1.0  T
   5    -12.2788461  0.144398E+00  0.958E+00    0.00       1.0  T
   6    -12.8960097 -0.617164E+00  0.593E+00    0.37       1.0  T
   7    -13.0490441 -0.153034E+00  0.283E+00    0.10       1.0  T
   8    -12.5220503  0.526994E+00  0.927E+00    0.01       1.0  T
   9    -13.0500319 -0.527982E+00  0.290E+00    0.09       1.0  T
  10    -12.6157396  0.434292E+00  0.848E+00    0.01       1.0  T
  11    -13.0257528 -0.410013E+00  0.336E+00    0.06       1.0  T
  12    -12.9992128  0.265400E-01  0.389E+00    0.05       1.0  T
  13    -13.0095340 -0.103212E-01  0.407E+00    0.13       1.0  T
  14    -12.9297593  0.797747E-01  0.548E+00    0.21       1.0  T
  15    -12.9167336  0.130257E-01  0.565E+00    0.24       1.0  T
  16    -12.9115854  0.514820E-02  0.571E+00    0.26       1.0  T
  17    -12.9069418  0.464363E-02  0.574E+00    0.31       1.0  T
  18    -13.0441679 -0.137226E+00  0.271E+00    0.06       1.0  T
  19    -12.8879169  0.156251E+00  0.620E+00    0.41       1.0  T
  20    -12.8897541 -0.183723E-02  0.610E+00    0.49       1.0  T
  21    -12.2748790  0.614875E+00  0.948E+00    0.01       1.0  T
  22    -12.9027954 -0.627916E+00  0.581E+00    0.36       1.0  T
  23    -12.8930054  0.978991E-02  0.602E+00    0.41       1.0  T
  24    -12.8947095 -0.170402E-02  0.596E+00    0.45       1.0  T
  25    -12.9024154 -0.770589E-02  0.583E+00    0.39       1.0  T
  26    -12.8992823  0.313305E-02  0.588E+00    0.45       1.0  T
  27    -12.9011811 -0.189882E-02  0.584E+00    0.42       1.0  T
  28    -12.4006941  0.500487E+00  0.869E+00    0.01       1.0  T
  29    -12.9905785 -0.589884E+00  0.500E+00    0.13       1.0  T
  30    -12.8813078  0.109271E+00  0.652E+00    0.37       1.0  T
  31    -12.8848711 -0.356326E-02  0.624E+00    0.62       1.0  T
  32    -12.8884579 -0.358686E-02  0.614E+00    0.64       1.0  T
  33    -12.2623115  0.626146E+00  0.957E+00    0.01       1.0  T
  34    -12.7246190 -0.462308E+00  0.824E+00    0.02       1.0  T
  35    -12.8962273 -0.171608E+00  0.606E+00    0.40       1.0  T
  36    -12.2470281  0.649199E+00  0.101E+01    0.00       1.0  T
  37    -12.6229370 -0.375909E+00  0.889E+00    0.01       1.0  T
  38    -12.3351009  0.287836E+00  0.909E+00    0.01       1.0  T
  39    -13.0401792 -0.705078E+00  0.423E+00    0.09       1.0  T
  40    -12.8858232  0.154356E+00  0.637E+00    0.34       1.0  T
  41    -12.8869672 -0.114399E-02  0.617E+00    0.52       1.0  T
  42    -12.8985398 -0.115726E-01  0.590E+00    0.43       1.0  T
  43    -12.2826884  0.615851E+00  0.943E+00    0.01       1.0  T
  44    -13.0063429 -0.723655E+00  0.505E+00    0.05       1.0  T
  45    -12.8827926  0.123550E+00  0.655E+00    0.33       1.0  T
  46    -13.0132556 -0.130463E+00  0.426E+00    0.15       1.0  T
  47    -12.8938535  0.119402E+00  0.600E+00    0.52       1.0  T
  48    -13.0836136 -0.189760E+00  0.247E+00    0.10       1.0  T
  49    -12.8824953  0.201118E+00  0.632E+00    0.53       1.0  T
  50    -12.8892272 -0.673192E-02  0.611E+00    0.53       1.0  T
  51    -12.8967720 -0.754486E-02  0.594E+00    0.47       1.0  T
  52    -13.0473103 -0.150538E+00  0.354E+00    0.13       1.0  T
  53    -12.8865858  0.160724E+00  0.619E+00    0.50       1.0  T
  54    -12.8994718 -0.128860E-01  0.589E+00    0.44       1.0  T
  55    -13.0710416 -0.171570E+00  0.292E+00    0.11       1.0  T
  56    -12.8843404  0.186701E+00  0.628E+00    0.47       1.0  T
  57    -12.8964650 -0.121246E-01  0.595E+00    0.40       1.0  T
  58    -12.9355701 -0.391051E-01  0.535E+00    0.25       1.0  T
  59    -12.9330530  0.251713E-02  0.539E+00    0.25       1.0  T
  60    -12.3375444  0.595509E+00  0.908E+00    0.01       1.0  T
  61    -12.8924695 -0.554925E+00  0.702E+00    0.22       1.0  T
  62    -12.9123004 -0.198309E-01  0.611E+00    0.22       1.0  T
  63    -12.9137742 -0.147375E-02  0.578E+00    0.24       1.0  T
  64    -12.9640200 -0.502458E-01  0.481E+00    0.18       1.0  T
  65    -12.2474722  0.716548E+00  0.978E+00    0.00       1.0  T
  66    -12.4683604 -0.220888E+00  0.104E+01    0.00       1.0  T
  67    -12.8768664 -0.408506E+00  0.657E+00    0.50       1.0  T
  68    -12.2450466  0.631820E+00  0.101E+01    0.00       1.0  T
  69    -12.4649974 -0.219951E+00  0.100E+01    0.00       1.0  T
  70    -12.2435477  0.221450E+00  0.103E+01    0.00       1.0  T
  71    -12.6677145 -0.424167E+00  0.813E+00    0.02       1.0  T
  72    -12.2421606  0.425554E+00  0.104E+01    0.00       1.0  T
  73    -12.4664263 -0.224266E+00  0.993E+00    0.00       1.0  T
  74    -12.2479331  0.218493E+00  0.102E+01    0.00       1.0  T
  75    -12.9778306 -0.729897E+00  0.505E+00    0.15       1.0  T
  76    -12.8737986  0.104032E+00  0.666E+00    0.44       1.0  T
  77    -12.8779143 -0.411565E-02  0.645E+00    0.57       1.0  T
  78    -12.8843899 -0.647561E-02  0.624E+00    0.54       1.0  T
  79    -12.9443727 -0.599829E-01  0.524E+00    0.23       1.0  T
  80    -12.2490472  0.695326E+00  0.977E+00    0.00       1.0  T
  81    -12.8784956 -0.629448E+00  0.725E+00    0.24       1.0  T
  82    -12.9152676 -0.367720E-01  0.588E+00    0.23       1.0  T
  83    -13.0483806 -0.133113E+00  0.287E+00    0.10       1.0  T
  84    -12.2387367  0.809644E+00  0.102E+01    0.00       1.0  T
  85    -12.9955205 -0.756784E+00  0.534E+00    0.13       1.0  T
  86    -12.8382227  0.157298E+00  0.641E+00    0.02       1.0  T
  87    -12.2459846  0.592238E+00  0.999E+00    0.00       1.0  T
  88    -12.8705779 -0.624593E+00  0.714E+00    0.29       1.0  T
  89    -12.8934827 -0.229048E-01  0.614E+00    0.32       1.0  T
  90    -13.0801072 -0.186624E+00  0.252E+00    0.12       1.0  T
  91    -13.0557783  0.243290E-01  0.250E+00    0.08       1.0  T
  92    -12.2357699  0.820008E+00  0.105E+01    0.00       1.0  T
  93    -12.9316691 -0.695899E+00  0.612E+00    0.18       1.0  T
  94    -12.9645393 -0.328702E-01  0.464E+00    0.04       1.0  T
  95    -12.2470096  0.717530E+00  0.986E+00    0.00       1.0  T
  96    -12.9259774 -0.678968E+00  0.673E+00    0.17       1.0  T
  97    -12.9992462 -0.732689E-01  0.451E+00    0.13       1.0  T
  98    -12.5097912  0.489455E+00  0.804E+00    0.02       1.0  T
  99    -12.8963252 -0.386534E+00  0.692E+00    0.22       1.0  T
 100    -13.0368702 -0.140545E+00  0.312E+00    0.06       1.0  T
 101    -12.2429512  0.793919E+00  0.100E+01    0.00       1.0  T
 102    -12.9274435 -0.684492E+00  0.654E+00    0.18       1.0  T
 103    -13.0498562 -0.122413E+00  0.329E+00    0.08       1.0  T
 104    -12.9691186  0.807376E-01  0.385E+00    0.05       1.0  T
 105    -12.9713253 -0.220671E-02  0.522E+00    0.15       1.0  T
 106    -12.7464373  0.224888E+00  0.716E+00    0.01       1.0  T
 107    -12.2309876  0.515450E+00  0.111E+01    0.00       1.0  T
 108    -12.8816656 -0.650678E+00  0.630E+00    0.53       1.0  T
 109    -12.8941608 -0.124952E-01  0.617E+00    0.29       1.0  T
 110    -13.0999358 -0.205775E+00  0.158E+00    0.07       1.0  T
 111    -12.2430997  0.856836E+00  0.101E+01    0.00       1.0  T
 112    -12.8655977 -0.622498E+00  0.730E+00    0.30       1.0  T
 113    -13.0326308 -0.167033E+00  0.364E+00    0.11       1.0  T
 114    -12.9572999  0.753309E-01  0.526E+00    0.03       1.0  T
 115    -12.2439970  0.713303E+00  0.102E+01    0.00       1.0  T
 116    -12.8537503 -0.609753E+00  0.738E+00    0.47       1.0  T
 117    -12.9105967 -0.568464E-01  0.592E+00    0.24       1.0  T
 118    -12.9573761 -0.467795E-01  0.445E+00    0.04       1.0  T
 119    -12.2402695  0.717107E+00  0.103E+01    0.00       1.0  T
 120    -12.8656093 -0.625340E+00  0.734E+00    0.29       1.0  T
 121    -12.9993966 -0.133787E+00  0.434E+00    0.14       1.0  T
 122    -12.5853514  0.414045E+00  0.795E+00    0.01       1.0  T
 123    -12.9620325 -0.376681E+00  0.575E+00    0.15       1.0  T
 124    -12.6021351  0.359897E+00  0.862E+00    0.01       1.0  T
 125    -12.2471118  0.355023E+00  0.100E+01    0.00       1.0  T
 126    -12.8532746 -0.606163E+00  0.755E+00    0.37       1.0  T
 127    -12.8975215 -0.442469E-01  0.603E+00    0.31       1.0  T
 128    -12.2852577  0.612264E+00  0.942E+00    0.01       1.0  T
 129    -12.9401927 -0.654935E+00  0.651E+00    0.16       1.0  T
 130    -12.8995939  0.405988E-01  0.555E+00    0.03       1.0  T
 131    -12.9671953 -0.676014E-01  0.492E+00    0.20       1.0  T
 132    -12.2448207  0.722375E+00  0.993E+00    0.00       1.0  T
 133    -12.8852734 -0.640453E+00  0.707E+00    0.23       1.0  T
 134    -13.0511242 -0.165851E+00  0.298E+00    0.09       1.0  T
 135    -12.2582263  0.792898E+00  0.961E+00    0.00       1.0  T
 136    -13.0405448 -0.782318E+00  0.508E+00    0.08       1.0  T
 137    -12.5112306  0.529314E+00  0.962E+00    0.00       1.0  T
 138    -12.8796052 -0.368375E+00  0.644E+00    0.55       1.0  T
 139    -12.2465988  0.633006E+00  0.995E+00    0.00       1.0  T
 140    -12.8645907 -0.617992E+00  0.718E+00    0.34       1.0  T
 141    -12.9080117 -0.434210E-01  0.574E+00    0.29       1.0  T
 142    -12.2458907  0.662121E+00  0.986E+00    0.00       1.0  T
 143    -12.9983959 -0.752505E+00  0.564E+00    0.12       1.0  T
 144    -12.6971015  0.301294E+00  0.784E+00    0.01       1.0  T
 145    -12.2685273  0.428574E+00  0.952E+00    0.00       1.0  T
 146    -12.8583785 -0.589851E+00  0.741E+00    0.35       1.0  T
 147    -12.8942033 -0.358247E-01  0.601E+00    0.39       1.0  T
 148    -12.2527141  0.641489E+00  0.969E+00    0.00       1.0  T
 149    -12.9057317 -0.653018E+00  0.690E+00    0.20       1.0  T
 150    -12.9900225 -0.842908E-01  0.453E+00    0.14       1.0  T
 151    -12.5753232  0.414699E+00  0.761E+00    0.02       1.0  T
 152    -12.9921063 -0.416783E+00  0.524E+00    0.13       1.0  T
 153    -12.8932244  0.988819E-01  0.558E+00    0.03       1.0  T
 154    -12.2530472  0.640177E+00  0.968E+00    0.00       1.0  T
 155    -12.8769564 -0.623909E+00  0.727E+00    0.25       1.0  T
 156    -12.9174431 -0.404867E-01  0.570E+00    0.24       1.0  T
 157    -12.2783766  0.639067E+00  0.947E+00    0.01       1.0  T
 158    -12.9793077 -0.700931E+00  0.584E+00    0.14       1.0  T
 159    -12.8517457  0.127562E+00  0.619E+00    0.03       1.0  T
 160    -12.9029314 -0.511857E-01  0.582E+00    0.36       1.0  T
 161    -12.2457111  0.657220E+00  0.990E+00    0.00       1.0  T
 162    -12.9221602 -0.676449E+00  0.655E+00    0.18       1.0  T
 163    -13.0515902 -0.129430E+00  0.295E+00    0.08       1.0  T
 164    -12.2544444  0.797146E+00  0.965E+00    0.00       1.0  T
 165    -13.0191530 -0.764709E+00  0.530E+00    0.11       1.0  T
 166    -12.8464096  0.172743E+00  0.634E+00    0.03       1.0  T
 167    -12.8950811 -0.486716E-01  0.600E+00    0.38       1.0  T
 168    -12.2455991  0.649482E+00  0.994E+00    0.00       1.0  T
 169    -12.8893212 -0.643722E+00  0.686E+00    0.24       1.0  T
 170    -12.9517006 -0.623794E-01  0.507E+00    0.18       1.0  T
 171    -12.2473120  0.704389E+00  0.979E+00    0.00       1.0  T
 172    -13.0379315 -0.790620E+00  0.477E+00    0.07       1.0  T
 173    -12.6034353  0.434496E+00  0.886E+00    0.01       1.0  T
 174    -12.8828829 -0.279448E+00  0.636E+00    0.45       1.0  T
 175    -12.2463424  0.636540E+00  0.996E+00    0.00       1.0  T
 176    -12.8717973 -0.625455E+00  0.699E+00    0.31       1.0  T
 177    -12.9115383 -0.397410E-01  0.566E+00    0.29       1.0  T
 178    -12.2449015  0.666637E+00  0.993E+00    0.00       1.0  T
 179    -12.9508127 -0.705911E+00  0.611E+00    0.16       1.0  T
 180    -13.0472453 -0.964326E-01  0.302E+00    0.07       1.0  T
 181    -12.2499965  0.797249E+00  0.973E+00    0.00       1.0  T
 182    -12.9713822 -0.721386E+00  0.594E+00    0.14       1.0  T
 183    -13.0479116 -0.765294E-01  0.327E+00    0.09       1.0  T
 184    -12.4742349  0.573677E+00  0.822E+00    0.02       1.0  T
 185    -12.9126290 -0.438394E+00  0.634E+00    0.21       1.0  T
 186    -12.9751464 -0.625175E-01  0.468E+00    0.16       1.0  T
 187    -12.2522533  0.722893E+00  0.968E+00    0.00       1.0  T
 188    -13.0353268 -0.783074E+00  0.474E+00    0.07       1.0  T
 189    -12.6778066  0.357520E+00  0.822E+00    0.01       1.0  T
 190    -12.8840011 -0.206195E+00  0.642E+00    0.36       1.0  T
 191    -12.2479601  0.636041E+00  0.985E+00    0.00       1.0  T
 192    -12.8841833 -0.636223E+00  0.689E+00    0.25       1.0  T
 193    -12.9209129 -0.367297E-01  0.553E+00    0.24       1.0  T
 194    -12.2461500  0.674763E+00  0.985E+00    0.00       1.0  T
 195    -13.0076790 -0.761529E+00  0.528E+00    0.12       1.0  T
 196    -12.9369763  0.707027E-01  0.507E+00    0.04       1.0  T
 197    -12.5576500  0.379326E+00  0.763E+00    0.02       1.0  T
 198    -12.8800915 -0.322442E+00  0.665E+00    0.32       1.0  T
 199    -12.9094303 -0.293387E-01  0.571E+00    0.30       1.0  T
 200    -12.2475404  0.661890E+00  0.981E+00    0.00       1.0  T
 201    -12.9817225 -0.734182E+00  0.569E+00    0.14       1.0  T
 202    -12.9755678  0.615467E-02  0.445E+00    0.04       1.0  T
 203    -13.0665380 -0.909701E-01  0.300E+00    0.12       1.0  T
 204    -12.2482814  0.818257E+00  0.979E+00    0.00       1.0  T
 205    -12.8834364 -0.635155E+00  0.688E+00    0.26       1.0  T
 206    -12.9671673 -0.837309E-01  0.486E+00    0.16       1.0  T
 207    -12.6152161  0.351951E+00  0.742E+00    0.02       1.0  T
 208    -13.0358505 -0.420634E+00  0.414E+00    0.10       1.0  T
 209    -12.9027128  0.133138E+00  0.548E+00    0.03       1.0  T
 210    -12.2733239  0.629389E+00  0.949E+00    0.00       1.0  T
 211    -12.8881509 -0.614827E+00  0.692E+00    0.24       1.0  T
 212    -12.9254814 -0.373305E-01  0.556E+00    0.22       1.0  T
 213    -12.8112613  0.114220E+00  0.560E+00    0.03       1.0  T
 214    -13.0067519 -0.195491E+00  0.449E+00    0.13       1.0  T
 215    -12.9879127  0.188392E-01  0.404E+00    0.05       1.0  T
 216    -12.2467660  0.741147E+00  0.986E+00    0.00       1.0  T
 217    -12.9285499 -0.681784E+00  0.646E+00    0.18       1.0  T
 218    -13.0354556 -0.106906E+00  0.357E+00    0.11       1.0  T
 219    -13.0552376 -0.197820E-01  0.261E+00    0.09       1.0  T
 220    -12.2417409  0.813497E+00  0.101E+01    0.00       1.0  T
 221    -12.9370604 -0.695320E+00  0.621E+00    0.17       1.0  T
 222    -13.0157916 -0.787312E-01  0.362E+00    0.05       1.0  T
 223    -12.2624996  0.753292E+00  0.957E+00    0.00       1.0  T
 224    -12.9794383 -0.716939E+00  0.574E+00    0.14       1.0  T
 225    -13.0502727 -0.708343E-01  0.323E+00    0.08       1.0  T
 226    -12.9961611  0.541115E-01  0.419E+00    0.14       1.0  T
 227    -12.2444414  0.751720E+00  0.991E+00    0.00       1.0  T
 228    -13.0238952 -0.779454E+00  0.492E+00    0.11       1.0  T
 229    -12.8337613  0.190134E+00  0.642E+00    0.02       1.0  T
 230    -12.9041040 -0.703427E-01  0.580E+00    0.36       1.0  T
 231    -12.2443981  0.659706E+00  0.100E+01    0.00       1.0  T
 232    -12.9026599 -0.658262E+00  0.658E+00    0.22       1.0  T
 233    -12.9739073 -0.712473E-01  0.467E+00    0.16       1.0  T
 234    -12.2471274  0.726780E+00  0.980E+00    0.00       1.0  T
 235    -13.0200194 -0.772892E+00  0.481E+00    0.06       1.0  T
 236    -12.8700524  0.149967E+00  0.625E+00    0.03       1.0  T
 237    -12.9038686 -0.338162E-01  0.608E+00    0.25       1.0  T
 238    -12.2476896  0.656179E+00  0.983E+00    0.00       1.0  T
 239    -12.9328695 -0.685180E+00  0.623E+00    0.18       1.0  T
 240    -12.9706436 -0.377741E-01  0.475E+00    0.16       1.0  T
 241    -12.2465026  0.724141E+00  0.983E+00    0.00       1.0  T
 242    -13.0332569 -0.786754E+00  0.473E+00    0.10       1.0  T
 243    -13.0306675  0.258939E-02  0.357E+00    0.06       1.0  T
 244    -12.9482851  0.823824E-01  0.510E+00    0.24       1.0  T
 245    -12.2410126  0.707273E+00  0.102E+01    0.00       1.0  T
 246    -12.8883103 -0.647298E+00  0.664E+00    0.26       1.0  T
 247    -12.9714293 -0.831189E-01  0.466E+00    0.16       1.0  T
 248    -12.2446466  0.726783E+00  0.989E+00    0.00       1.0  T
 249    -13.0261768 -0.781530E+00  0.465E+00    0.06       1.0  T
 250    -12.8532736  0.172903E+00  0.635E+00    0.03       1.0  T
     SCC iter.                  ...        0 min,  0.112 sec
     gradient                   ...        0 min,  0.001 sec
 * total energy  :    -6.2622580 Eh     change       -0.5683651E+00 Eh
   gradient norm :    20.2330156 Eh/α   predicted     0.0000000E+00 (-100.00%)
   displ. norm   :     0.8840443 α      lambda       -0.1788688E+02
   maximum displ.:     0.6512508 α      in ANC's #11, #12, #9, ...

........................................................................
.............................. CYCLE    2 ..............................
........................................................................
   1    -12.9472690 -0.129473E+02  0.673E+00    0.46       0.0  T
   2    -12.0785310  0.868738E+00  0.103E+01    0.00       1.0  T
   3    -12.5688680 -0.490337E+00  0.926E+00    0.04       1.0  T
   4    -12.9150179 -0.346150E+00  0.602E+00    0.59       1.0  T
   5    -12.8600003  0.550176E-01  0.719E+00    0.10       1.0  T
   6    -12.6991358  0.160865E+00  0.829E+00    0.06       1.0  T
   7    -12.1919255  0.507210E+00  0.948E+00    0.00       1.0  T
   8    -12.1968336 -0.490802E-02  0.940E+00    0.00       1.0  T
   9    -12.1952997  0.153381E-02  0.940E+00    0.00       1.0  T
  10    -12.1968479 -0.154813E-02  0.936E+00    0.00       1.0  T
  11    -12.1988213 -0.197342E-02  0.937E+00    0.00       1.0  T
  12    -12.1982065  0.614779E-03  0.937E+00    0.00       1.0  T
  13    -12.8015316 -0.603325E+00  0.747E+00    0.03       1.0  T
  14    -12.6652320  0.136300E+00  0.860E+00    0.02       1.0  T
  15    -12.5559718  0.109260E+00  0.938E+00    0.03       1.0  T
  16    -12.9837755 -0.427804E+00  0.593E+00    0.15       1.0  T
  17    -12.6077451  0.376030E+00  0.970E+00    0.04       1.0  T
  18    -12.8959461 -0.288201E+00  0.824E+00    0.77       1.0  T
  19    -12.5236659  0.372280E+00  0.123E+01    0.02       1.0  T
  20    -12.8392632 -0.315597E+00  0.138E+01    0.99       1.0  T
  21    -12.7119284  0.127335E+00  0.177E+01    4.25       1.0  T
  22    -12.7099295  0.199890E-02  0.178E+01    4.26       1.0  T
  23    -12.9899360 -0.280006E+00  0.997E+00    0.33       1.0  T
  24    -12.4750983  0.514838E+00  0.124E+01    0.00       1.0  T
  25    -12.4211000  0.539984E-01  0.137E+01    0.00       1.0  T
  26    -12.4074954  0.136045E-01  0.141E+01    0.00       1.0  T
  27    -12.4001453  0.735009E-02  0.144E+01    0.00       1.0  T
  28    -12.4282189 -0.280735E-01  0.131E+01    0.00       1.0  T
  29    -12.7443982 -0.316179E+00  0.913E+00    0.05       1.0  T
  30    -12.2391624  0.505236E+00  0.946E+00    0.14       1.0  T
  31    -12.4812577 -0.242095E+00  0.790E+00    0.12       1.0  T
  32    -12.8629577 -0.381700E+00  0.976E+00    0.18       1.0  T
  33    -12.1776002  0.685358E+00  0.992E+00    0.07       1.0  T
  34    -12.5197864 -0.342186E+00  0.107E+01    0.01       1.0  T
  35    -12.2473170  0.272469E+00  0.930E+00    0.18       1.0  T
  36    -12.8541174 -0.606800E+00  0.959E+00    0.22       1.0  T
  37    -12.4602244  0.393893E+00  0.116E+01    0.00       1.0  T
  38    -12.2306506  0.229574E+00  0.949E+00    0.11       1.0  T
  39    -12.8511816 -0.620531E+00  0.856E+00    0.42       1.0  T
  40    -12.4539280  0.397254E+00  0.119E+01    0.00       1.0  T
  41    -12.5476200 -0.936920E-01  0.772E+00    0.08       1.0  T
  42    -12.8625646 -0.314945E+00  0.758E+00    1.08       1.0  T
  43    -12.4599596  0.402605E+00  0.121E+01    0.00       1.0  T
  44    -12.8368445 -0.376885E+00  0.793E+00    1.02       1.0  T
  45    -12.9151518 -0.783072E-01  0.580E+00    0.65       1.0  T
  46    -12.5760491  0.339103E+00  0.995E+00    0.00       1.0  T
  47    -12.7901527 -0.214104E+00  0.922E+00    2.35       1.0  T
  48    -12.8284923 -0.383396E-01  0.818E+00    2.05       1.0  T
  49    -12.9968168 -0.168325E+00  0.494E+00    0.11       1.0  T
  50    -12.7822207  0.214596E+00  0.927E+00    3.56       1.0  T
  51    -12.8267506 -0.445300E-01  0.827E+00    1.37       1.0  T
  52    -12.8515997 -0.248491E-01  0.774E+00    0.91       1.0  T
  53    -12.8681208 -0.165211E-01  0.727E+00    0.78       1.0  T
  54    -12.8954006 -0.272798E-01  0.647E+00    0.64       1.0  T
  55    -12.9033197 -0.791916E-02  0.620E+00    0.60       1.0  T
  56    -12.9011630  0.215670E-02  0.619E+00    0.61       1.0  T
  57    -12.9016922 -0.529120E-03  0.616E+00    0.60       1.0  T
  58    -12.8860303  0.156619E-01  0.641E+00    0.72       1.0  T
  59    -12.8860704 -0.401617E-04  0.640E+00    0.72       1.0  T
  60    -12.8996384 -0.135680E-01  0.617E+00    0.63       1.0  T
  61    -12.8996541 -0.156647E-04  0.616E+00    0.64       1.0  T
  62    -13.0301353 -0.130481E+00  0.413E+00    0.21       1.0  T
  63    -12.8341632  0.195972E+00  0.782E+00    1.82       1.0  T
  64    -13.0294478 -0.195285E+00  0.359E+00    0.19       1.0  T
  65    -12.8515695  0.177878E+00  0.763E+00    1.33       1.0  T
  66    -12.9903131 -0.138744E+00  0.428E+00    0.11       1.0  T
  67    -12.8240337  0.166279E+00  0.863E+00    2.21       1.0  T
  68    -12.9256596 -0.101626E+00  0.640E+00    0.46       1.0  T
  69    -12.8195362  0.106123E+00  0.671E+00    0.05       1.0  T
  70    -12.8096239  0.991232E-02  0.913E+00    2.69       1.0  T
  71    -12.8829266 -0.733027E-01  0.752E+00    0.69       1.0  T
  72    -12.6735801  0.209347E+00  0.906E+00    0.01       1.0  T
  73    -12.8158049 -0.142225E+00  0.890E+00    2.20       1.0  T
  74    -12.9072929 -0.914879E-01  0.718E+00    0.51       1.0  T
  75    -12.5484963  0.358797E+00  0.114E+01    0.00       1.0  T
  76    -12.8353880 -0.286892E+00  0.839E+00    1.36       1.0  T
  77    -13.0231489 -0.187761E+00  0.461E+00    0.17       1.0  T
  78    -12.8856118  0.137537E+00  0.814E+00    0.62       1.0  T
  79    -12.5116465  0.373965E+00  0.131E+01    0.00       1.0  T
  80    -12.8902285 -0.378582E+00  0.763E+00    0.57       1.0  T
  81    -13.0233106 -0.133082E+00  0.503E+00    0.16       1.0  T
  82    -12.8646183  0.158692E+00  0.902E+00    0.72       1.0  T
  83    -12.6576759  0.206942E+00  0.117E+01    0.00       1.0  T
  84    -12.8616338 -0.203958E+00  0.889E+00    0.68       1.0  T
  85    -13.0068666 -0.145233E+00  0.637E+00    0.17       1.0  T
  86    -12.9309291  0.759375E-01  0.836E+00    0.31       1.0  T
  87    -12.6767155  0.254214E+00  0.123E+01    0.00       1.0  T
  88    -12.9139916 -0.237276E+00  0.847E+00    0.35       1.0  T
  89    -12.9396956 -0.257040E-01  0.832E+00    0.28       1.0  T
  90    -12.9925950 -0.528994E-01  0.765E+00    0.17       1.0  T
  91    -12.9341462  0.584488E-01  0.882E+00    0.27       1.0  T
  92    -13.0172526 -0.831064E-01  0.765E+00    0.12       1.0  T
  93    -12.8963204  0.120932E+00  0.959E+00    0.38       1.0  T
  94    -13.0048529 -0.108532E+00  0.796E+00    0.14       1.0  T
  95    -12.9089033  0.959496E-01  0.951E+00    0.32       1.0  T
  96    -12.9828066 -0.739033E-01  0.841E+00    0.17       1.0  T
  97    -12.9245220  0.582846E-01  0.939E+00    0.27       1.0  T
  98    -12.9575518 -0.330297E-01  0.893E+00    0.21       1.0  T
  99    -12.9345472  0.230046E-01  0.936E+00    0.25       1.0  T
 100    -12.9356701 -0.112292E-02  0.935E+00    0.24       1.0  T
 101    -12.9396065 -0.393642E-02  0.924E+00    0.24       1.0  T
 102    -12.9380282  0.157837E-02  0.881E+00    0.26       1.0  T
 103    -12.9804965 -0.424683E-01  0.664E+00    0.23       1.0  T
 104    -12.9720340  0.846255E-02  0.574E+00    0.30       1.0  T
 105    -13.0158022 -0.437682E-01  0.322E+00    0.13       1.0  T
 106    -12.5445979  0.471204E+00  0.756E+00    0.01       1.0  T
 107    -12.4672781  0.773198E-01  0.121E+01    0.00       1.0  T
 108    -12.2082691  0.259009E+00  0.101E+01    0.00       1.0  T
 109    -13.0555313 -0.847262E+00  0.325E+00    0.20       1.0  T
 110    -12.8795371  0.175994E+00  0.624E+00    0.64       1.0  T
 111    -12.2043281  0.675209E+00  0.925E+00    0.00       1.0  T
 112    -12.5168377 -0.312510E+00  0.972E+00    0.01       1.0  T
 113    -12.2492916  0.267546E+00  0.916E+00    0.02       1.0  T
 114    -12.8892714 -0.639980E+00  0.599E+00    0.78       1.0  T
 115    -13.0269250 -0.137654E+00  0.393E+00    0.28       1.0  T
 116    -12.8862285  0.140696E+00  0.613E+00    0.92       1.0  T
 117    -13.0308059 -0.144577E+00  0.422E+00    0.21       1.0  T
 118    -12.8646037  0.166202E+00  0.685E+00    1.16       1.0  T
 119    -13.0881514 -0.223548E+00  0.238E+00    0.12       1.0  T
 120    -12.9130754  0.175076E+00  0.567E+00    0.56       1.0  T
 121    -12.2218778  0.691198E+00  0.919E+00    0.00       1.0  T
 122    -12.5227946 -0.300917E+00  0.961E+00    0.01       1.0  T
 123    -12.2352401  0.287555E+00  0.936E+00    0.01       1.0  T
 124    -12.8980116 -0.662772E+00  0.567E+00    0.79       1.0  T
 125    -13.0121663 -0.114155E+00  0.539E+00    0.19       1.0  T
 126    -12.8513260  0.160840E+00  0.716E+00    1.40       1.0  T
 127    -13.0017107 -0.150385E+00  0.345E+00    0.33       1.0  T
 128    -13.0352659 -0.335552E-01  0.319E+00    0.23       1.0  T
 129    -12.9027382  0.132528E+00  0.592E+00    0.61       1.0  T
 130    -12.2303336  0.672405E+00  0.912E+00    0.00       1.0  T
 131    -12.5752598 -0.344926E+00  0.905E+00    0.02       1.0  T
 132    -12.2366458  0.338614E+00  0.932E+00    0.01       1.0  T
 133    -12.8866286 -0.649983E+00  0.594E+00    0.92       1.0  T
 134    -13.0304004 -0.143772E+00  0.433E+00    0.21       1.0  T
 135    -12.8743138  0.156087E+00  0.649E+00    1.13       1.0  T
 136    -13.0360428 -0.161729E+00  0.334E+00    0.21       1.0  T
 137    -12.9018886  0.134154E+00  0.590E+00    0.63       1.0  T
 138    -12.8416495  0.602391E-01  0.595E+00    0.03       1.0  T
 139    -12.9090372 -0.673877E-01  0.576E+00    0.46       1.0  T
 140    -12.8893689  0.196683E-01  0.667E+00    0.06       1.0  T
 141    -12.2442525  0.645116E+00  0.920E+00    0.01       1.0  T
 142    -12.9848483 -0.740596E+00  0.385E+00    0.36       1.0  T
 143    -13.0272441 -0.423958E-01  0.392E+00    0.18       1.0  T
 144    -12.8792725  0.147972E+00  0.652E+00    1.07       1.0  T
 145    -13.0431947 -0.163922E+00  0.286E+00    0.21       1.0  T
 146    -12.9284570  0.114738E+00  0.535E+00    0.41       1.0  T
 147    -12.4347482  0.493709E+00  0.817E+00    0.00       1.0  T
 148    -12.9299644 -0.495216E+00  0.556E+00    0.10       1.0  T
 149    -12.8656830  0.642814E-01  0.702E+00    0.32       1.0  T
 150    -12.2053728  0.660310E+00  0.930E+00    0.00       1.0  T
 151    -12.7364383 -0.531066E+00  0.795E+00    0.06       1.0  T
 152    -12.8716589 -0.135221E+00  0.536E+00    0.04       1.0  T
 153    -12.9278038 -0.561448E-01  0.512E+00    0.58       1.0  T
 154    -13.0108999 -0.830962E-01  0.476E+00    0.17       1.0  T
 155    -12.8724145  0.138485E+00  0.663E+00    0.92       1.0  T
 156    -13.0539985 -0.181584E+00  0.229E+00    0.18       1.0  T
 157    -13.0326428  0.213557E-01  0.328E+00    0.18       1.0  T
 158    -12.9016481  0.130995E+00  0.601E+00    0.49       1.0  T
 159    -12.2055880  0.696060E+00  0.925E+00    0.00       1.0  T
 160    -12.8624564 -0.656868E+00  0.661E+00    0.09       1.0  T
 161    -13.0508664 -0.188410E+00  0.446E+00    0.09       1.0  T
 162    -13.0603112 -0.944478E-02  0.219E+00    0.15       1.0  T
 163    -12.9778379  0.824733E-01  0.499E+00    0.13       1.0  T
 164    -12.8740020  0.103836E+00  0.674E+00    0.36       1.0  T
 165    -12.2033878  0.670614E+00  0.931E+00    0.00       1.0  T
 166    -13.0337784 -0.830391E+00  0.337E+00    0.18       1.0  T
 167    -12.9098583  0.123920E+00  0.570E+00    0.50       1.0  T
 168    -12.9096242  0.234068E-03  0.509E+00    0.04       1.0  T
 169    -12.9445216 -0.348973E-01  0.490E+00    0.43       1.0  T
 170    -12.8404446  0.104077E+00  0.683E+00    0.08       1.0  T
 171    -12.2310219  0.609423E+00  0.924E+00    0.01       1.0  T
 172    -12.8965364 -0.665515E+00  0.591E+00    0.70       1.0  T
 173    -13.0740092 -0.177473E+00  0.304E+00    0.14       1.0  T
 174    -12.9274352  0.146574E+00  0.532E+00    0.54       1.0  T
 175    -13.0040175 -0.765823E-01  0.479E+00    0.12       1.0  T
 176    -12.8983875  0.105630E+00  0.635E+00    0.25       1.0  T
 177    -12.2010753  0.697312E+00  0.934E+00    0.00       1.0  T
 178    -12.9480058 -0.746931E+00  0.555E+00    0.11       1.0  T
 179    -12.9024306  0.455753E-01  0.634E+00    0.22       1.0  T
 180    -12.2113301  0.691101E+00  0.925E+00    0.00       1.0  T
 181    -12.9884939 -0.777164E+00  0.484E+00    0.14       1.0  T
 182    -12.8780293  0.110465E+00  0.646E+00    0.63       1.0  T
 183    -13.0991878 -0.221159E+00  0.714E-01    0.10       1.0  T
 184    -13.0219009  0.772869E-01  0.364E+00    0.16       1.0  T
 185    -12.8999688  0.121932E+00  0.603E+00    0.56       1.0  T
 186    -12.6614237  0.238545E+00  0.662E+00    0.01       1.0  T
 187    -13.0338476 -0.372424E+00  0.304E+00    0.18       1.0  T
 188    -12.9295972  0.104250E+00  0.530E+00    0.53       1.0  T
 189    -12.9473023 -0.177051E-01  0.550E+00    0.11       1.0  T
 190    -12.8656605  0.816417E-01  0.511E+00    0.03       1.0  T
 191    -12.9660760 -0.100415E+00  0.436E+00    0.33       1.0  T
 192    -12.9500847  0.159913E-01  0.552E+00    0.11       1.0  T
 193    -13.0556080 -0.105523E+00  0.359E+00    0.07       1.0  T
 194    -13.0428362  0.127718E-01  0.243E+00    0.06       1.0  T
 195    -13.0056767  0.371595E-01  0.421E+00    0.15       1.0  T
 196    -12.8937262  0.111951E+00  0.617E+00    0.36       1.0  T
 197    -12.2062973  0.687429E+00  0.926E+00    0.00       1.0  T
 198    -13.0456511 -0.839354E+00  0.263E+00    0.22       1.0  T
 199    -13.0066891  0.389620E-01  0.333E+00    0.30       1.0  T
 200    -13.0305599 -0.238708E-01  0.331E+00    0.18       1.0  T
 201    -12.9208596  0.109700E+00  0.557E+00    0.48       1.0  T
 202    -12.4851289  0.435731E+00  0.774E+00    0.00       1.0  T
 203    -13.0345820 -0.549453E+00  0.301E+00    0.18       1.0  T
 204    -12.9389971  0.955849E-01  0.510E+00    0.39       1.0  T
 205    -13.0055996 -0.666025E-01  0.450E+00    0.07       1.0  T
 206    -12.9545882  0.510115E-01  0.529E+00    0.19       1.0  T
 207    -12.2094741  0.745114E+00  0.927E+00    0.00       1.0  T
 208    -12.9836076 -0.774134E+00  0.478E+00    0.13       1.0  T
 209    -12.9198706  0.637370E-01  0.584E+00    0.23       1.0  T
 210    -12.2226461  0.697225E+00  0.919E+00    0.00       1.0  T
 211    -13.0119000 -0.789254E+00  0.410E+00    0.15       1.0  T
 212    -12.9068161  0.105084E+00  0.578E+00    0.50       1.0  T
 213    -13.0511308 -0.144315E+00  0.375E+00    0.13       1.0  T
 214    -12.9203068  0.130824E+00  0.557E+00    0.37       1.0  T
 215    -12.8059031  0.114404E+00  0.579E+00    0.02       1.0  T
 216    -13.0005172 -0.194614E+00  0.346E+00    0.32       1.0  T
 217    -12.9393865  0.611308E-01  0.537E+00    0.11       1.0  T
 218    -12.9920455 -0.526590E-01  0.513E+00    0.14       1.0  T
 219    -12.2160642  0.775981E+00  0.922E+00    0.00       1.0  T
 220    -13.0365339 -0.820470E+00  0.278E+00    0.22       1.0  T
 221    -12.9906920  0.458419E-01  0.374E+00    0.35       1.0  T
 222    -13.0015136 -0.108216E-01  0.427E+00    0.14       1.0  T
 223    -12.8995709  0.101943E+00  0.607E+00    0.40       1.0  T
 224    -12.2234260  0.676145E+00  0.916E+00    0.00       1.0  T
 225    -13.0336202 -0.810194E+00  0.321E+00    0.18       1.0  T
 226    -12.9418098  0.918105E-01  0.499E+00    0.42       1.0  T
 227    -12.9993353 -0.575256E-01  0.456E+00    0.13       1.0  T
 228    -12.9881625  0.111728E-01  0.497E+00    0.15       1.0  T
 229    -12.2103183  0.777844E+00  0.925E+00    0.00       1.0  T
 230    -13.0411085 -0.830790E+00  0.298E+00    0.19       1.0  T
 231    -12.9622501  0.788583E-01  0.448E+00    0.40       1.0  T
 232    -12.9699074 -0.765726E-02  0.494E+00    0.12       1.0  T
 233    -13.0330482 -0.631409E-01  0.432E+00    0.12       1.0  T
 234    -12.2355622  0.797486E+00  0.911E+00    0.00       1.0  T
 235    -13.0354492 -0.799887E+00  0.273E+00    0.22       1.0  T
 236    -13.0048013  0.306479E-01  0.338E+00    0.31       1.0  T
 237    -13.0278339 -0.230326E-01  0.339E+00    0.17       1.0  T
 238    -12.9281728  0.996610E-01  0.539E+00    0.42       1.0  T
 239    -12.6249850  0.303188E+00  0.684E+00    0.01       1.0  T
 240    -13.0335739 -0.408589E+00  0.302E+00    0.18       1.0  T
 241    -12.9454440  0.881299E-01  0.496E+00    0.36       1.0  T
 242    -13.0273949 -0.819508E-01  0.359E+00    0.06       1.0  T
 243    -12.9739595  0.534353E-01  0.433E+00    0.28       1.0  T
 244    -13.0441871 -0.702275E-01  0.381E+00    0.10       1.0  T
 245    -13.0331123  0.110748E-01  0.408E+00    0.13       1.0  T
 246    -12.2351170  0.797995E+00  0.913E+00    0.00       1.0  T
 247    -13.0407086 -0.805592E+00  0.310E+00    0.17       1.0  T
 248    -12.9587358  0.819728E-01  0.462E+00    0.33       1.0  T
 249    -13.0242167 -0.654809E-01  0.422E+00    0.13       1.0  T
 250    -13.0267582 -0.254147E-02  0.425E+00    0.13       1.0  T
     SCC iter.                  ...        0 min,  0.110 sec
     gradient                   ...        0 min,  0.001 sec
 * total energy  :    -8.0400556 Eh     change       -0.1777798E+01 Eh
   gradient norm :    24.2703890 Eh/α   predicted    -0.1593305E+02 ( 796.22%)
   displ. norm   :     0.6045825 α      lambda       -0.1201935E+02
   maximum displ.:     0.4692877 α      in ANC's #11, #12, #9, ...

........................................................................
.............................. CYCLE    3 ..............................
........................................................................
   1    -12.9407375 -0.129407E+02  0.585E+00    0.08       0.0  T
   2    -12.8523558  0.883817E-01  0.637E+00    1.28       1.0  T
   3    -12.4353018  0.417054E+00  0.112E+01    0.00       1.0  T
   4    -12.5223686 -0.870668E-01  0.104E+01    0.03       1.0  T
   5    -12.5384366 -0.160679E-01  0.102E+01    0.03       1.0  T
   6    -12.2263550  0.312082E+00  0.114E+01    0.00       1.0  T
   7    -12.3333119 -0.106957E+00  0.100E+01    0.02       1.0  T
   8    -12.8811293 -0.547817E+00  0.946E+00    1.08       1.0  T
   9    -12.9141577 -0.330284E-01  0.773E+00    0.46       1.0  T
  10    -12.3380531  0.576105E+00  0.937E+00    0.03       1.0  T
  11    -12.9435998 -0.605547E+00  0.656E+00    0.33       1.0  T
  12    -12.9410558  0.254401E-02  0.587E+00    0.37       1.0  T
  13    -12.9247370  0.163188E-01  0.572E+00    0.82       1.0  T
  14    -12.9299056 -0.516856E-02  0.560E+00    0.73       1.0  T
  15    -12.9334729 -0.356735E-02  0.561E+00    0.61       1.0  T
  16    -12.9689766 -0.355036E-01  0.493E+00    0.39       1.0  T
  17    -12.9908583 -0.218818E-01  0.451E+00    0.32       1.0  T
  18    -13.0022318 -0.113734E-01  0.423E+00    0.30       1.0  T
  19    -13.1027633 -0.100532E+00  0.154E+00    0.15       1.0  T
  20    -12.2482645  0.854499E+00  0.986E+00    0.01       1.0  T
  21    -13.0296133 -0.781349E+00  0.471E+00    0.28       1.0  T
  22    -12.9522763  0.773370E-01  0.552E+00    0.48       1.0  T
  23    -12.7561887  0.196088E+00  0.734E+00    0.03       1.0  T
  24    -12.9571926 -0.201004E+00  0.533E+00    0.39       1.0  T
  25    -12.2885021  0.668690E+00  0.948E+00    0.01       1.0  T
  26    -12.9777662 -0.689264E+00  0.497E+00    0.40       1.0  T
  27    -12.9915289 -0.137627E-01  0.449E+00    0.35       1.0  T
  28    -13.0561042 -0.645754E-01  0.312E+00    0.09       1.0  T
  29    -13.0752330 -0.191287E-01  0.265E+00    0.22       1.0  T
  30    -12.2781498  0.797083E+00  0.955E+00    0.01       1.0  T
  31    -13.0160328 -0.737883E+00  0.576E+00    0.14       1.0  T
  32    -12.9447241  0.713087E-01  0.573E+00    0.46       1.0  T
  33    -13.0488055 -0.104081E+00  0.306E+00    0.18       1.0  T
  34    -13.0303588  0.184466E-01  0.357E+00    0.24       1.0  T
  35    -12.8455534  0.184805E+00  0.556E+00    0.06       1.0  T
  36    -13.0108446 -0.165291E+00  0.408E+00    0.28       1.0  T
  37    -13.0715159 -0.606713E-01  0.232E+00    0.14       1.0  T
  38    -12.7227743  0.348742E+00  0.661E+00    0.06       1.0  T
  39    -12.9822178 -0.259443E+00  0.472E+00    0.35       1.0  T
  40    -13.0618158 -0.795981E-01  0.272E+00    0.18       1.0  T
  41    -13.1004720 -0.386562E-01  0.191E+00    0.17       1.0  T
  42    -12.2866160  0.813856E+00  0.948E+00    0.02       1.0  T
  43    -13.0430126 -0.756397E+00  0.362E+00    0.22       1.0  T
  44    -13.0206611  0.223516E-01  0.385E+00    0.25       1.0  T
  45    -13.0738052 -0.531441E-01  0.222E+00    0.14       1.0  T
  46    -12.5491115  0.524694E+00  0.790E+00    0.04       1.0  T
  47    -13.0131162 -0.464005E+00  0.405E+00    0.26       1.0  T
  48    -13.0604784 -0.473622E-01  0.271E+00    0.17       1.0  T
  49    -13.0765163 -0.160379E-01  0.229E+00    0.19       1.0  T
  50    -12.4048958  0.671620E+00  0.880E+00    0.03       1.0  T
  51    -13.0424666 -0.637571E+00  0.348E+00    0.21       1.0  T
  52    -13.0490353 -0.656871E-02  0.306E+00    0.19       1.0  T
  53    -13.0859700 -0.369347E-01  0.185E+00    0.15       1.0  T
  54    -12.7633947  0.322575E+00  0.629E+00    0.06       1.0  T
  55    -13.0194750 -0.256080E+00  0.391E+00    0.24       1.0  T
  56    -13.0645311 -0.450561E-01  0.256E+00    0.16       1.0  T
  57    -13.1088846 -0.443535E-01  0.125E+00    0.18       1.0  T
  58    -13.1114605 -0.257588E-02  0.110E+00    0.13       1.0  T
  59    -13.0546480  0.568126E-01  0.294E+00    0.20       1.0  T
  60    -12.8521266  0.202521E+00  0.547E+00    0.07       1.0  T
  61    -13.0139458 -0.161819E+00  0.402E+00    0.26       1.0  T
  62    -13.0702132 -0.562674E-01  0.241E+00    0.17       1.0  T
  63    -12.5370518  0.533161E+00  0.796E+00    0.04       1.0  T
  64    -13.0060406 -0.468989E+00  0.421E+00    0.28       1.0  T
  65    -13.0646955 -0.586548E-01  0.259E+00    0.17       1.0  T
  66    -12.9696743  0.950212E-01  0.412E+00    0.08       1.0  T
  67    -13.0392210 -0.695468E-01  0.337E+00    0.21       1.0  T
  68    -13.0879885 -0.487675E-01  0.182E+00    0.15       1.0  T
  69    -12.8712808  0.216708E+00  0.526E+00    0.07       1.0  T
  70    -13.0272159 -0.155935E+00  0.370E+00    0.23       1.0  T
  71    -13.0799856 -0.527697E-01  0.210E+00    0.16       1.0  T
  72    -12.7607162  0.319269E+00  0.629E+00    0.06       1.0  T
  73    -13.0218102 -0.261094E+00  0.384E+00    0.24       1.0  T
  74    -13.0762036 -0.543934E-01  0.223E+00    0.16       1.0  T
  75    -12.8613403  0.214863E+00  0.536E+00    0.07       1.0  T
  76    -13.0341699 -0.172830E+00  0.352E+00    0.22       1.0  T
  77    -13.0829480 -0.487781E-01  0.201E+00    0.16       1.0  T
  78    -12.9511349  0.131813E+00  0.435E+00    0.08       1.0  T
  79    -13.0425285 -0.913936E-01  0.329E+00    0.21       1.0  T
  80    -13.0976875 -0.551590E-01  0.153E+00    0.17       1.0  T
  81    -13.0650824  0.326051E-01  0.251E+00    0.10       1.0  T
  82    -13.0559967  0.908568E-02  0.288E+00    0.19       1.0  T
  83    -13.0573363 -0.133963E-02  0.269E+00    0.10       1.0  T
  84    -13.0516663  0.567006E-02  0.302E+00    0.20       1.0  T
  85    -12.9611901  0.904762E-01  0.423E+00    0.08       1.0  T
  86    -13.0403753 -0.791852E-01  0.335E+00    0.21       1.0  T
  87    -13.1063020 -0.659267E-01  0.130E+00    0.12       1.0  T
  88    -13.0698908  0.364113E-01  0.248E+00    0.18       1.0  T
  89    -12.6600190  0.409872E+00  0.710E+00    0.06       1.0  T
  90    -13.0292745 -0.369256E+00  0.366E+00    0.23       1.0  T
  91    -13.0887243 -0.594498E-01  0.187E+00    0.17       1.0  T
  92    -12.8526937  0.236031E+00  0.545E+00    0.07       1.0  T
  93    -13.0468929 -0.194199E+00  0.318E+00    0.20       1.0  T
  94    -13.0892960 -0.424031E-01  0.182E+00    0.16       1.0  T
  95    -13.0780660  0.112300E-01  0.220E+00    0.11       1.0  T
  96    -13.0667741  0.112919E-01  0.252E+00    0.16       1.0  T
  97    -13.1184115 -0.516373E-01  0.416E-01    0.16       1.0  T
  98    -13.1067135  0.116979E-01  0.118E+00    0.17       1.0  T
  99    -13.1106260 -0.391250E-02  0.107E+00    0.13       1.0  T
 100    -13.0788967  0.317294E-01  0.220E+00    0.18       1.0  T
 101    -12.7605706  0.318326E+00  0.629E+00    0.06       1.0  T
 102    -13.0257520 -0.265181E+00  0.374E+00    0.24       1.0  T
 103    -13.1021031 -0.763511E-01  0.146E+00    0.12       1.0  T
 104    -13.0773830  0.247202E-01  0.228E+00    0.19       1.0  T
 105    -12.6651268  0.412256E+00  0.706E+00    0.06       1.0  T
 106    -13.0353246 -0.370198E+00  0.350E+00    0.22       1.0  T
 107    -13.1080729 -0.727484E-01  0.113E+00    0.17       1.0  T
 108    -13.1189000 -0.108271E-01  0.404E-01    0.14       1.0  T
 109    -13.0868452  0.320548E-01  0.187E+00    0.16       1.0  T
 110    -13.1189593 -0.321141E-01  0.374E-01    0.15       1.0  T
 111    -13.0977956  0.211638E-01  0.154E+00    0.17       1.0  T
 112    -13.0850296  0.127660E-01  0.199E+00    0.11       1.0  T
 113    -13.0722631  0.127664E-01  0.245E+00    0.19       1.0  T
 114    -12.6996327  0.372630E+00  0.679E+00    0.06       1.0  T
 115    -13.0284302 -0.328797E+00  0.367E+00    0.24       1.0  T
 116    -13.0797794 -0.513492E-01  0.217E+00    0.11       1.0  T
 117    -13.0715883  0.819106E-02  0.245E+00    0.18       1.0  T
 118    -12.9034568  0.168132E+00  0.493E+00    0.08       1.0  T
 119    -13.0535621 -0.150105E+00  0.299E+00    0.19       1.0  T
 120    -13.1149508 -0.613887E-01  0.730E-01    0.16       1.0  T
 121    -13.1013305  0.136203E-01  0.142E+00    0.17       1.0  T
 122    -13.1114459 -0.101154E-01  0.104E+00    0.13       1.0  T
 123    -13.0810507  0.303952E-01  0.210E+00    0.16       1.0  T
 124    -13.1031023 -0.220516E-01  0.140E+00    0.12       1.0  T
 125    -13.0856016  0.175007E-01  0.201E+00    0.18       1.0  T
 126    -12.9372742  0.148327E+00  0.451E+00    0.08       1.0  T
 127    -13.0497706 -0.112496E+00  0.312E+00    0.21       1.0  T
 128    -12.9254409  0.124330E+00  0.467E+00    0.08       1.0  T
 129    -13.0518833 -0.126442E+00  0.305E+00    0.21       1.0  T
 130    -13.0199980  0.318853E-01  0.339E+00    0.10       1.0  T
 131    -13.0647775 -0.447795E-01  0.264E+00    0.18       1.0  T
 132    -13.1165117 -0.517342E-01  0.732E-01    0.14       1.0  T
 133    -13.0843355  0.321762E-01  0.199E+00    0.16       1.0  T
 134    -13.1189362 -0.346007E-01  0.382E-01    0.14       1.0  T
 135    -13.0979681  0.209681E-01  0.153E+00    0.16       1.0  T
 136    -13.1169364 -0.189684E-01  0.601E-01    0.14       1.0  T
 137    -13.1084998  0.843668E-02  0.111E+00    0.17       1.0  T
 138    -13.0985448  0.995496E-02  0.156E+00    0.12       1.0  T
 139    -13.0935341  0.501074E-02  0.180E+00    0.19       1.0  T
 140    -12.8218803  0.271654E+00  0.573E+00    0.07       1.0  T
 141    -13.0392474 -0.217367E+00  0.341E+00    0.23       1.0  T
 142    -12.7963493  0.242898E+00  0.598E+00    0.07       1.0  T
 143    -13.0445084 -0.248159E+00  0.326E+00    0.22       1.0  T
 144    -12.9592977  0.852108E-01  0.427E+00    0.09       1.0  T
 145    -13.0636806 -0.104383E+00  0.268E+00    0.18       1.0  T
 146    -13.1122203 -0.485397E-01  0.920E-01    0.16       1.0  T
 147    -13.0881871  0.240332E-01  0.187E+00    0.16       1.0  T
 148    -13.1161282 -0.279411E-01  0.630E-01    0.16       1.0  T
 149    -13.0938939  0.222343E-01  0.168E+00    0.16       1.0  T
 150    -13.1189918 -0.250978E-01  0.308E-01    0.16       1.0  T
 151    -13.1159119  0.307989E-02  0.630E-01    0.17       1.0  T
 152    -13.1188040 -0.289212E-02  0.361E-01    0.16       1.0  T
 153    -13.1169734  0.183066E-02  0.595E-01    0.14       1.0  T
 154    -13.1161521  0.821306E-03  0.692E-01    0.17       1.0  T
 155    -13.0618659  0.542861E-01  0.256E+00    0.11       1.0  T
 156    -13.0819944 -0.201284E-01  0.224E+00    0.20       1.0  T
 157    -12.6365099  0.445484E+00  0.726E+00    0.06       1.0  T
 158    -13.0334518 -0.396942E+00  0.356E+00    0.24       1.0  T
 159    -12.9459598  0.874919E-01  0.442E+00    0.08       1.0  T
 160    -13.0627965 -0.116837E+00  0.275E+00    0.20       1.0  T
 161    -13.0318091  0.309874E-01  0.322E+00    0.10       1.0  T
 162    -13.0705504 -0.387413E-01  0.244E+00    0.16       1.0  T
 163    -13.0915807 -0.210302E-01  0.175E+00    0.16       1.0  T
 164    -13.1033983 -0.118177E-01  0.133E+00    0.17       1.0  T
 165    -13.1121049 -0.870659E-02  0.885E-01    0.16       1.0  T
 166    -13.1022306  0.987433E-02  0.138E+00    0.17       1.0  T
 167    -13.1196401 -0.174095E-01  0.168E-01    0.16       1.0  T
 168    -13.1161758  0.346427E-02  0.620E-01    0.17       1.0  T
 169    -13.1194336 -0.325779E-02  0.257E-01    0.15       1.0  T
 170    -13.1196292 -0.195583E-03  0.210E-01    0.15       1.0  T
 171    -13.1169327  0.269651E-02  0.592E-01    0.14       1.0  T
 172    -13.1193284 -0.239566E-02  0.316E-01    0.15       1.0  T
 173    -13.1032399  0.160884E-01  0.137E+00    0.13       1.0  T
 174    -13.1125053 -0.926532E-02  0.101E+00    0.18       1.0  T
 175    -12.9685110  0.143994E+00  0.411E+00    0.09       1.0  T
 176    -13.0637726 -0.952616E-01  0.278E+00    0.21       1.0  T
 177    -12.6931886  0.370584E+00  0.684E+00    0.06       1.0  T
 178    -13.0464740 -0.353285E+00  0.322E+00    0.22       1.0  T
 179    -13.0108985  0.355756E-01  0.354E+00    0.09       1.0  T
 180    -13.0723376 -0.614391E-01  0.242E+00    0.18       1.0  T
 181    -13.1145580 -0.422204E-01  0.788E-01    0.16       1.0  T
 182    -13.0865429  0.280151E-01  0.193E+00    0.16       1.0  T
 183    -13.1082538 -0.217109E-01  0.110E+00    0.16       1.0  T
 184    -13.1038303  0.442354E-02  0.132E+00    0.17       1.0  T
 185    -13.1194090 -0.155787E-01  0.221E-01    0.16       1.0  T
 186    -13.1142701  0.513887E-02  0.768E-01    0.17       1.0  T
 187    -13.1195197 -0.524957E-02  0.220E-01    0.15       1.0  T
 188    -13.1197145 -0.194852E-03  0.156E-01    0.16       1.0  T
 189    -13.1182381  0.147644E-02  0.443E-01    0.14       1.0  T
 190    -13.1192591 -0.102103E-02  0.294E-01    0.15       1.0  T
 191    -13.1139351  0.532397E-02  0.822E-01    0.14       1.0  T
 192    -13.1192929 -0.535774E-02  0.323E-01    0.16       1.0  T
 193    -13.0966947  0.225981E-01  0.162E+00    0.12       1.0  T
 194    -13.1099118 -0.132171E-01  0.115E+00    0.18       1.0  T
 195    -12.9905173  0.119395E+00  0.380E+00    0.09       1.0  T
 196    -13.0729175 -0.824002E-01  0.251E+00    0.20       1.0  T
 197    -12.8388507  0.234067E+00  0.558E+00    0.07       1.0  T
 198    -13.0590245 -0.220174E+00  0.288E+00    0.21       1.0  T
 199    -13.0490823  0.994217E-02  0.288E+00    0.10       1.0  T
 200    -13.0776338 -0.285515E-01  0.226E+00    0.17       1.0  T
 201    -13.1131471 -0.355133E-01  0.847E-01    0.16       1.0  T
 202    -13.0971969  0.159502E-01  0.158E+00    0.16       1.0  T
 203    -13.1129821 -0.157853E-01  0.850E-01    0.17       1.0  T
 204    -13.1114099  0.157220E-02  0.947E-01    0.17       1.0  T
 205    -13.1185544 -0.714450E-02  0.370E-01    0.16       1.0  T
 206    -13.1197437 -0.118921E-02  0.107E-01    0.16       1.0  T
 207    -13.1197223  0.213181E-04  0.139E-01    0.16       1.0  T
 208    -13.1180606  0.166174E-02  0.457E-01    0.14       1.0  T
 209    -13.1195851 -0.152446E-02  0.206E-01    0.15       1.0  T
 210    -13.1146634  0.492169E-02  0.767E-01    0.14       1.0  T
 211    -13.1191806 -0.451723E-02  0.321E-01    0.16       1.0  T
 212    -13.1056900  0.134906E-01  0.127E+00    0.13       1.0  T
 213    -13.1135875 -0.789753E-02  0.890E-01    0.18       1.0  T
 214    -13.0753380  0.382496E-01  0.224E+00    0.11       1.0  T
 215    -13.0964948 -0.211568E-01  0.171E+00    0.19       1.0  T
 216    -13.0235545  0.729403E-01  0.329E+00    0.10       1.0  T
 217    -13.0807278 -0.571733E-01  0.223E+00    0.19       1.0  T
 218    -13.0572425  0.234854E-01  0.268E+00    0.11       1.0  T
 219    -13.0839819 -0.267395E-01  0.209E+00    0.18       1.0  T
 220    -13.1154356 -0.314537E-01  0.758E-01    0.14       1.0  T
 221    -13.1014355  0.140001E-01  0.143E+00    0.17       1.0  T
 222    -13.1197004 -0.182649E-01  0.125E-01    0.16       1.0  T
 223    -13.1186141  0.108633E-02  0.351E-01    0.16       1.0  T
 224    -13.1189685 -0.354470E-03  0.311E-01    0.16       1.0  T
 225    -13.1189127  0.558306E-04  0.331E-01    0.15       1.0  T
 226    -13.1195709 -0.658194E-03  0.192E-01    0.16       1.0  T
 227    -13.1162181  0.335285E-02  0.641E-01    0.14       1.0  T
 228    -13.1192925 -0.307441E-02  0.279E-01    0.16       1.0  T
 229    -13.1119325  0.735993E-02  0.947E-01    0.13       1.0  T
 230    -13.1171017 -0.516913E-02  0.588E-01    0.17       1.0  T
 231    -13.1031154  0.139863E-01  0.138E+00    0.13       1.0  T
 232    -13.1110110 -0.789557E-02  0.104E+00    0.18       1.0  T
 233    -13.0888028  0.222082E-01  0.188E+00    0.12       1.0  T
 234    -13.1024010 -0.135981E-01  0.146E+00    0.18       1.0  T
 235    -13.0810718  0.213292E-01  0.210E+00    0.12       1.0  T
 236    -13.0971155 -0.160437E-01  0.166E+00    0.18       1.0  T
 237    -13.0947951  0.232035E-02  0.170E+00    0.12       1.0  T
 238    -13.0997757 -0.498054E-02  0.154E+00    0.17       1.0  T
 239    -13.1120902 -0.123146E-01  0.951E-01    0.13       1.0  T
 240    -13.1090923  0.299797E-02  0.110E+00    0.17       1.0  T
 241    -13.1180569 -0.896459E-02  0.455E-01    0.15       1.0  T
 242    -13.1171066  0.950312E-03  0.549E-01    0.17       1.0  T
 243    -13.1189848 -0.187824E-02  0.313E-01    0.15       1.0  T
 244    -13.1194453 -0.460554E-03  0.212E-01    0.16       1.0  T
 245    -13.1184809  0.964433E-03  0.392E-01    0.15       1.0  T
 246    -13.1196985 -0.121755E-02  0.137E-01    0.16       1.0  T
 247    -13.1177368  0.196168E-02  0.487E-01    0.14       1.0  T
 248    -13.1196275 -0.189074E-02  0.169E-01    0.16       1.0  T
 249    -13.1171604  0.246710E-02  0.550E-01    0.14       1.0  T
 250    -13.1193765 -0.221612E-02  0.242E-01    0.16       1.0  T
     SCC iter.                  ...        0 min,  0.109 sec
     gradient                   ...        0 min,  0.001 sec
 * total energy  :   -12.0579702 Eh     change       -0.4017915E+01 Eh
   gradient norm :     7.1135536 Eh/α   predicted    -0.8206334E+01 ( 104.24%)
   displ. norm   :     0.4745515 α      lambda       -0.2795517E+01
   maximum displ.:     0.4745225 α      in ANC's #12, #1, #9, ...

[...]
 189    -13.0912548  0.214515E-02  0.176E+00    0.09       1.0  T
 190    -13.0944147 -0.315983E-02  0.169E+00    0.15       1.0  T
 191    -13.0923169  0.209778E-02  0.173E+00    0.09       1.0  T
 192    -13.0955360 -0.321907E-02  0.166E+00    0.15       1.0  T
 193    -13.0933488  0.218720E-02  0.170E+00    0.09       1.0  T
 194    -13.0965835 -0.323477E-02  0.162E+00    0.15       1.0  T
 195    -13.0944589  0.212461E-02  0.166E+00    0.09       1.0  T
 196    -13.0977408 -0.328190E-02  0.158E+00    0.15       1.0  T
 197    -13.0955386  0.220220E-02  0.163E+00    0.09       1.0  T
 198    -13.0988199 -0.328131E-02  0.154E+00    0.15       1.0  T
 199    -13.0966942  0.212568E-02  0.159E+00    0.09       1.0  T
 200    -13.1000071 -0.331284E-02  0.150E+00    0.15       1.0  T
 201    -13.0978221  0.218500E-02  0.155E+00    0.09       1.0  T
 202    -13.1011160 -0.329395E-02  0.146E+00    0.15       1.0  T
 203    -13.0990190  0.209703E-02  0.151E+00    0.09       1.0  T
 204    -13.1023244 -0.330536E-02  0.141E+00    0.15       1.0  T
 205    -13.1001934  0.213100E-02  0.147E+00    0.10       1.0  T
 206    -13.1034597 -0.326631E-02  0.136E+00    0.15       1.0  T
 207    -13.1014252  0.203446E-02  0.142E+00    0.10       1.0  T
 208    -13.1046776 -0.325243E-02  0.131E+00    0.15       1.0  T
 209    -13.1026411  0.203658E-02  0.137E+00    0.10       1.0  T
 210    -13.1058321 -0.319107E-02  0.126E+00    0.15       1.0  T
 211    -13.1038989  0.193325E-02  0.133E+00    0.10       1.0  T
 212    -13.1070453 -0.314645E-02  0.121E+00    0.15       1.0  T
 213    -13.1051458  0.189949E-02  0.127E+00    0.10       1.0  T
 214    -13.1082057 -0.305986E-02  0.116E+00    0.15       1.0  T
 215    -13.1064166  0.178909E-02  0.122E+00    0.10       1.0  T
 216    -13.1093961 -0.297944E-02  0.110E+00    0.14       1.0  T
 217    -13.1076768  0.171930E-02  0.116E+00    0.10       1.0  T
 218    -13.1105404 -0.286365E-02  0.104E+00    0.14       1.0  T
 219    -13.1089406  0.159980E-02  0.110E+00    0.10       1.0  T
 220    -13.1116842 -0.274356E-02  0.975E-01    0.14       1.0  T
 221    -13.1101861  0.149809E-02  0.104E+00    0.10       1.0  T
 222    -13.1127803 -0.259423E-02  0.911E-01    0.14       1.0  T
 223    -13.1114125  0.136780E-02  0.977E-01    0.10       1.0  T
 224    -13.1138453 -0.243277E-02  0.844E-01    0.14       1.0  T
 225    -13.1126032  0.124210E-02  0.909E-01    0.10       1.0  T
 226    -13.1148506 -0.224745E-02  0.775E-01    0.14       1.0  T
 227    -13.1137479  0.110275E-02  0.839E-01    0.11       1.0  T
 228    -13.1157950 -0.204710E-02  0.705E-01    0.13       1.0  T
 229    -13.1148305  0.964473E-03  0.767E-01    0.11       1.0  T
 230    -13.1166598 -0.182930E-02  0.634E-01    0.13       1.0  T
 231    -13.1158362  0.823547E-03  0.693E-01    0.11       1.0  T
 232    -13.1174368 -0.160053E-02  0.562E-01    0.13       1.0  T
 233    -13.1167496  0.687208E-03  0.618E-01    0.11       1.0  T
 234    -13.1181145 -0.136490E-02  0.491E-01    0.13       1.0  T
 235    -13.1175570  0.557460E-03  0.543E-01    0.11       1.0  T
 236    -13.1186873 -0.113033E-02  0.422E-01    0.13       1.0  T
 237    -13.1182486  0.438766E-03  0.470E-01    0.11       1.0  T
 238    -13.1191535 -0.904914E-03  0.356E-01    0.13       1.0  T
 239    -13.1188197  0.333816E-03  0.399E-01    0.11       1.0  T
 240    -13.1195172 -0.697493E-03  0.294E-01    0.13       1.0  T
 241    -13.1192723  0.244813E-03  0.333E-01    0.11       1.0  T
 242    -13.1197880 -0.515611E-03  0.238E-01    0.12       1.0  T
 243    -13.1196154  0.172529E-03  0.272E-01    0.12       1.0  T
 244    -13.1199799 -0.364434E-03  0.189E-01    0.12       1.0  T
 245    -13.1198633  0.116526E-03  0.218E-01    0.12       1.0  T
 246    -13.1201091 -0.245742E-03  0.146E-01    0.12       1.0  T
 247    -13.1200338  0.752404E-04  0.170E-01    0.12       1.0  T
 248    -13.1201917 -0.157909E-03  0.111E-01    0.12       1.0  T
 249    -13.1201454  0.463568E-04  0.131E-01    0.12       1.0  T
 250    -13.1202421 -0.966734E-04  0.826E-02    0.12       1.0  T
     SCC iter.                  ...        0 min,  0.110 sec
     gradient                   ...        0 min,  0.000 sec
 * total energy  :   -13.0599149 Eh     change       -0.7960274E-01 Eh
   gradient norm :     0.0102529 Eh/α   predicted    -0.1032090E-03 ( -99.87%)
   displ. norm   :     0.0047757 α      lambda       -0.9545463E-05
   maximum displ.:     0.0046553 α      in ANC's #6, #3, #5, ...

........................................................................
.............................. CYCLE   10 ..............................
........................................................................
   1    -13.1196265 -0.131196E+02  0.658E-02    0.12       0.0  T
   2    -13.1007407  0.188858E-01  0.187E+00    0.10       1.0  T
   3    -13.1183632 -0.176225E-01  0.427E-01    0.12       1.0  T
   4    -13.1064115  0.119517E-01  0.128E+00    0.10       1.0  T
   5    -13.1158041 -0.939259E-02  0.757E-01    0.11       1.0  T
   6    -13.1158833 -0.791998E-04  0.733E-01    0.11       1.0  T
   7    -13.1192569 -0.337363E-02  0.253E-01    0.12       1.0  T
   8    -13.1195203 -0.263347E-03  0.148E-01    0.12       1.0  T
   9    -13.1196541 -0.133844E-03  0.141E-02    0.12       2.9  T
  10    -13.1196555 -0.137213E-05  0.420E-03    0.12       9.7  T
  11    -13.1196556 -0.957154E-07  0.684E-04    0.12      59.7  T
  12    -13.1196556  0.605486E-08  0.120E-03    0.12      34.0  T
     SCC iter.                  ...        0 min,  0.001 sec
     gradient                   ...        0 min,  0.000 sec
 * total energy  :   -13.0599799 Eh     change       -0.6500210E-04 Eh
   gradient norm :     0.0004946 Eh/α   predicted    -0.4772188E-05 ( -92.66%)
   displ. norm   :     0.0015486 α      lambda       -0.9900948E-07
   maximum displ.:     0.0011699 α      in ANC's #1, #3, #6, ...

........................................................................
.............................. CYCLE   11 ..............................
........................................................................
   1    -13.1197216 -0.131197E+02  0.128E-02    0.12       0.0  T
   2    -13.1189522  0.769396E-03  0.356E-01    0.12       1.0  T
   3    -13.1194352 -0.482929E-03  0.170E-01    0.12       1.0  T
   4    -13.1197199 -0.284789E-03  0.174E-02    0.12       2.4  T
   5    -13.1197222 -0.230379E-05  0.565E-03    0.12       7.2  T
   6    -13.1197225 -0.246475E-06  0.900E-04    0.12      45.4  T
   7    -13.1197225 -0.381046E-08  0.270E-04    0.12     151.4  T
     SCC iter.                  ...        0 min,  0.000 sec
     gradient                   ...        0 min,  0.001 sec
 * total energy  :   -13.0599801 Eh     change       -0.1192835E-06 Eh
   gradient norm :     0.0001538 Eh/α   predicted    -0.5046393E-07 ( -57.69%)
   displ. norm   :     0.0013210 α      lambda       -0.3296347E-07
   maximum displ.:     0.0011996 α      in ANC's #3, #1, #5, ...

   *** GEOMETRY OPTIMIZATION CONVERGED AFTER 11 ITERATIONS ***

------------------------------------------------------------------------
 total energy gain   :        -7.3660872 Eh    -4622.2895 kcal/mol
 total RMSD          :         0.3160312 a0        0.1672 Å
 total power (kW/mol):     -1758.1508374 (step)********** (real)
------------------------------------------------------------------------

 ANCopt (total)                0 d,  0 h,  0 min,  0.908 sec
 optimizer setup                ...        0 min,  0.000 sec (  0.006%)
 model hessian                  ...        0 min,  0.000 sec (  0.007%)
 ANC generation                 ...        0 min,  0.000 sec (  0.007%)
 coordinate transformation      ...        0 min,  0.000 sec (  0.006%)
 single point calculation       ...        0 min,  0.906 sec ( 99.860%)
 optimization log               ...        0 min,  0.000 sec (  0.033%)
 hessian update                 ...        0 min,  0.000 sec (  0.005%)
 rational function              ...        0 min,  0.000 sec (  0.040%)

================
 final structure:
================
6
 xtb: 6.2.3 (830e466)
F        -4.11848472928375   -0.25081871866173    0.06363185074536
Cl        2.85643888047427    0.14835058280540   -0.06633080110793
C        -0.72069908300214   -0.03443506953362    0.02036090976128
H        -0.69073459137283   -0.61599258631770   -0.87478113998124
H        -0.67806603944624   -0.51684585822559    0.97216227366643
H        -0.79140443736990    1.02965164993379   -0.03632309308379
 
 Bond Distances (Angstroems)
 ---------------------------
C3-H4=1.0679         C3-H5=1.0679         C3-H6=1.0679         H4-C3=1.0679         H5-C3=1.0679         H6-C3=1.0679         
 C  H  Rav=1.0679 sigma=0.0000  Rmin=1.0679  Rmax=1.0679     3
 
 selected bond angles (degree)
 --------------------
H5-C3-H4=120.00                H6-C3-H4=120.00                H6-C3-H5=120.00                
 
 selected dihedral angles (degree)
 ---------------------------------

 
 CMA Distance (Angstroems)
 ---------------------------
R(CMA):  5.9207
           -------------------------------------------------
          |                Final Singlepoint                |
           -------------------------------------------------

          ...................................................
          :                      SETUP                      :
          :.................................................:
          :  # basis functions                  21          :
          :  # atomic orbitals                  20          :
          :  # shells                           10          :
          :  # electrons                        22          :
          :  max. iterations                   250          :
          :  Hamiltonian                  GFN2-xTB          :
          :  restarted?                      false          :
          :  GBSA solvation                  false          :
          :  PC potential                    false          :
          :  electronic temp.          300.0000000     K    :
          :  accuracy                    1.0000000          :
          :  -> integral cutoff          0.2500000E+02      :
          :  -> integral neglect         0.1000000E-07      :
          :  -> SCF convergence          0.1000000E-05 Eh   :
          :  -> wf. convergence          0.1000000E-03 e    :
          :  Broyden damping             0.4000000          :
          ...................................................

 iter      E             dE          RMSdq      gap      omega  full diag
   1    -13.1197225 -0.131197E+02  0.313E-04    0.12       0.0  T
   2    -13.1197217  0.786901E-06  0.950E-03    0.12       4.3  T
   3    -13.1197223 -0.608736E-06  0.470E-03    0.12       8.7  T
   4    -13.1197223 -0.550114E-08  0.475E-03    0.12       8.6  T
   5    -13.1197225 -0.170442E-06  0.573E-04    0.12      71.2  T
   6    -13.1197225 -0.250074E-08  0.573E-05    0.12     712.7  T

   *** convergence criteria satisfied after 6 iterations ***

         #    Occupation            Energy/Eh            Energy/eV
      -------------------------------------------------------------
         1        2.0000           -0.8608708             -23.4255
       ...           ...                  ...                  ...
         5        2.0000           -0.3762429             -10.2381
         6        1.9995           -0.2451045              -6.6696
         7        1.9667           -0.2411693              -6.5626
         8        1.9666           -0.2411681              -6.5625
         9        1.9135           -0.2402371              -6.5372
        10        1.9135           -0.2402369              -6.5372
        11        1.9076           -0.2401718              -6.5354 (HOMO)
        12        0.3326           -0.2357634              -6.4154 (LUMO)
        13                          0.2288934               6.2285
        14                          0.2445594               6.6548
        15                          0.2447785               6.6608
        16                          0.2447795               6.6608
       ...                                ...                  ...
        20                          0.3973891              10.8135
      -------------------------------------------------------------
                  HL-Gap            0.0044085 Eh            0.1200 eV
             Fermi-level           -0.2372951 Eh           -6.4571 eV

 SCC (total)                   0 d,  0 h,  0 min,  0.002 sec
 SCC setup                      ...        0 min,  0.000 sec (  2.993%)
 Dispersion                     ...        0 min,  0.000 sec (  0.428%)
 integral evaluation            ...        0 min,  0.001 sec ( 36.825%)
 zeroth order Hamiltonian       ...        0 min,  0.000 sec (  0.713%)
 iterations                     ...        0 min,  0.000 sec ( 25.224%)
 molecular gradient             ...        0 min,  0.001 sec ( 30.070%)
 printout                       ...        0 min,  0.000 sec (  2.693%)

         :::::::::::::::::::::::::::::::::::::::::::::::::::::
         ::                     SUMMARY                     ::
         :::::::::::::::::::::::::::::::::::::::::::::::::::::
         :: total energy             -13.059980061247 Eh    ::
         :: gradient norm              0.000153814102 Eh/a0 ::
         :: HOMO-LUMO gap              0.119960444205 eV    ::
         ::.................................................::
         :: SCC energy               -13.119722497946 Eh    ::
         :: -> isotropic ES            0.157936114810 Eh    ::
         :: -> anisotropic ES         -0.000964897254 Eh    ::
         :: -> anisotropic XC          0.006693446696 Eh    ::
         :: -> dispersion             -0.001465648095 Eh    ::
         :: repulsion energy           0.059746361790 Eh    ::
         :: add. restraining           0.000000875486 Eh    ::
         :::::::::::::::::::::::::::::::::::::::::::::::::::::

           -------------------------------------------------
          |                Property Printout                |
           -------------------------------------------------

    * Orbital Energies and Occupations

         #    Occupation            Energy/Eh            Energy/eV
      -------------------------------------------------------------
         1        2.0000           -0.8608708             -23.4255
         2        2.0000           -0.5266030             -14.3296
         3        2.0000           -0.4742567             -12.9052
         4        2.0000           -0.3763711             -10.2416
         5        2.0000           -0.3762429             -10.2381
         6        1.9995           -0.2451045              -6.6696
         7        1.9667           -0.2411693              -6.5626
         8        1.9666           -0.2411681              -6.5625
         9        1.9135           -0.2402371              -6.5372
        10        1.9135           -0.2402369              -6.5372
        11        1.9076           -0.2401718              -6.5354 (HOMO)
        12        0.3326           -0.2357634              -6.4154 (LUMO)
        13                          0.2288934               6.2285
        14                          0.2445594               6.6548
        15                          0.2447785               6.6608
        16                          0.2447795               6.6608
        17                          0.2458515               6.6900
        18                          0.2458515               6.6900
        19                          0.3972304              10.8092
        20                          0.3973891              10.8135
      -------------------------------------------------------------
                  HL-Gap            0.0044085 Eh            0.1200 eV
             Fermi-level           -0.2372951 Eh           -6.4571 eV

     #   Z        covCN         q      C6AA      α(0)
     1   9 F      0.000    -0.542    15.938     4.650
     2  17 Cl     0.000    -0.633   112.884    16.170
     3   6 C      2.780    -0.079    29.967     8.966
     4   1 H      0.927     0.085     1.925     2.170
     5   1 H      0.927     0.085     1.930     2.173
     6   1 H      0.927     0.085     1.932     2.174

 Mol. C6AA /au·bohr⁶  :        581.744467
 Mol. C8AA /au·bohr⁸  :      16507.280795
 Mol. α(0) /au        :         36.301830


Wiberg/Mayer (AO) data.
largest (>0.10) Wiberg bond orders for each atom
          total WBO             WBO to atom ...
     1  F   0.222        C    3 0.222
     2  Cl  0.348        C    3 0.348
     3  C   3.543        H    6 0.991    H    5 0.991    H    4 0.991    Cl   2 0.348    F    1 0.222
     4  H   0.993        C    3 0.991
     5  H   0.993        C    3 0.991
     6  H   0.993        C    3 0.991

molecular dipole:
                 x           y           z       tot (Debye)
 q only:        0.561       0.067       0.020
   full:        0.565       0.068       0.020       1.447
molecular quadrupole (traceless):
                xx          xy          yy          xz          yz          zz
 q only:      -51.370      -4.462      25.568       1.399       0.081      25.803
  q+dip:      -52.245      -4.552      26.002       1.411       0.082      26.243
   full:      -51.189      -4.453      25.477       1.389       0.080      25.712

           -------------------------------------------------
          |                Geometry Summary                 |
           -------------------------------------------------

      molecular mass/u    :       69.4858989
   center of mass at/Å    :        0.1754461      -0.0003351      -0.0120402
  moments of inertia/u·Å² :        0.3458349E+01   0.6211227E+03   0.6211324E+03
rotational constants/cm⁻¹ :        0.4874474E+01   0.2714058E-01   0.2714016E-01

 * 3 selected distances

     #   Z        #   Z                                     value/Å
     3   6 C      4   1 H                                 1.0678887 (min)
     3   6 C      5   1 H                                 1.0679249
     3   6 C      6   1 H                                 1.0679386 (max)

 * 1 distinct bonds (by element types)

   Z      Z             #   av. dist./Å        max./Å        min./Å
   1 H    6 C           3     1.0679174     1.0679386     1.0678887


optimized geometry written to: xtbopt.xyz


           -------------------------------------------------
          | TOTAL ENERGY              -13.059980061247 Eh   |
          | GRADIENT NORM               0.000153814102 Eh/α |
          | HOMO-LUMO GAP               0.119960444205 eV   |
           -------------------------------------------------
########################################################################
[WARNING] Runtime exception occurred
-9- scf: Self consistent charge iterator did not converge
-8- scf: Self consistent charge iterator did not converge
-7- scf: Self consistent charge iterator did not converge
-6- scf: Self consistent charge iterator did not converge
-5- scf: Self consistent charge iterator did not converge
-4- scf: Self consistent charge iterator did not converge
-3- scf: Self consistent charge iterator did not converge
-2- scf: Self consistent charge iterator did not converge
-1- scf: Self consistent charge iterator did not converge
########################################################################

------------------------------------------------------------------------
 * finished run on 2020/04/08 at 23:04:50.840     
------------------------------------------------------------------------
 total:
 * wall-time:     0 d,  0 h,  0 min,  1.050 sec
 *  cpu-time:     0 d,  0 h,  0 min,  1.030 sec
 * ratio c/w:     0.981 speedup
 SCF:
 * wall-time:     0 d,  0 h,  0 min,  0.114 sec
 *  cpu-time:     0 d,  0 h,  0 min,  0.114 sec
 * ratio c/w:     1.000 speedup
 ANC optimizer:
 * wall-time:     0 d,  0 h,  0 min,  0.910 sec
 *  cpu-time:     0 d,  0 h,  0 min,  0.910 sec
 * ratio c/w:     1.000 speedup

