      -----------------------------------------------------------      
     |                   =====================                   |     
     |                           x T B                           |     
     |                   =====================                   |     
     |                         S. Grimme                         |     
     |          Mulliken Center for Theoretical Chemistry        |     
     |                    University of Bonn                     |     
      -----------------------------------------------------------      

   * xtb version 6.2.3 (830e466) compiled by 'ehlert@majestix' on 2020-03-16

   xtb is free software: you can redistribute it and/or modify it under
   the terms of the GNU Lesser General Public License as published by
   the Free Software Foundation, either version 3 of the License, or
   (at your option) any later version.
   
   xtb is distributed in the hope that it will be useful,
   but WITHOUT ANY WARRANTY; without even the implied warranty of
   MERCHANTABILITY or FITNESS FOR A PARTICULAR PURPOSE.  See the
   GNU Lesser General Public License for more details.
   
   Cite this work as:
   * S. Grimme, C. Bannwarth, P. Shushkov, J. Chem. Theory Comput., 2017,
     13, 1989-2009. DOI: 10.1021/acs.jctc.7b00118
   * C. Bannwarth, S. Ehlert and S. Grimme., J. Chem. Theory Comput., 2019,
     15, 1652-1671. DOI: 10.1021/acs.jctc.8b01176
   * P. Pracht, E. Caldeweyher, S. Ehlert, S. Grimme, ChemRxiv, 2019, preprint.
     DOI: 10.26434/chemrxiv.8326202.v1
   
   for DFT-D4:
   * E. Caldeweyher, C. Bannwarth and S. Grimme, J. Chem. Phys., 2017,
     147, 034112. DOI: 10.1063/1.4993215
   * E. Caldeweyher, S. Ehlert, A. Hansen, H. Neugebauer, S. Spicher,
     C. Bannwarth and S. Grimme, J. Chem. Phys., 2019, 150, 154122.
     DOI: 10.1063/1.5090222
   
   for sTDA-xTB:
   * S. Grimme and C. Bannwarth, J. Chem. Phys., 2016, 145, 054103.
     DOI: 10.1063/1.4959605
   
   in the mass-spec context:
   * V. Asgeirsson, C. Bauer and S. Grimme, Chem. Sci., 2017, 8, 4879.
     DOI: 10.1039/c7sc00601b
   
   for metadynamics refer to:
   * S. Grimme, J. Chem. Theory Comput., 2019, 155, 2847-2862
     DOI: 10.1021/acs.jctc.9b00143
   
   with help from (in alphabetical order)
   C. Bannwarth, F. Bohle, G. Brandenburg, E. Caldeweyher, M. Checinski,
   S. Dohm, S. Ehlert, S. Ehrlich, F. März, H. Neugebauer, J. Pisarek,
   P. Pracht, P. Shushkov, and S. Spicher.
   
 * started run on 2020/04/08 at 23:04:06.822     

           -------------------------------------------------
          |                Calculation Setup                |
           -------------------------------------------------

          program call               : /home/tom/.local/bin/xtb SN2_PES_scan_4-5_xtb.xyz --chrg -1 --opt --input xcontrol_SN2_PES_scan_4-5
          coordinate file            : SN2_PES_scan_4-5_xtb.xyz
          omp threads                :                     1
          number of atoms            :                     6
          number of electrons        :                    22
          charge                     :                    -1
          spin                       :                   0.0
          first test random number   :      0.75032290526547

constraining bond 1 3 to    2.0000000 Å, actual value:    2.4992453 Å
constraining bond 2 3 to    4.0000000 Å, actual value:    3.5558529 Å

molecular fragmentation (1/2 indicates fragments):
122222
# atoms in fragment 1/2:     1     5
 fragment masses (1/2) :       19.00       50.49
CMA distance (Bohr)    :   9.445
constraining FC (au)   : 10.0000
########################################################################
[WARNING] Please study the warnings concerning your input carefully
-2- prog_main: XTBPATH is not set, using XTBHOME instead
-1- prog_main: XTBHOME is not set, using HOME instead
########################################################################
           ------------------------------------------------- 
          |                 G F N 2 - x T B                 |
          | Geometry, Frequencies, Noncovalent interactions |
          |            JCTC 2019 parametrisation            |
           ------------------------------------------------- 
             k(s)              :                1.8500
             k(p)              :                2.2300
             k(d)              :                2.2300
             k(f)              :                2.0000
             kEN (H0ij)        :               -2.0000
             D4 a1             :                0.5200
             D4 a2             :                5.0000
             D4 s6             :                1.0000
             D4 s8             :                2.7000
             D4 s9             :                5.0000
             alphaj            :                2.0000

  Z AO/shell   Hii/eV     exponent
  1     Wed Apr 25 08:07:45 CEST 2018   EN: 2.200 GM2: 0.406  GM3: 0.0800  RAES: 1.40
     1s    -10.707211    1.230000
  6     Wed Apr 25 08:07:45 CEST 2018   EN: 2.550 GM2: 0.538  GM3: 0.1500  RAES: 3.00
     2s    -13.970922    2.096432
     2p    -10.063292    1.800000
  9     Mon Apr 23 13:58:50 CEST 2018   EN: 3.980 GM2: 0.532  GM3: 0.1426  RAES: 2.40
     2s    -23.458179    2.416361
     2p    -15.746583    2.308399
 17     Mon Apr 23 14:09:22 CEST 2018   EN: 3.160 GM2: 0.249  GM3: 0.1495  RAES: 2.50
     3s    -29.278781    2.485265
     3p    -12.673758    2.199650
     3d     -0.240338    2.476089

           ------------------------------------------------- 
          |        Self-Consistent Charge Iterations        |
           ------------------------------------------------- 

          ...................................................
          :                      SETUP                      :
          :.................................................:
          :  # basis functions                  21          :
          :  # atomic orbitals                  20          :
          :  # shells                           10          :
          :  # electrons                        22          :
          :  max. iterations                   250          :
          :  Hamiltonian                  GFN2-xTB          :
          :  restarted?                      false          :
          :  GBSA solvation                  false          :
          :  PC potential                    false          :
          :  electronic temp.          300.0000000     K    :
          :  accuracy                    1.0000000          :
          :  -> integral cutoff          0.2500000E+02      :
          :  -> integral neglect         0.1000000E-07      :
          :  -> SCF convergence          0.1000000E-05 Eh   :
          :  -> wf. convergence          0.1000000E-03 e    :
          :  Broyden damping             0.4000000          :
          ...................................................

 iter      E             dE          RMSdq      gap      omega  full diag
   1    -12.9719628 -0.129720E+02  0.859E+00    1.57       0.0  T
   2    -12.2897035  0.682259E+00  0.101E+01    0.08       1.0  T
   3    -13.0023707 -0.712667E+00  0.668E+00    0.41       1.0  T
   4    -12.3879504  0.614420E+00  0.107E+01    0.00       1.0  T
   5    -13.0497268 -0.661776E+00  0.465E+00    0.29       1.0  T
   6    -13.0928054 -0.430786E-01  0.325E+00    1.12       1.0  T
   7    -13.1266213 -0.338159E-01  0.157E+00    0.38       1.0  T
   8    -13.1245576  0.206365E-02  0.167E+00    0.41       1.0  T
   9    -13.1296095 -0.505189E-02  0.149E+00    0.47       1.0  T
  10    -13.1382882 -0.867865E-02  0.983E-01    0.23       1.0  T
  11    -13.1344816  0.380651E-02  0.112E+00    0.35       1.0  T
  12    -13.1383940 -0.391239E-02  0.803E-01    0.27       1.0  T
  13    -13.1385311 -0.137052E-03  0.787E-01    0.27       1.0  T
  14    -13.1403519 -0.182085E-02  0.563E-01    0.24       1.0  T
  15    -13.1402238  0.128146E-03  0.539E-01    0.25       1.0  T
  16    -13.1415716 -0.134785E-02  0.277E-01    0.22       1.0  T
  17    -13.1418457 -0.274035E-03  0.157E-01    0.21       1.0  T
  18    -13.1419798 -0.134108E-03  0.423E-02    0.20       1.0  T
  19    -13.1419800 -0.198350E-06  0.285E-02    0.20       1.4  T
  20    -13.1419587  0.212986E-04  0.631E-02    0.20       1.0  T
  21    -13.1419829 -0.242092E-04  0.851E-03    0.20       4.8  T
  22    -13.1419808  0.209654E-05  0.198E-02    0.20       2.1  T
  23    -13.1419828 -0.195738E-05  0.838E-03    0.20       4.9  T
  24    -13.1419831 -0.316005E-06  0.332E-03    0.20      12.3  T
  25    -13.1419831 -0.596321E-07  0.743E-04    0.20      55.0  T
  26    -13.1419831 -0.334573E-08  0.183E-04    0.20     222.7  T

   *** convergence criteria satisfied after 26 iterations ***

         #    Occupation            Energy/Eh            Energy/eV
      -------------------------------------------------------------
         1        2.0000           -0.8411235             -22.8881
       ...           ...                  ...                  ...
         5        2.0000           -0.3712133             -10.1012
         6        2.0000           -0.2608027              -7.0968
         7        2.0000           -0.2499322              -6.8010
         8        2.0000           -0.2499317              -6.8010
         9        1.9982           -0.2273252              -6.1858
        10        1.9719           -0.2247006              -6.1144
        11        1.9719           -0.2246996              -6.1144 (HOMO)
        12        0.0580           -0.2173253              -5.9137 (LUMO)
        13                          0.2363193               6.4306
        14                          0.2691663               7.3244
        15                          0.2693722               7.3300
        16                          0.2693736               7.3300
       ...                                ...                  ...
        20                          0.4034071              10.9773
      -------------------------------------------------------------
                  HL-Gap            0.0073743 Eh            0.2007 eV
             Fermi-level           -0.2206612 Eh           -6.0045 eV

 SCC (total)                   0 d,  0 h,  0 min,  0.004 sec
 SCC setup                      ...        0 min,  0.000 sec (  1.747%)
 Dispersion                     ...        0 min,  0.000 sec (  0.330%)
 integral evaluation            ...        0 min,  0.001 sec ( 18.425%)
 zeroth order Hamiltonian       ...        0 min,  0.000 sec (  0.381%)
 iterations                     ...        0 min,  0.003 sec ( 60.908%)
 molecular gradient             ...        0 min,  0.001 sec ( 16.086%)
 printout                       ...        0 min,  0.000 sec (  1.531%)

         :::::::::::::::::::::::::::::::::::::::::::::::::::::
         ::                     SUMMARY                     ::
         :::::::::::::::::::::::::::::::::::::::::::::::::::::
         :: total energy               2.862867247139 Eh    ::
         :: gradient norm             43.721940669812 Eh/a0 ::
         :: HOMO-LUMO gap              0.200664356993 eV    ::
         ::.................................................::
         :: SCC energy               -13.141983136626 Eh    ::
         :: -> isotropic ES            0.163582481669 Eh    ::
         :: -> anisotropic ES         -0.000774309509 Eh    ::
         :: -> anisotropic XC          0.006020503705 Eh    ::
         :: -> dispersion             -0.001599968440 Eh    ::
         :: repulsion energy           0.059602927099 Eh    ::
         :: add. restraining          15.945250328445 Eh    ::
         :::::::::::::::::::::::::::::::::::::::::::::::::::::

      ----------------------------------------------------------- 
     |                   =====================                   |
     |                        A N C O P T                        |
     |                   =====================                   |
     |               Approximate Normal Coordinate               |
     |                Rational Function Optimizer                |
      ----------------------------------------------------------- 

          ...................................................
          :                      SETUP                      :
          :.................................................:
          :   optimization level            normal          :
          :   max. optcycles                   200          :
          :   ANC micro-cycles                  20          :
          :   degrees of freedom                12          :
          :.................................................:
          :   RF solver                   davidson          :
          :   write xtbopt.log                true          :
          :   linear?                        false          :
          :   energy convergence         0.5000000E-05 Eh   :
          :   grad. convergence          0.1000000E-02 Eh/α :
          :   maximium RF displ.         1.0000000          :
          :   Hlow (freq-cutoff)         0.1000000E-01      :
          :   Hmax (freq-cutoff)         5.0000000          :
          :   S6 in model hess.         20.0000000          :
          ...................................................

generating ANC from model Hessian ...
Using Lindh-Hessian (1995)
 Shifting diagonal of input Hessian by   0.569058648193762     
 Lowest  eigenvalues of input Hessian
    0.010000    0.012230   -0.000000   -0.000000   -0.000000   -0.000000
    0.000000    0.000000    0.572510    0.719594    0.720063    1.006880
    1.276186    1.277442    5.030206    5.033557   20.574247   60.577639
 Highest eigenvalues
    1.276186    1.277442    5.030206    5.033557   20.574247   60.577639
 

........................................................................
.............................. CYCLE    1 ..............................
........................................................................
   1    -13.1419831 -0.131420E+02  0.243E-04    0.20       0.0  T
   2    -13.1419831  0.421334E-07  0.271E-03    0.20      15.1  T
   3    -13.1419831 -0.422932E-07  0.185E-04    0.20     221.2  T
   4    -13.1419831 -0.203032E-09  0.436E-05    0.20     937.4  T
     SCC iter.                  ...        0 min,  0.000 sec
     gradient                   ...        0 min,  0.001 sec
 * total energy  :     2.8628673 Eh     change        0.7878244E-08 Eh
   gradient norm :    43.7219394 Eh/α   predicted     0.0000000E+00 (-100.00%)
   displ. norm   :     0.9444539 α      lambda       -0.4129336E+02
   maximum displ.:     0.9439020 α      in ANC's #9, #12, #11, ...

........................................................................
.............................. CYCLE    2 ..............................
........................................................................
   1    -13.1243634 -0.131244E+02  0.253E+00    2.75       0.0  T
   2    -13.1380147 -0.136514E-01  0.149E+00    0.93       1.0  T
   3    -13.0983397  0.396751E-01  0.237E+00    0.09       1.0  T
   4    -13.1380656 -0.397260E-01  0.102E+00    0.82       1.0  T
   5    -13.1392981 -0.123246E-02  0.593E-01    0.47       1.0  T
   6    -13.1394631 -0.165015E-03  0.555E-01    0.41       1.0  T
   7    -13.1400097 -0.546583E-03  0.420E-01    0.16       1.0  T
   8    -13.1119194  0.280903E-01  0.179E+00    0.10       1.0  T
   9    -13.0114086  0.100511E+00  0.369E+00    0.06       1.0  T
  10    -13.1415439 -0.130135E+00  0.687E-02    0.19       1.0  T
  11    -13.1415397  0.420632E-05  0.490E-02    0.20       1.0  T
  12    -13.1409342  0.605510E-03  0.271E-01    0.24       1.0  T
  13    -13.1409217  0.125198E-04  0.274E-01    0.24       1.0  T
  14    -13.1410686 -0.146928E-03  0.240E-01    0.23       1.0  T
  15    -13.1412079 -0.139283E-03  0.202E-01    0.22       1.0  T
  16    -13.1413668 -0.158908E-03  0.147E-01    0.21       1.0  T
  17    -13.1414581 -0.913039E-04  0.104E-01    0.21       1.0  T
  18    -13.1415213 -0.632217E-04  0.572E-02    0.20       1.0  T
  19    -13.1415447 -0.233806E-04  0.230E-02    0.20       1.8  T
  20    -13.1415490 -0.432047E-05  0.455E-03    0.19       9.0  T
  21    -13.1415492 -0.176480E-06  0.233E-04    0.19     175.1  T
     SCC iter.                  ...        0 min,  0.002 sec
     gradient                   ...        0 min,  0.001 sec
 * total energy  :   -11.6930083 Eh     change       -0.1455588E+02 Eh
   gradient norm :    12.9819139 Eh/α   predicted    -0.3906337E+02 ( 168.37%)
   displ. norm   :     0.2431156 α      lambda       -0.2795750E+01
   maximum displ.:     0.2071883 α      in ANC's #9, #12, #3, ...

........................................................................
.............................. CYCLE    3 ..............................
........................................................................
   1    -12.2257921 -0.122258E+02  0.982E+00    0.00       0.0  T
   2    -12.8592388 -0.633447E+00  0.749E+00    4.54       1.0  T
   3    -13.1250573 -0.265819E+00  0.355E+00    2.60       1.0  T
   4    -13.1286965 -0.363916E-02  0.289E+00    3.09       1.0  T
   5    -13.1429908 -0.142943E-01  0.203E+00    2.80       1.0  T
   6    -13.1465377 -0.354689E-02  0.138E+00    1.37       1.0  T
   7    -13.1492682 -0.273048E-02  0.987E-01    0.76       1.0  T
   8    -13.1500542 -0.785952E-03  0.844E-01    0.52       1.0  T
   9    -13.1506187 -0.564553E-03  0.757E-01    0.40       1.0  T
  10    -12.2172219  0.933397E+00  0.102E+01    0.00       1.0  T
  11    -13.1522786 -0.935057E+00  0.595E-01    0.28       1.0  T
  12    -13.1499881  0.229046E-02  0.870E-01    0.57       1.0  T
  13    -13.1520617 -0.207361E-02  0.598E-01    0.29       1.0  T
  14    -13.1525516 -0.489900E-03  0.536E-01    0.27       1.0  T
  15    -13.1523500  0.201620E-03  0.558E-01    0.28       1.0  T
  16    -13.1545964 -0.224641E-02  0.173E-01    0.19       1.0  T
  17    -13.1519568  0.263966E-02  0.595E-01    0.30       1.0  T
  18    -13.1546098 -0.265303E-02  0.134E-01    0.19       1.0  T
  19    -13.1527016  0.190822E-02  0.499E-01    0.26       1.0  T
  20    -13.1546263 -0.192471E-02  0.969E-02    0.18       1.0  T
  21    -13.1531324  0.149389E-02  0.436E-01    0.25       1.0  T
  22    -13.1546258 -0.149337E-02  0.735E-02    0.18       1.0  T
  23    -13.1535275  0.109829E-02  0.372E-01    0.23       1.0  T
  24    -13.1546251 -0.109764E-02  0.552E-02    0.18       1.0  T
  25    -13.1538683  0.756820E-03  0.307E-01    0.22       1.0  T
  26    -13.1546260 -0.757672E-03  0.398E-02    0.18       1.0  T
  27    -13.1541448  0.481185E-03  0.244E-01    0.21       1.0  T
  28    -13.1546267 -0.481941E-03  0.276E-02    0.18       1.5  T
  29    -13.1543411  0.285584E-03  0.187E-01    0.20       1.0  T
  30    -13.1546240 -0.282818E-03  0.265E-02    0.18       1.5  T
  31    -13.1544933  0.130686E-03  0.128E-01    0.20       1.0  T
  32    -13.1546202 -0.126887E-03  0.308E-02    0.19       1.3  T
  33    -13.1545764  0.437588E-04  0.785E-02    0.19       1.0  T
  34    -13.1546211 -0.447408E-04  0.271E-02    0.19       1.5  T
  35    -13.1546095  0.115872E-04  0.458E-02    0.19       1.0  T
  36    -13.1546243 -0.147425E-04  0.177E-02    0.18       2.3  T
  37    -13.1546221  0.218371E-05  0.237E-02    0.19       1.7  T
  38    -13.1546267 -0.463193E-05  0.101E-03    0.18      40.6  T
  39    -13.1546264  0.309608E-06  0.610E-03    0.18       6.7  T
  40    -13.1546267 -0.307929E-06  0.457E-04    0.18      89.3  T
     SCC iter.                  ...        0 min,  0.004 sec
     gradient                   ...        0 min,  0.001 sec
 * total energy  :   -13.0405269 Eh     change       -0.1347519E+01 Eh
   gradient norm :     1.7149841 Eh/α   predicted    -0.1480495E+01 (   9.87%)
   displ. norm   :     0.2742585 α      lambda       -0.4613305E+00
   maximum displ.:     0.2655746 α      in ANC's #12, #9, #3, ...

........................................................................
.............................. CYCLE    4 ..............................
........................................................................
   1    -12.2692876 -0.122693E+02  0.995E+00    0.00       0.0  T
   2    -12.8299185 -0.560631E+00  0.786E+00    3.88       1.0  T
   3    -13.1072411 -0.277323E+00  0.396E+00    1.71       1.0  T
   4    -13.1158644 -0.862324E-02  0.320E+00    2.33       1.0  T
   5    -13.1341095 -0.182451E-01  0.221E+00    2.19       1.0  T
   6    -13.1356189 -0.150946E-02  0.172E+00    1.17       1.0  T
   7    -13.1446785 -0.905955E-02  0.863E-01    0.24       1.0  T
   8    -13.1426895  0.198900E-02  0.101E+00    0.28       1.0  T
   9    -12.2857626  0.856927E+00  0.956E+00    0.00       1.0  T
  10    -13.1401903 -0.854428E+00  0.120E+00    0.46       1.0  T
  11    -13.1421024 -0.191215E-02  0.103E+00    0.31       1.0  T
  12    -13.1432530 -0.115053E-02  0.952E-01    0.27       1.0  T
  13    -13.1503220 -0.706903E-02  0.814E-02    0.15       1.0  T
  14    -13.1502897  0.322642E-04  0.766E-02    0.15       1.0  T
  15    -13.1495527  0.737020E-03  0.302E-01    0.14       1.0  T
  16    -13.1499567 -0.404023E-03  0.213E-01    0.16       1.0  T
  17    -13.1473669  0.258981E-02  0.591E-01    0.12       1.0  T
  18    -13.1487046 -0.133772E-02  0.445E-01    0.18       1.0  T
  19    -13.1483812  0.323451E-03  0.480E-01    0.13       1.0  T
  20    -13.1493888 -0.100762E-02  0.337E-01    0.17       1.0  T
  21    -13.1496589 -0.270076E-03  0.282E-01    0.14       1.0  T
  22    -13.1500858 -0.426888E-03  0.170E-01    0.16       1.0  T
  23    -13.1501612 -0.753928E-04  0.140E-01    0.14       1.0  T
  24    -13.1502884 -0.127193E-03  0.655E-02    0.15       1.0  T
  25    -13.1502981 -0.971254E-05  0.557E-02    0.15       1.0  T
  26    -13.1503214 -0.232762E-04  0.177E-02    0.15       2.3  T
  27    -13.1503216 -0.243100E-06  0.168E-02    0.15       2.4  T
  28    -13.1503239 -0.232534E-05  0.153E-03    0.15      26.7  T
  29    -13.1503238  0.163867E-06  0.469E-03    0.15       8.7  T
     SCC iter.                  ...        0 min,  0.002 sec
     gradient                   ...        0 min,  0.001 sec
 * total energy  :   -12.7327341 Eh     change        0.3077928E+00 Eh
   gradient norm :     4.3157530 Eh/α   predicted    -0.2480154E+00 (-180.58%)
   displ. norm   :     0.1818823 α      lambda       -0.7344988E+00
   maximum displ.:     0.1767952 α      in ANC's #12, #9, #3, ...

........................................................................
.............................. CYCLE    5 ..............................
........................................................................
   1    -13.1532732 -0.131533E+02  0.104E+00    0.69       0.0  T
   2    -12.2382492  0.915024E+00  0.982E+00    0.00       1.0  T
   3    -13.1532526 -0.915003E+00  0.102E+00    0.56       1.0  T
   4    -13.1541232 -0.870595E-03  0.915E-01    0.48       1.0  T
   5    -13.1545789 -0.455644E-03  0.856E-01    0.37       1.0  T
   6    -13.1558119 -0.123303E-02  0.730E-01    0.29       1.0  T
   7    -13.1566224 -0.810501E-03  0.644E-01    0.26       1.0  T
   8    -12.8423912  0.314231E+00  0.586E+00    0.03       1.0  T
   9    -13.1540294 -0.311638E+00  0.913E-01    0.44       1.0  T
  10    -13.1564919 -0.246251E-02  0.649E-01    0.26       1.0  T
  11    -13.1570087 -0.516814E-03  0.596E-01    0.25       1.0  T
  12    -13.1579606 -0.951898E-03  0.481E-01    0.22       1.0  T
  13    -13.1597507 -0.179007E-02  0.942E-02    0.18       1.0  T
  14    -13.1598244 -0.736795E-04  0.443E-03    0.17       9.2  T
  15    -13.1598237  0.691604E-06  0.986E-03    0.17       4.1  T
  16    -13.1598240 -0.343854E-06  0.741E-03    0.17       5.5  T
  17    -13.1598243 -0.341672E-06  0.354E-03    0.17      11.5  T
  18    -13.1598245 -0.103395E-06  0.319E-04    0.17     127.9  T
     SCC iter.                  ...        0 min,  0.001 sec
     gradient                   ...        0 min,  0.001 sec
 * total energy  :   -13.1127775 Eh     change       -0.3800434E+00 Eh
   gradient norm :     0.1429856 Eh/α   predicted    -0.3793983E+00 (  -0.17%)
   displ. norm   :     0.0657510 α      lambda       -0.3415713E-02
   maximum displ.:     0.0590591 α      in ANC's #3, #6, #2, ...

........................................................................
.............................. CYCLE    6 ..............................
........................................................................
   1    -13.1668924 -0.131669E+02  0.145E-01    0.18       0.0  T
   2    -13.0407425  0.126150E+00  0.377E+00    0.06       1.0  T
   3    -13.1670291 -0.126287E+00  0.651E-02    0.17       1.0  T
   4    -13.1670076  0.215257E-04  0.765E-02    0.17       1.0  T
   5    -13.1669397  0.678596E-04  0.120E-01    0.16       1.0  T
   6    -13.1669143  0.254177E-04  0.128E-01    0.16       1.0  T
   7    -13.1670038 -0.894943E-04  0.727E-02    0.17       1.0  T
   8    -13.1670424 -0.385869E-04  0.235E-02    0.17       1.7  T
   9    -13.1670469 -0.444856E-05  0.175E-04    0.17     233.1  T
  10    -13.1670469  0.137204E-09  0.222E-04    0.17     184.2  T
     SCC iter.                  ...        0 min,  0.001 sec
     gradient                   ...        0 min,  0.000 sec
 * total energy  :   -13.1153487 Eh     change       -0.2571243E-02 Eh
   gradient norm :     0.0283837 Eh/α   predicted    -0.1715237E-02 ( -33.29%)
   displ. norm   :     0.2083356 α      lambda       -0.3869730E-02
   maximum displ.:     0.1271119 α      in ANC's #3, #2, #1, ...

........................................................................
.............................. CYCLE    7 ..............................
........................................................................
   1    -13.1784829 -0.131785E+02  0.238E-01    0.17       0.0  T
   2    -13.1765663  0.191659E-02  0.505E-01    0.24       1.0  T
   3    -13.1753969  0.116936E-02  0.657E-01    0.14       1.0  T
   4    -13.1785840 -0.318715E-02  0.865E-02    0.17       1.0  T
   5    -13.1784755  0.108534E-03  0.125E-01    0.16       1.0  T
   6    -13.1785892 -0.113716E-03  0.106E-02    0.17       3.8  T
   7    -13.1785902 -0.944027E-06  0.142E-03    0.17      28.8  T
   8    -13.1785901  0.579892E-07  0.289E-03    0.17      14.1  T
     SCC iter.                  ...        0 min,  0.001 sec
     gradient                   ...        0 min,  0.001 sec
 * total energy  :   -13.1166159 Eh     change       -0.1267226E-02 Eh
   gradient norm :     0.0939340 Eh/α   predicted    -0.2018830E-02 (  59.31%)
   displ. norm   :     0.4143027 α      lambda       -0.6528745E-02
   maximum displ.:     0.2670847 α      in ANC's #1, #2, #3, ...

........................................................................
.............................. CYCLE    8 ..............................
........................................................................
   1    -13.1846993 -0.131847E+02  0.937E-01    0.13       0.0  T
   2    -13.1818613  0.283801E-02  0.127E+00    0.92       1.0  T
   3    -13.1858188 -0.395744E-02  0.840E-01    0.42       1.0  T
   4    -13.1878162 -0.199739E-02  0.616E-01    0.25       1.0  T
   5    -12.2867985  0.901018E+00  0.101E+01    0.00       1.0  T
   6    -13.1314722 -0.844674E+00  0.266E+00    0.08       1.0  T
   7    -13.1873506 -0.558783E-01  0.642E-01    0.27       1.0  T
   8    -13.1895679 -0.221736E-02  0.347E-01    0.21       1.0  T
   9    -13.1900314 -0.463460E-03  0.245E-01    0.19       1.0  T
  10    -13.1902448 -0.213404E-03  0.180E-01    0.19       1.0  T
  11    -13.1903649 -0.120094E-03  0.129E-01    0.18       1.0  T
  12    -13.1904317 -0.668231E-04  0.882E-02    0.18       1.0  T
  13    -13.1904774 -0.456925E-04  0.391E-02    0.17       1.0  T
  14    -13.1904878 -0.103620E-04  0.891E-03    0.17       4.6  T
  15    -13.1904882 -0.469382E-06  0.407E-03    0.17      10.0  T
  16    -13.1904883 -0.127354E-06  0.650E-04    0.17      62.8  T
     SCC iter.                  ...        0 min,  0.001 sec
     gradient                   ...        0 min,  0.000 sec
 * total energy  :   -13.1151369 Eh     change        0.1479059E-02 Eh
   gradient norm :     0.1340156 Eh/α   predicted    -0.3824592E-02 (-358.58%)
   displ. norm   :     0.2055922 α      lambda       -0.5456517E-02
   maximum displ.:     0.1775898 α      in ANC's #1, #3, #6, ...

........................................................................
.............................. CYCLE    9 ..............................
........................................................................
   1    -13.1825507 -0.131826E+02  0.401E-01    0.21       0.0  T
   2    -12.3061332  0.876418E+00  0.977E+00    0.00       1.0  T
   3    -13.1830218 -0.876889E+00  0.281E-01    0.19       1.0  T
   4    -13.1829374  0.843588E-04  0.265E-01    0.20       1.0  T
   5    -13.1831763 -0.238898E-03  0.200E-01    0.19       1.0  T
   6    -13.1832255 -0.491972E-04  0.173E-01    0.19       1.0  T
   7    -13.1833749 -0.149350E-03  0.102E-01    0.18       1.0  T
   8    -13.1833084  0.665250E-04  0.137E-01    0.18       1.0  T
   9    -13.1834498 -0.141431E-03  0.278E-02    0.17       1.5  T
  10    -13.1834555 -0.565445E-05  0.768E-03    0.17       5.3  T
  11    -13.1834558 -0.327878E-06  0.423E-03    0.17       9.6  T
  12    -13.1834559 -0.139757E-06  0.196E-04    0.17     208.7  T
     SCC iter.                  ...        0 min,  0.001 sec
     gradient                   ...        0 min,  0.000 sec
 * total energy  :   -13.1183630 Eh     change       -0.3226123E-02 Eh
   gradient norm :     0.0494167 Eh/α   predicted    -0.2843576E-02 ( -11.86%)
   displ. norm   :     0.3974477 α      lambda       -0.3476908E-02
   maximum displ.:     0.3544862 α      in ANC's #2, #1, #3, ...

........................................................................
.............................. CYCLE   10 ..............................
........................................................................
   1    -13.1705288 -0.131705E+02  0.510E-01    0.20       0.0  T
   2    -12.3027788  0.867750E+00  0.966E+00    0.00       1.0  T
   3    -13.1702509 -0.867472E+00  0.450E-01    0.21       1.0  T
   4    -13.1702373  0.136250E-04  0.405E-01    0.21       1.0  T
   5    -13.1702661 -0.288799E-04  0.377E-01    0.21       1.0  T
   6    -13.1706168 -0.350684E-03  0.315E-01    0.20       1.0  T
   7    -13.1710363 -0.419506E-03  0.212E-01    0.19       1.0  T
   8    -13.1712115 -0.175170E-03  0.150E-01    0.18       1.0  T
   9    -13.1713828 -0.171341E-03  0.221E-02    0.17       1.8  T
  10    -13.1713856 -0.277388E-05  0.116E-02    0.17       3.5  T
  11    -13.1713859 -0.258375E-06  0.102E-02    0.17       4.0  T
  12    -13.1713866 -0.730285E-06  0.337E-03    0.17      12.1  T
  13    -13.1713867 -0.779619E-07  0.134E-03    0.17      30.5  T
     SCC iter.                  ...        0 min,  0.001 sec
     gradient                   ...        0 min,  0.000 sec
 * total energy  :   -13.1143582 Eh     change        0.4004859E-02 Eh
   gradient norm :     0.1139397 Eh/α   predicted    -0.2013055E-02 (-150.27%)
   displ. norm   :     0.2826005 α      lambda       -0.8882292E-02
   maximum displ.:     0.2376672 α      in ANC's #2, #1, #3, ...

........................................................................
.............................. CYCLE   11 ..............................
........................................................................
   1    -13.1795545 -0.131796E+02  0.333E-01    0.16       0.0  T
   2    -13.1754818  0.407270E-02  0.769E-01    0.32       1.0  T
   3    -13.1793906 -0.390885E-02  0.299E-01    0.16       1.0  T
   4    -13.1797907 -0.400120E-03  0.873E-02    0.17       1.0  T
   5    -13.1798130 -0.222115E-04  0.307E-02    0.17       1.3  T
   6    -13.1797076  0.105341E-03  0.117E-01    0.16       1.0  T
   7    -13.1798094 -0.101808E-03  0.332E-02    0.17       1.2  T
   8    -13.1798178 -0.836407E-05  0.797E-03    0.17       5.1  T
   9    -13.1798183 -0.500176E-06  0.945E-04    0.17      43.2  T
  10    -13.1798183  0.817267E-08  0.135E-03    0.17      30.3  T
     SCC iter.                  ...        0 min,  0.001 sec
     gradient                   ...        0 min,  0.000 sec
 * total energy  :   -13.1190944 Eh     change       -0.4736269E-02 Eh
   gradient norm :     0.0216896 Eh/α   predicted    -0.4795856E-02 (   1.26%)
   displ. norm   :     0.0402289 α      lambda       -0.2552658E-03
   maximum displ.:     0.0285417 α      in ANC's #2, #3, #1, ...

........................................................................
.............................. CYCLE   12 ..............................
........................................................................
   1    -13.1794274 -0.131794E+02  0.591E-02    0.17       0.0  T
   2    -13.1788125  0.614948E-03  0.284E-01    0.15       1.0  T
   3    -13.1792588 -0.446291E-03  0.150E-01    0.19       1.0  T
   4    -13.1794337 -0.174876E-03  0.287E-02    0.17       1.4  T
   5    -13.1794362 -0.258189E-05  0.132E-02    0.17       3.1  T
   6    -13.1794375 -0.124183E-05  0.197E-03    0.17      20.7  T
   7    -13.1794375 -0.201555E-07  0.265E-04    0.17     154.2  T
     SCC iter.                  ...        0 min,  0.000 sec
     gradient                   ...        0 min,  0.000 sec
 * total energy  :   -13.1192800 Eh     change       -0.1856265E-03 Eh
   gradient norm :     0.0076263 Eh/α   predicted    -0.1278423E-03 ( -31.13%)
   displ. norm   :     0.0465572 α      lambda       -0.1937176E-03
   maximum displ.:     0.0421423 α      in ANC's #3, #6, #2, ...

........................................................................
.............................. CYCLE   13 ..............................
........................................................................
   1    -13.1784385 -0.131784E+02  0.912E-02    0.17       0.0  T
   2    -13.1762799  0.215860E-02  0.529E-01    0.14       1.0  T
   3    -13.1780324 -0.175248E-02  0.234E-01    0.19       1.0  T
   4    -13.1784334 -0.401026E-03  0.708E-02    0.18       1.0  T
   5    -13.1784627 -0.292626E-04  0.256E-02    0.17       1.6  T
   6    -13.1784673 -0.468327E-05  0.658E-03    0.17       6.2  T
   7    -13.1784676 -0.299654E-06  0.431E-04    0.17      94.8  T
   8    -13.1784676  0.879314E-10  0.335E-04    0.17     121.7  T
     SCC iter.                  ...        0 min,  0.001 sec
     gradient                   ...        0 min,  0.000 sec
 * total energy  :   -13.1193977 Eh     change       -0.1176361E-03 Eh
   gradient norm :     0.0059382 Eh/α   predicted    -0.9706846E-04 ( -17.48%)
   displ. norm   :     0.0149614 α      lambda       -0.2372025E-04
   maximum displ.:     0.0128673 α      in ANC's #3, #6, #2, ...

........................................................................
.............................. CYCLE   14 ..............................
........................................................................
   1    -13.1779445 -0.131779E+02  0.389E-02    0.17       0.0  T
   2    -13.1771038  0.840745E-03  0.327E-01    0.15       1.0  T
   3    -13.1779039 -0.800153E-03  0.772E-02    0.18       1.0  T
   4    -13.1779475 -0.435941E-04  0.236E-02    0.17       1.7  T
   5    -13.1779512 -0.367023E-05  0.135E-03    0.17      30.2  T
   6    -13.1779512  0.414881E-07  0.245E-03    0.17      16.6  T
   7    -13.1779512 -0.426049E-07  0.214E-04    0.17     190.7  T
     SCC iter.                  ...        0 min,  0.000 sec
     gradient                   ...        0 min,  0.000 sec
 * total energy  :   -13.1194114 Eh     change       -0.1368318E-04 Eh
   gradient norm :     0.0017731 Eh/α   predicted    -0.1186252E-04 ( -13.31%)
   displ. norm   :     0.0056897 α      lambda       -0.1736883E-05
   maximum displ.:     0.0053501 α      in ANC's #2, #6, #1, ...

........................................................................
.............................. CYCLE   15 ..............................
........................................................................
   1    -13.1777840 -0.131778E+02  0.145E-02    0.17       0.0  T
   2    -13.1775922  0.191754E-03  0.156E-01    0.16       1.0  T
   3    -13.1777844 -0.192246E-03  0.106E-02    0.17       3.9  T
   4    -13.1777852 -0.781238E-06  0.273E-03    0.17      15.0  T
   5    -13.1777852 -0.913839E-08  0.117E-03    0.17      34.8  T
   6    -13.1777852 -0.858422E-08  0.202E-04    0.17     201.8  T
   7    -13.1777852 -0.847784E-10  0.396E-05    0.17    1031.7  T
     SCC iter.                  ...        0 min,  0.000 sec
     gradient                   ...        0 min,  0.001 sec
 * total energy  :   -13.1194124 Eh     change       -0.9974121E-06 Eh
   gradient norm :     0.0008163 Eh/α   predicted    -0.8689897E-06 ( -12.88%)
   displ. norm   :     0.0014361 α      lambda       -0.1753507E-06
   maximum displ.:     0.0010415 α      in ANC's #3, #1, #6, ...

   *** GEOMETRY OPTIMIZATION CONVERGED AFTER 15 ITERATIONS ***

------------------------------------------------------------------------
 total energy gain   :       -15.9822796 Eh   -10029.0319 kcal/mol
 total RMSD          :         0.3588520 a0        0.1899 Å
 total power (kW/mol):     -2797.4312915 (step)********** (real)
------------------------------------------------------------------------

 ANCopt (total)                0 d,  0 h,  0 min,  0.036 sec
 optimizer setup                ...        0 min,  0.000 sec (  0.177%)
 model hessian                  ...        0 min,  0.000 sec (  0.241%)
 ANC generation                 ...        0 min,  0.000 sec (  0.210%)
 coordinate transformation      ...        0 min,  0.000 sec (  0.191%)
 single point calculation       ...        0 min,  0.034 sec ( 95.715%)
 optimization log               ...        0 min,  0.000 sec (  1.019%)
 hessian update                 ...        0 min,  0.000 sec (  0.147%)
 rational function              ...        0 min,  0.000 sec (  1.093%)

================
 final structure:
================
6
 xtb: 6.2.3 (830e466)
F        -3.08680715076087   -0.18698589081810    0.05552412907256
Cl        2.90085256240180    0.15301813379255   -0.05726679933043
C        -1.09272896804707   -0.05795756682038    0.02204020581855
H        -0.93351524548401   -0.62841913436843   -0.87101340581435
H        -0.90851337772268   -0.52886829825100    0.96629122479286
H        -1.02222782038648    1.00915275646534   -0.03688535453929
 
 Bond Distances (Angstroems)
 ---------------------------
C3-H4=1.0716         C3-H5=1.0711         C3-H6=1.0711         H4-C3=1.0716         H5-C3=1.0711         H6-C3=1.0711         
 C  H  Rav=1.0713 sigma=0.0002  Rmin=1.0711  Rmax=1.0716     3
 
 selected bond angles (degree)
 --------------------
H5-C3-H4=118.36                H6-C3-H4=118.34                H6-C3-H5=118.37                
 
 selected dihedral angles (degree)
 ---------------------------------

 
 CMA Distance (Angstroems)
 ---------------------------
R(CMA):  4.8155
           -------------------------------------------------
          |                Final Singlepoint                |
           -------------------------------------------------

          ...................................................
          :                      SETUP                      :
          :.................................................:
          :  # basis functions                  21          :
          :  # atomic orbitals                  20          :
          :  # shells                           10          :
          :  # electrons                        22          :
          :  max. iterations                   250          :
          :  Hamiltonian                  GFN2-xTB          :
          :  restarted?                      false          :
          :  GBSA solvation                  false          :
          :  PC potential                    false          :
          :  electronic temp.          300.0000000     K    :
          :  accuracy                    1.0000000          :
          :  -> integral cutoff          0.2500000E+02      :
          :  -> integral neglect         0.1000000E-07      :
          :  -> SCF convergence          0.1000000E-05 Eh   :
          :  -> wf. convergence          0.1000000E-03 e    :
          :  Broyden damping             0.4000000          :
          ...................................................

 iter      E             dE          RMSdq      gap      omega  full diag
   1    -13.1777852 -0.131778E+02  0.419E-05    0.17       0.0  T
   2    -13.1777852  0.132777E-08  0.411E-04    0.17      99.4  T
   3    -13.1777852 -0.133810E-08  0.182E-05    0.17    2237.8  T

   *** convergence criteria satisfied after 3 iterations ***

         #    Occupation            Energy/Eh            Energy/eV
      -------------------------------------------------------------
         1        2.0000           -0.8095420             -22.0288
       ...           ...                  ...                  ...
         5        2.0000           -0.3877313             -10.5507
         6        2.0000           -0.3298457              -8.9756
         7        2.0000           -0.2995504              -8.1512
         8        2.0000           -0.2995465              -8.1511
         9        1.9789           -0.2020439              -5.4979
        10        1.9567           -0.2013486              -5.4790
        11        1.9566           -0.2013480              -5.4790 (HOMO)
        12        0.1078           -0.1950065              -5.3064 (LUMO)
        13                          0.2287098               6.2235
        14                          0.3099637               8.4345
        15                          0.3100568               8.4371
        16                          0.3100573               8.4371
       ...                                ...                  ...
        20                          0.3744969              10.1906
      -------------------------------------------------------------
                  HL-Gap            0.0063415 Eh            0.1726 eV
             Fermi-level           -0.1977288 Eh           -5.3805 eV

 SCC (total)                   0 d,  0 h,  0 min,  0.002 sec
 SCC setup                      ...        0 min,  0.000 sec (  2.903%)
 Dispersion                     ...        0 min,  0.000 sec (  0.445%)
 integral evaluation            ...        0 min,  0.001 sec ( 39.892%)
 zeroth order Hamiltonian       ...        0 min,  0.000 sec (  0.768%)
 iterations                     ...        0 min,  0.000 sec ( 14.747%)
 molecular gradient             ...        0 min,  0.001 sec ( 36.928%)
 printout                       ...        0 min,  0.000 sec (  3.149%)

         :::::::::::::::::::::::::::::::::::::::::::::::::::::
         ::                     SUMMARY                     ::
         :::::::::::::::::::::::::::::::::::::::::::::::::::::
         :: total energy             -13.119412363962 Eh    ::
         :: gradient norm              0.000816427311 Eh/a0 ::
         :: HOMO-LUMO gap              0.172562068981 eV    ::
         ::.................................................::
         :: SCC energy               -13.177785244326 Eh    ::
         :: -> isotropic ES            0.166548958792 Eh    ::
         :: -> anisotropic ES         -0.001616209117 Eh    ::
         :: -> anisotropic XC          0.005553033949 Eh    ::
         :: -> dispersion             -0.001424514143 Eh    ::
         :: repulsion energy           0.058297522917 Eh    ::
         :: add. restraining           0.000077438361 Eh    ::
         :::::::::::::::::::::::::::::::::::::::::::::::::::::

           -------------------------------------------------
          |                Property Printout                |
           -------------------------------------------------

    * Orbital Energies and Occupations

         #    Occupation            Energy/Eh            Energy/eV
      -------------------------------------------------------------
         1        2.0000           -0.8095420             -22.0288
         2        2.0000           -0.5926837             -16.1277
         3        2.0000           -0.4842409             -13.1769
         4        2.0000           -0.3878561             -10.5541
         5        2.0000           -0.3877313             -10.5507
         6        2.0000           -0.3298457              -8.9756
         7        2.0000           -0.2995504              -8.1512
         8        2.0000           -0.2995465              -8.1511
         9        1.9789           -0.2020439              -5.4979
        10        1.9567           -0.2013486              -5.4790
        11        1.9566           -0.2013480              -5.4790 (HOMO)
        12        0.1078           -0.1950065              -5.3064 (LUMO)
        13                          0.2287098               6.2235
        14                          0.3099637               8.4345
        15                          0.3100568               8.4371
        16                          0.3100573               8.4371
        17                          0.3103742               8.4457
        18                          0.3103742               8.4457
        19                          0.3738602              10.1733
        20                          0.3744969              10.1906
      -------------------------------------------------------------
                  HL-Gap            0.0063415 Eh            0.1726 eV
             Fermi-level           -0.1977288 Eh           -5.3805 eV

     #   Z        covCN         q      C6AA      α(0)
     1   9 F      0.159    -0.441    14.496     4.437
     2  17 Cl     0.000    -0.855   121.188    16.754
     3   6 C      2.939    -0.009    28.252     8.717
     4   1 H      0.926     0.102     1.766     2.078
     5   1 H      0.926     0.102     1.767     2.079
     6   1 H      0.926     0.101     1.772     2.081

 Mol. C6AA /au·bohr⁶  :        575.422175
 Mol. C8AA /au·bohr⁸  :      16576.291922
 Mol. α(0) /au        :         36.147117


Wiberg/Mayer (AO) data.
largest (>0.10) Wiberg bond orders for each atom
          total WBO             WBO to atom ...
     1  F   0.725        C    3 0.722
     2  Cl  0.048
     3  C   3.733        H    6 0.988    H    5 0.988    H    4 0.988    F    1 0.722
     4  H   0.990        C    3 0.988
     5  H   0.990        C    3 0.988
     6  H   0.990        C    3 0.988

molecular dipole:
                 x           y           z       tot (Debye)
 q only:       -2.647      -0.120       0.057
   full:       -2.510      -0.111       0.055       6.387
molecular quadrupole (traceless):
                xx          xy          yy          xz          yz          zz
 q only:      -40.287      -3.377      20.058       1.153       0.065      20.229
  q+dip:      -41.704      -3.514      20.762       1.188       0.067      20.942
   full:      -40.965      -3.445      20.395       1.169       0.066      20.570

           -------------------------------------------------
          |                Geometry Summary                 |
           -------------------------------------------------

      molecular mass/u    :       69.4858989
   center of mass at/Å    :        0.4056630       0.0147812      -0.0093808
  moments of inertia/u·Å² :        0.3415148E+01   0.4884277E+03   0.4884302E+03
rotational constants/cm⁻¹ :        0.4936136E+01   0.3451408E-01   0.3451390E-01

 * 3 selected distances

     #   Z        #   Z                                     value/Å
     3   6 C      4   1 H                                 1.0715970 (max)
     3   6 C      5   1 H                                 1.0711220
     3   6 C      6   1 H                                 1.0710589 (min)

 * 1 distinct bonds (by element types)

   Z      Z             #   av. dist./Å        max./Å        min./Å
   1 H    6 C           3     1.0712593     1.0715970     1.0710589


optimized geometry written to: xtbopt.xyz


           -------------------------------------------------
          | TOTAL ENERGY              -13.119412363962 Eh   |
          | GRADIENT NORM               0.000816427311 Eh/α |
          | HOMO-LUMO GAP               0.172562068981 eV   |
           -------------------------------------------------

------------------------------------------------------------------------
 * finished run on 2020/04/08 at 23:04:06.872     
------------------------------------------------------------------------
 total:
 * wall-time:     0 d,  0 h,  0 min,  0.050 sec
 *  cpu-time:     0 d,  0 h,  0 min,  0.049 sec
 * ratio c/w:     0.983 speedup
 SCF:
 * wall-time:     0 d,  0 h,  0 min,  0.004 sec
 *  cpu-time:     0 d,  0 h,  0 min,  0.004 sec
 * ratio c/w:     0.999 speedup
 ANC optimizer:
 * wall-time:     0 d,  0 h,  0 min,  0.038 sec
 *  cpu-time:     0 d,  0 h,  0 min,  0.038 sec
 * ratio c/w:     1.000 speedup

