      -----------------------------------------------------------      
     |                   =====================                   |     
     |                           x T B                           |     
     |                   =====================                   |     
     |                         S. Grimme                         |     
     |          Mulliken Center for Theoretical Chemistry        |     
     |                    University of Bonn                     |     
      -----------------------------------------------------------      

   * xtb version 6.2.3 (830e466) compiled by 'ehlert@majestix' on 2020-03-16

   xtb is free software: you can redistribute it and/or modify it under
   the terms of the GNU Lesser General Public License as published by
   the Free Software Foundation, either version 3 of the License, or
   (at your option) any later version.
   
   xtb is distributed in the hope that it will be useful,
   but WITHOUT ANY WARRANTY; without even the implied warranty of
   MERCHANTABILITY or FITNESS FOR A PARTICULAR PURPOSE.  See the
   GNU Lesser General Public License for more details.
   
   Cite this work as:
   * S. Grimme, C. Bannwarth, P. Shushkov, J. Chem. Theory Comput., 2017,
     13, 1989-2009. DOI: 10.1021/acs.jctc.7b00118
   * C. Bannwarth, S. Ehlert and S. Grimme., J. Chem. Theory Comput., 2019,
     15, 1652-1671. DOI: 10.1021/acs.jctc.8b01176
   * P. Pracht, E. Caldeweyher, S. Ehlert, S. Grimme, ChemRxiv, 2019, preprint.
     DOI: 10.26434/chemrxiv.8326202.v1
   
   for DFT-D4:
   * E. Caldeweyher, C. Bannwarth and S. Grimme, J. Chem. Phys., 2017,
     147, 034112. DOI: 10.1063/1.4993215
   * E. Caldeweyher, S. Ehlert, A. Hansen, H. Neugebauer, S. Spicher,
     C. Bannwarth and S. Grimme, J. Chem. Phys., 2019, 150, 154122.
     DOI: 10.1063/1.5090222
   
   for sTDA-xTB:
   * S. Grimme and C. Bannwarth, J. Chem. Phys., 2016, 145, 054103.
     DOI: 10.1063/1.4959605
   
   in the mass-spec context:
   * V. Asgeirsson, C. Bauer and S. Grimme, Chem. Sci., 2017, 8, 4879.
     DOI: 10.1039/c7sc00601b
   
   for metadynamics refer to:
   * S. Grimme, J. Chem. Theory Comput., 2019, 155, 2847-2862
     DOI: 10.1021/acs.jctc.9b00143
   
   with help from (in alphabetical order)
   C. Bannwarth, F. Bohle, G. Brandenburg, E. Caldeweyher, M. Checinski,
   S. Dohm, S. Ehlert, S. Ehrlich, F. März, H. Neugebauer, J. Pisarek,
   P. Pracht, P. Shushkov, and S. Spicher.
   
 * started run on 2020/04/08 at 13:05:39.974     

           -------------------------------------------------
          |                Calculation Setup                |
           -------------------------------------------------

          program call               : /home/tom/.local/bin/xtb SN2_PES_scan_4-3_xtb.xyz --chrg -1 --opt --input xcontrol_SN2_PES_scan_4-3
          coordinate file            : SN2_PES_scan_4-3_xtb.xyz
          omp threads                :                     2
          number of atoms            :                     6
          number of electrons        :                    22
          charge                     :                    -1
          spin                       :                   0.0
          first test random number   :      0.68817564635301

constraining bond 1 3 to    2.0000000 Å, actual value:    2.4993473 Å
constraining bond 2 3 to    3.1120000 Å, actual value:    2.6673031 Å

molecular fragmentation (1/2 indicates fragments):
122222
# atoms in fragment 1/2:     1     5
 fragment masses (1/2) :       19.00       50.49
CMA distance (Bohr)    :   8.258
constraining FC (au)   : 10.0000
########################################################################
[WARNING] Please study the warnings concerning your input carefully
-2- prog_main: XTBPATH is not set, using XTBHOME instead
-1- prog_main: XTBHOME is not set, using HOME instead
########################################################################
           ------------------------------------------------- 
          |                 G F N 2 - x T B                 |
          | Geometry, Frequencies, Noncovalent interactions |
          |            JCTC 2019 parametrisation            |
           ------------------------------------------------- 
             k(s)              :                1.8500
             k(p)              :                2.2300
             k(d)              :                2.2300
             k(f)              :                2.0000
             kEN (H0ij)        :               -2.0000
             D4 a1             :                0.5200
             D4 a2             :                5.0000
             D4 s6             :                1.0000
             D4 s8             :                2.7000
             D4 s9             :                5.0000
             alphaj            :                2.0000

  Z AO/shell   Hii/eV     exponent
  1     Wed Apr 25 08:07:45 CEST 2018   EN: 2.200 GM2: 0.406  GM3: 0.0800  RAES: 1.40
     1s    -10.707211    1.230000
  6     Wed Apr 25 08:07:45 CEST 2018   EN: 2.550 GM2: 0.538  GM3: 0.1500  RAES: 3.00
     2s    -13.970922    2.096432
     2p    -10.063292    1.800000
  9     Mon Apr 23 13:58:50 CEST 2018   EN: 3.980 GM2: 0.532  GM3: 0.1426  RAES: 2.40
     2s    -23.458179    2.416361
     2p    -15.746583    2.308399
 17     Mon Apr 23 14:09:22 CEST 2018   EN: 3.160 GM2: 0.249  GM3: 0.1495  RAES: 2.50
     3s    -29.278781    2.485265
     3p    -12.673758    2.199650
     3d     -0.240338    2.476089

           ------------------------------------------------- 
          |        Self-Consistent Charge Iterations        |
           ------------------------------------------------- 

          ...................................................
          :                      SETUP                      :
          :.................................................:
          :  # basis functions                  21          :
          :  # atomic orbitals                  20          :
          :  # shells                           10          :
          :  # electrons                        22          :
          :  max. iterations                   250          :
          :  Hamiltonian                  GFN2-xTB          :
          :  restarted?                      false          :
          :  GBSA solvation                  false          :
          :  PC potential                    false          :
          :  electronic temp.          300.0000000     K    :
          :  accuracy                    1.0000000          :
          :  -> integral cutoff          0.2500000E+02      :
          :  -> integral neglect         0.1000000E-07      :
          :  -> SCF convergence          0.1000000E-05 Eh   :
          :  -> wf. convergence          0.1000000E-03 e    :
          :  Broyden damping             0.4000000          :
          ...................................................

 iter      E             dE          RMSdq      gap      omega  full diag
   1    -13.0072553 -0.130073E+02  0.820E+00    1.81       0.0  T
   2    -12.2812624  0.725993E+00  0.101E+01    0.10       1.0  T
   3    -13.0986721 -0.817410E+00  0.465E+00    1.72       1.0  T
   4    -13.1214813 -0.228092E-01  0.329E+00    1.51       1.0  T
   5    -13.0806133  0.408681E-01  0.366E+00    0.55       1.0  T
   6    -13.1621662 -0.815529E-01  0.105E+00    1.12       1.0  T
   7    -13.1676627 -0.549652E-02  0.306E-01    0.97       1.0  T
   8    -13.1574538  0.102090E-01  0.129E+00    0.75       1.0  T
   9    -13.1664813 -0.902755E-02  0.499E-01    0.87       1.0  T
  10    -13.1677170 -0.123571E-02  0.152E-01    0.98       1.0  T
  11    -13.1678081 -0.910924E-04  0.122E-01    0.96       1.0  T
  12    -13.1677718  0.362907E-04  0.126E-01    0.97       1.0  T
  13    -13.1678613 -0.895123E-04  0.360E-02    0.95       1.1  T
  14    -13.1678648 -0.342696E-05  0.160E-02    0.95       2.5  T
  15    -13.1678663 -0.155679E-05  0.633E-03    0.95       6.5  T
  16    -13.1678665 -0.232782E-06  0.311E-03    0.95      13.1  T
  17    -13.1678666 -0.529028E-07  0.692E-04    0.95      59.0  T
  18    -13.1678666 -0.143221E-08  0.984E-05    0.95     415.1  T

   *** convergence criteria satisfied after 18 iterations ***

         #    Occupation            Energy/Eh            Energy/eV
      -------------------------------------------------------------
         1        2.0000           -0.8529940             -23.2111
       ...           ...                  ...                  ...
         5        2.0000           -0.3490740              -9.4988
         6        2.0000           -0.2529407              -6.8829
         7        2.0000           -0.2334024              -6.3512
         8        2.0000           -0.2334017              -6.3512
         9        2.0000           -0.2141347              -5.8269
        10        2.0000           -0.2094231              -5.6987
        11        2.0000           -0.2094226              -5.6987 (HOMO)
        12                         -0.1745284              -4.7492 (LUMO)
        13                          0.2523475               6.8667
        14                          0.2523482               6.8667
        15                          0.2533540               6.8941
        16                          0.2534612               6.8970
       ...                                ...                  ...
        20                          0.4266193              11.6089
      -------------------------------------------------------------
                  HL-Gap            0.0348942 Eh            0.9495 eV
             Fermi-level           -0.1916447 Eh           -5.2149 eV

 SCC (total)                   0 d,  0 h,  0 min,  0.003 sec
 SCC setup                      ...        0 min,  0.000 sec (  2.505%)
 Dispersion                     ...        0 min,  0.000 sec (  0.759%)
 integral evaluation            ...        0 min,  0.000 sec ( 14.801%)
 zeroth order Hamiltonian       ...        0 min,  0.000 sec (  0.636%)
 iterations                     ...        0 min,  0.002 sec ( 62.078%)
 molecular gradient             ...        0 min,  0.000 sec ( 16.072%)
 printout                       ...        0 min,  0.000 sec (  2.268%)

         :::::::::::::::::::::::::::::::::::::::::::::::::::::
         ::                     SUMMARY                     ::
         :::::::::::::::::::::::::::::::::::::::::::::::::::::
         :: total energy               2.858505205223 Eh    ::
         :: gradient norm             43.722078122329 Eh/a0 ::
         :: HOMO-LUMO gap              0.949518647933 eV    ::
         ::.................................................::
         :: SCC energy               -13.167866602294 Eh    ::
         :: -> isotropic ES            0.172824345805 Eh    ::
         :: -> anisotropic ES          0.000876546950 Eh    ::
         :: -> anisotropic XC          0.005319973550 Eh    ::
         :: -> dispersion             -0.001887148764 Eh    ::
         :: repulsion energy           0.060034925115 Eh    ::
         :: add. restraining          15.966337876951 Eh    ::
         :::::::::::::::::::::::::::::::::::::::::::::::::::::

      ----------------------------------------------------------- 
     |                   =====================                   |
     |                        A N C O P T                        |
     |                   =====================                   |
     |               Approximate Normal Coordinate               |
     |                Rational Function Optimizer                |
      ----------------------------------------------------------- 

          ...................................................
          :                      SETUP                      :
          :.................................................:
          :   optimization level            normal          :
          :   max. optcycles                   200          :
          :   ANC micro-cycles                  20          :
          :   degrees of freedom                12          :
          :.................................................:
          :   RF solver                   davidson          :
          :   write xtbopt.log                true          :
          :   linear?                        false          :
          :   energy convergence         0.5000000E-05 Eh   :
          :   grad. convergence          0.1000000E-02 Eh/α :
          :   maximium RF displ.         1.0000000          :
          :   Hlow (freq-cutoff)         0.1000000E-01      :
          :   Hmax (freq-cutoff)         5.0000000          :
          :   S6 in model hess.         20.0000000          :
          ...................................................

generating ANC from model Hessian ...
Using Lindh-Hessian (1995)
 Shifting diagonal of input Hessian by    1.45311780870386     
 Lowest  eigenvalues of input Hessian
    0.010000    0.010340   -0.000000   -0.000000   -0.000000    0.000000
    0.000000    0.000000    1.459581    1.606265    1.606336    1.892546
    2.131175    2.131325    4.756397    4.756827   21.461409   61.476997
 Highest eigenvalues
    2.131175    2.131325    4.756397    4.756827   21.461409   61.476997
 

........................................................................
.............................. CYCLE    1 ..............................
........................................................................
   1    -13.1678666 -0.131679E+02  0.382E-05    0.95       0.0  T
   2    -13.1678666  0.697309E-10  0.108E-04    0.95     378.0  T
   3    -13.1678666 -0.756586E-10  0.186E-05    0.95    2194.2  T
     SCC iter.                  ...        0 min,  0.000 sec
     gradient                   ...        0 min,  0.001 sec
 * total energy  :     2.8585052 Eh     change       -0.7528040E-09 Eh
   gradient norm :    43.7220769 Eh/α   predicted     0.0000000E+00 (-100.00%)
   displ. norm   :     0.9444541 α      lambda       -0.4129349E+02
   maximum displ.:     0.9438973 α      in ANC's #11, #12, #6, ...

........................................................................
.............................. CYCLE    2 ..............................
........................................................................
   1    -13.1358085 -0.131358E+02  0.340E+00    2.89       0.0  T
   2    -13.1567952 -0.209867E-01  0.218E+00    2.11       1.0  T
   3    -13.1653618 -0.856662E-02  0.111E+00    1.27       1.0  T
   4    -13.1667949 -0.143309E-02  0.575E-01    0.90       1.0  T
   5    -13.1670972 -0.302343E-03  0.266E-01    1.03       1.0  T
   6    -13.1671532 -0.560193E-04  0.217E-01    0.83       1.0  T
   7    -13.1672046 -0.513524E-04  0.173E-01    1.02       1.0  T
   8    -13.1672374 -0.328248E-04  0.131E-01    1.00       1.0  T
   9    -13.1672746 -0.371961E-04  0.578E-02    0.90       1.0  T
  10    -13.1672833 -0.864962E-05  0.178E-02    0.92       2.3  T
  11    -13.1672842 -0.900443E-06  0.481E-04    0.93      84.8  T
  12    -13.1672842 -0.562155E-09  0.168E-04    0.93     243.2  T
     SCC iter.                  ...        0 min,  0.001 sec
     gradient                   ...        0 min,  0.000 sec
 * total energy  :   -11.7185692 Eh     change       -0.1457707E+02 Eh
   gradient norm :    12.9358308 Eh/α   predicted    -0.3906351E+02 ( 167.98%)
   displ. norm   :     0.2418163 α      lambda       -0.2777456E+01
   maximum displ.:     0.2067308 α      in ANC's #11, #12, #3, ...

........................................................................
.............................. CYCLE    3 ..............................
........................................................................
   1    -13.1578622 -0.131579E+02  0.226E+00    0.55       0.0  T
   2    -13.1708149 -0.129527E-01  0.128E+00    1.83       1.0  T
   3    -13.1760441 -0.522926E-02  0.610E-01    1.25       1.0  T
   4    -13.1766681 -0.623961E-03  0.378E-01    1.19       1.0  T
   5    -13.1769891 -0.321008E-03  0.966E-02    1.01       1.0  T
   6    -13.1769985 -0.940855E-05  0.445E-02    1.02       1.0  T
   7    -13.1770041 -0.555343E-05  0.124E-02    1.03       3.3  T
   8    -13.1770039  0.157570E-06  0.143E-02    1.04       2.9  T
   9    -13.1770045 -0.580226E-06  0.716E-04    1.03      57.0  T
  10    -13.1770045 -0.205771E-08  0.211E-04    1.03     193.9  T
     SCC iter.                  ...        0 min,  0.001 sec
     gradient                   ...        0 min,  0.000 sec
 * total energy  :   -13.0565763 Eh     change       -0.1338007E+01 Eh
   gradient norm :     1.7083374 Eh/α   predicted    -0.1469935E+01 (   9.86%)
   displ. norm   :     0.2696857 α      lambda       -0.4567127E+00
   maximum displ.:     0.2650388 α      in ANC's #12, #11, #3, ...

........................................................................
.............................. CYCLE    4 ..............................
........................................................................
   1    -13.0944801 -0.130945E+02  0.437E+00    0.28       0.0  T
   2    -13.1272914 -0.328113E-01  0.326E+00    2.66       1.0  T
   3    -13.1545647 -0.272733E-01  0.195E+00    1.56       1.0  T
   4    -13.1610583 -0.649368E-02  0.148E+00    1.36       1.0  T
   5    -13.1654479 -0.438959E-02  0.756E-01    0.93       1.0  T
   6    -13.1667928 -0.134483E-02  0.195E-01    0.67       1.0  T
   7    -13.1668971 -0.104346E-03  0.518E-02    0.71       1.0  T
   8    -13.1668955  0.164206E-05  0.715E-02    0.73       1.0  T
   9    -13.1669095 -0.140329E-04  0.139E-02    0.71       2.9  T
  10    -13.1669089  0.602099E-06  0.220E-02    0.72       1.9  T
  11    -13.1669102 -0.128648E-05  0.101E-02    0.71       4.1  T
  12    -13.1669104 -0.264549E-06  0.353E-03    0.71      11.6  T
  13    -13.1669104  0.937666E-08  0.382E-03    0.71      10.7  T
     SCC iter.                  ...        0 min,  0.001 sec
     gradient                   ...        0 min,  0.000 sec
 * total energy  :   -12.7475935 Eh     change        0.3089828E+00 Eh
   gradient norm :     4.3069726 Eh/α   predicted    -0.2449649E+00 (-179.28%)
   displ. norm   :     0.1807045 α      lambda       -0.7320406E+00
   maximum displ.:     0.1766972 α      in ANC's #12, #11, #3, ...

........................................................................
.............................. CYCLE    5 ..............................
........................................................................
   1    -13.1741446 -0.131741E+02  0.730E-01    1.25       0.0  T
   2    -13.1752803 -0.113572E-02  0.341E-01    0.81       1.0  T
   3    -13.1756197 -0.339346E-03  0.246E-01    0.96       1.0  T
   4    -13.1757568 -0.137171E-03  0.983E-02    0.92       1.0  T
   5    -13.1757561  0.687139E-06  0.599E-02    0.88       1.0  T
   6    -13.1757660 -0.988381E-05  0.144E-02    0.90       2.8  T
   7    -13.1757660  0.573908E-07  0.103E-02    0.91       4.0  T
   8    -13.1757662 -0.240292E-06  0.518E-03    0.90       7.9  T
   9    -13.1757663 -0.465642E-07  0.336E-03    0.90      12.2  T
     SCC iter.                  ...        0 min,  0.001 sec
     gradient                   ...        0 min,  0.014 sec
 * total energy  :   -13.1258025 Eh     change       -0.3782090E+00 Eh
   gradient norm :     0.1371372 Eh/α   predicted    -0.3779723E+00 (  -0.06%)
   displ. norm   :     0.0257628 α      lambda       -0.1429681E-02
   maximum displ.:     0.0167856 α      in ANC's #3, #2, #1, ...

........................................................................
.............................. CYCLE    6 ..............................
........................................................................
   1    -13.1783404 -0.131783E+02  0.312E-02    0.92       0.0  T
   2    -13.1783405 -0.124133E-06  0.211E-02    0.91       1.9  T
   3    -13.1783403  0.260006E-06  0.138E-02    0.92       3.0  T
   4    -13.1783408 -0.511980E-06  0.670E-03    0.91       6.1  T
   5    -13.1783409 -0.904093E-07  0.267E-03    0.91      15.3  T
   6    -13.1783409 -0.105196E-07  0.467E-04    0.91      87.4  T
     SCC iter.                  ...        0 min,  0.000 sec
     gradient                   ...        0 min,  0.000 sec
 * total energy  :   -13.1267337 Eh     change       -0.9312162E-03 Eh
   gradient norm :     0.0252797 Eh/α   predicted    -0.7153121E-03 ( -23.19%)
   displ. norm   :     0.2231609 α      lambda       -0.1379369E-02
   maximum displ.:     0.1708390 α      in ANC's #2, #1, #3, ...

........................................................................
.............................. CYCLE    7 ..............................
........................................................................
   1    -13.1817171 -0.131817E+02  0.289E-01    0.91       0.0  T
   2    -13.1817336 -0.164812E-04  0.182E-01    0.92       1.0  T
   3    -13.1817189  0.147039E-04  0.733E-02    0.92       1.0  T
   4    -13.1817374 -0.185571E-04  0.322E-02    0.91       1.3  T
   5    -13.1817398 -0.237889E-05  0.128E-02    0.92       3.2  T
   6    -13.1817401 -0.320093E-06  0.169E-03    0.92      24.2  T
   7    -13.1817401 -0.189407E-08  0.502E-04    0.92      81.4  T
     SCC iter.                  ...        0 min,  0.001 sec
     gradient                   ...        0 min,  0.000 sec
 * total energy  :   -13.1248004 Eh     change        0.1933360E-02 Eh
   gradient norm :     0.0942521 Eh/α   predicted    -0.7240284E-03 (-137.45%)
   displ. norm   :     0.1968005 α      lambda       -0.5155630E-02
   maximum displ.:     0.1515579 α      in ANC's #2, #1, #3, ...

........................................................................
.............................. CYCLE    8 ..............................
........................................................................
   1    -13.1861354 -0.131861E+02  0.256E-01    0.91       0.0  T
   2    -13.1861489 -0.134673E-04  0.159E-01    0.93       1.0  T
   3    -13.1861412  0.767846E-05  0.683E-02    0.90       1.0  T
   4    -13.1861523 -0.110851E-04  0.245E-02    0.92       1.7  T
   5    -13.1861534 -0.107338E-05  0.140E-02    0.92       2.9  T
   6    -13.1861539 -0.587298E-06  0.122E-03    0.92      33.4  T
   7    -13.1861539 -0.269532E-09  0.335E-04    0.92     122.0  T
     SCC iter.                  ...        0 min,  0.010 sec
     gradient                   ...        0 min,  0.005 sec
 * total energy  :   -13.1276463 Eh     change       -0.2845909E-02 Eh
   gradient norm :     0.1130066 Eh/α   predicted    -0.2677628E-02 (  -5.91%)
   displ. norm   :     0.0375736 α      lambda       -0.6713688E-03
   maximum displ.:     0.0297885 α      in ANC's #1, #2, #3, ...

........................................................................
.............................. CYCLE    9 ..............................
........................................................................
   1    -13.1863805 -0.131864E+02  0.493E-02    0.91       0.0  T
   2    -13.1863824 -0.188451E-05  0.310E-02    0.92       1.3  T
   3    -13.1863828 -0.427820E-06  0.180E-02    0.91       2.3  T
   4    -13.1863830 -0.162769E-06  0.356E-03    0.92      11.5  T
   5    -13.1863830  0.145402E-07  0.309E-03    0.91      13.2  T
     SCC iter.                  ...        0 min,  0.000 sec
     gradient                   ...        0 min,  0.000 sec
 * total energy  :   -13.1280335 Eh     change       -0.3872025E-03 Eh
   gradient norm :     0.0280779 Eh/α   predicted    -0.3361583E-03 ( -13.18%)
   displ. norm   :     0.1362283 α      lambda       -0.6206284E-03
   maximum displ.:     0.1002558 α      in ANC's #1, #2, #3, ...

........................................................................
.............................. CYCLE   10 ..............................
........................................................................
   1    -13.1883284 -0.131883E+02  0.192E-01    0.90       0.0  T
   2    -13.1883401 -0.116782E-04  0.122E-01    0.92       1.0  T
   3    -13.1883356  0.447209E-05  0.618E-02    0.91       1.0  T
   4    -13.1883421 -0.646582E-05  0.278E-02    0.91       1.5  T
   5    -13.1883447 -0.256362E-05  0.820E-03    0.91       5.0  T
   6    -13.1883447 -0.703063E-07  0.826E-04    0.91      49.4  T
   7    -13.1883447 -0.172554E-09  0.198E-04    0.91     206.2  T
     SCC iter.                  ...        0 min,  0.001 sec
     gradient                   ...        0 min,  0.000 sec
 * total energy  :   -13.1273403 Eh     change        0.6931463E-03 Eh
   gradient norm :     0.0672167 Eh/α   predicted    -0.3160765E-03 (-145.60%)
   displ. norm   :     0.1420180 α      lambda       -0.2622787E-02
   maximum displ.:     0.0961601 α      in ANC's #2, #1, #3, ...

........................................................................
.............................. CYCLE   11 ..............................
........................................................................
   1    -13.1927531 -0.131928E+02  0.202E-01    0.90       0.0  T
   2    -13.1927720 -0.188686E-04  0.130E-01    0.92       1.0  T
   3    -13.1927722 -0.220266E-06  0.675E-02    0.91       1.0  T
   4    -13.1927762 -0.395645E-05  0.279E-02    0.91       1.5  T
   5    -13.1927786 -0.243599E-05  0.817E-03    0.91       5.0  T
   6    -13.1927787 -0.591983E-07  0.814E-04    0.91      50.1  T
   7    -13.1927787 -0.846718E-10  0.233E-04    0.91     175.3  T
     SCC iter.                  ...        0 min,  0.001 sec
     gradient                   ...        0 min,  0.000 sec
 * total energy  :   -13.1285807 Eh     change       -0.1240372E-02 Eh
   gradient norm :     0.0416401 Eh/α   predicted    -0.1337852E-02 (   7.86%)
   displ. norm   :     0.0143818 α      lambda       -0.2111050E-03
   maximum displ.:     0.0109141 α      in ANC's #6, #3, #1, ...

........................................................................
.............................. CYCLE   12 ..............................
........................................................................
   1    -13.1911278 -0.131911E+02  0.347E-02    0.93       0.0  T
   2    -13.1911275  0.353750E-06  0.269E-02    0.91       1.5  T
   3    -13.1911307 -0.318937E-05  0.128E-02    0.92       3.2  T
   4    -13.1911309 -0.228067E-06  0.566E-03    0.92       7.2  T
   5    -13.1911309 -0.254337E-07  0.111E-03    0.92      36.8  T
     SCC iter.                  ...        0 min,  0.000 sec
     gradient                   ...        0 min,  0.000 sec
 * total energy  :   -13.1287469 Eh     change       -0.1661736E-03 Eh
   gradient norm :     0.0190739 Eh/α   predicted    -0.1055749E-03 ( -36.47%)
   displ. norm   :     0.0375341 α      lambda       -0.4440771E-03
   maximum displ.:     0.0269967 α      in ANC's #6, #3, #1, ...

........................................................................
.............................. CYCLE   13 ..............................
........................................................................
   1    -13.1888066 -0.131888E+02  0.839E-02    0.93       0.0  T
   2    -13.1887958  0.107778E-04  0.871E-02    0.91       1.0  T
   3    -13.1888302 -0.344462E-04  0.209E-02    0.92       2.0  T
   4    -13.1888305 -0.231370E-06  0.667E-03    0.92       6.1  T
   5    -13.1888306 -0.104510E-06  0.178E-03    0.92      22.9  T
   6    -13.1888306 -0.384243E-08  0.915E-04    0.92      44.6  T
     SCC iter.                  ...        0 min,  0.000 sec
     gradient                   ...        0 min,  0.018 sec
 * total energy  :   -13.1290708 Eh     change       -0.3238714E-03 Eh
   gradient norm :     0.0209669 Eh/α   predicted    -0.2223539E-03 ( -31.34%)
   displ. norm   :     0.0588262 α      lambda       -0.3363002E-03
   maximum displ.:     0.0520429 α      in ANC's #3, #6, #2, ...

........................................................................
.............................. CYCLE   14 ..............................
........................................................................
   1    -13.1872922 -0.131873E+02  0.103E-01    0.93       0.0  T
   2    -13.1872849  0.726780E-05  0.107E-01    0.91       1.0  T
   3    -13.1873322 -0.473319E-04  0.300E-02    0.93       1.4  T
   4    -13.1873326 -0.346448E-06  0.159E-02    0.92       2.6  T
   5    -13.1873328 -0.234851E-06  0.311E-03    0.92      13.1  T
   6    -13.1873328 -0.162754E-07  0.118E-03    0.92      34.6  T
     SCC iter.                  ...        0 min,  0.000 sec
     gradient                   ...        0 min,  0.000 sec
 * total energy  :   -13.1292748 Eh     change       -0.2040564E-03 Eh
   gradient norm :     0.0203556 Eh/α   predicted    -0.1687346E-03 ( -17.31%)
   displ. norm   :     0.0234928 α      lambda       -0.5234854E-04
   maximum displ.:     0.0223456 α      in ANC's #3, #1, #2, ...

........................................................................
.............................. CYCLE   15 ..............................
........................................................................
   1    -13.1875507 -0.131876E+02  0.341E-02    0.92       0.0  T
   2    -13.1875524 -0.174188E-05  0.295E-02    0.93       1.4  T
   3    -13.1875550 -0.256193E-05  0.118E-02    0.93       3.5  T
   4    -13.1875550  0.568238E-08  0.939E-03    0.92       4.3  T
   5    -13.1875552 -0.151592E-06  0.157E-03    0.92      26.0  T
   6    -13.1875552 -0.422215E-08  0.423E-04    0.92      96.5  T
     SCC iter.                  ...        0 min,  0.000 sec
     gradient                   ...        0 min,  0.006 sec
 * total energy  :   -13.1293075 Eh     change       -0.3263606E-04 Eh
   gradient norm :     0.0072405 Eh/α   predicted    -0.2618855E-04 ( -19.76%)
   displ. norm   :     0.0070711 α      lambda       -0.7945895E-05
   maximum displ.:     0.0059810 α      in ANC's #3, #1, #2, ...

........................................................................
.............................. CYCLE   16 ..............................
........................................................................
   1    -13.1879505 -0.131880E+02  0.108E-02    0.92       0.0  T
   2    -13.1879508 -0.245153E-06  0.652E-03    0.93       6.3  T
   3    -13.1879508 -0.799554E-07  0.359E-03    0.92      11.4  T
   4    -13.1879508  0.204127E-07  0.214E-03    0.92      19.0  T
   5    -13.1879508 -0.249634E-07  0.583E-04    0.92      70.1  T
     SCC iter.                  ...        0 min,  0.000 sec
     gradient                   ...        0 min,  0.004 sec
 * total energy  :   -13.1293118 Eh     change       -0.4296778E-05 Eh
   gradient norm :     0.0006337 Eh/α   predicted    -0.3974946E-05 (  -7.49%)
   displ. norm   :     0.0009018 α      lambda       -0.1285232E-06
   maximum displ.:     0.0007184 α      in ANC's #6, #1, #2, ...

   *** GEOMETRY OPTIMIZATION CONVERGED AFTER 16 ITERATIONS ***

------------------------------------------------------------------------
 total energy gain   :       -15.9878170 Eh   -10032.5066 kcal/mol
 total RMSD          :         0.3254703 a0        0.1722 Å
 total power (kW/mol):     -2623.5004794 (step)********** (real)
------------------------------------------------------------------------

 ANCopt (total)                0 d,  0 h,  0 min,  0.084 sec
 optimizer setup                ...        0 min,  0.000 sec (  0.066%)
 model hessian                  ...        0 min,  0.000 sec (  0.104%)
 ANC generation                 ...        0 min,  0.000 sec (  0.076%)
 coordinate transformation      ...        0 min,  0.000 sec (  0.095%)
 single point calculation       ...        0 min,  0.082 sec ( 97.719%)
 optimization log               ...        0 min,  0.001 sec (  0.675%)
 hessian update                 ...        0 min,  0.000 sec (  0.092%)
 rational function              ...        0 min,  0.000 sec (  0.573%)

================
 final structure:
================
6
 xtb: 6.2.3 (830e466)
F        -2.94045774661309   -0.16916067879893    0.05554481187763
Cl        2.15999852723873    0.13503491261337   -0.02927882123847
C        -0.94541900657159   -0.05774128653550    0.01484818958890
H        -0.78759348346981   -0.62836046373145   -0.87733231889569
H        -0.76093401563882   -0.52843172692289    0.95851281724979
H        -0.86851427494531    1.00858924337540   -0.04359467858227
 
 Bond Distances (Angstroems)
 ---------------------------
C3-H4=1.0707         C3-H5=1.0706         C3-H6=1.0707         H4-C3=1.0707         H5-C3=1.0706         H6-C3=1.0707         
 C  H  Rav=1.0707 sigma=0.0001  Rmin=1.0706  Rmax=1.0707     3
 
 selected bond angles (degree)
 --------------------
H5-C3-H4=118.34                H6-C3-H4=118.34                H6-C3-H5=118.27                
 
 selected dihedral angles (degree)
 ---------------------------------

 
 CMA Distance (Angstroems)
 ---------------------------
R(CMA):  4.1920
           -------------------------------------------------
          |                Final Singlepoint                |
           -------------------------------------------------

          ...................................................
          :                      SETUP                      :
          :.................................................:
          :  # basis functions                  21          :
          :  # atomic orbitals                  20          :
          :  # shells                           10          :
          :  # electrons                        22          :
          :  max. iterations                   250          :
          :  Hamiltonian                  GFN2-xTB          :
          :  restarted?                      false          :
          :  GBSA solvation                  false          :
          :  PC potential                    false          :
          :  electronic temp.          300.0000000     K    :
          :  accuracy                    1.0000000          :
          :  -> integral cutoff          0.2500000E+02      :
          :  -> integral neglect         0.1000000E-07      :
          :  -> SCF convergence          0.1000000E-05 Eh   :
          :  -> wf. convergence          0.1000000E-03 e    :
          :  Broyden damping             0.4000000          :
          ...................................................

 iter      E             dE          RMSdq      gap      omega  full diag
   1    -13.1879509 -0.131880E+02  0.238E-04    0.92       0.0  T
   2    -13.1879509 -0.304112E-11  0.150E-04    0.92     272.6  T
   3    -13.1879509 -0.418687E-11  0.336E-05    0.92    1214.1  T

   *** convergence criteria satisfied after 3 iterations ***

         #    Occupation            Energy/Eh            Energy/eV
      -------------------------------------------------------------
         1        2.0000           -0.8126555             -22.1135
       ...           ...                  ...                  ...
         5        2.0000           -0.3669138              -9.9842
         6        2.0000           -0.3081677              -8.3857
         7        2.0000           -0.2784178              -7.5761
         8        2.0000           -0.2784102              -7.5759
         9        2.0000           -0.2080902              -5.6624
        10        2.0000           -0.2043947              -5.5619
        11        2.0000           -0.2043936              -5.5618 (HOMO)
        12                         -0.1704210              -4.6374 (LUMO)
        13                          0.2515482               6.8450
        14                          0.3058767               8.3233
        15                          0.3058815               8.3235
        16                          0.3059718               8.3259
       ...                                ...                  ...
        20                          0.3962894              10.7836
      -------------------------------------------------------------
                  HL-Gap            0.0339726 Eh            0.9244 eV
             Fermi-level           -0.1870735 Eh           -5.0905 eV

 SCC (total)                   0 d,  0 h,  0 min,  0.001 sec
 SCC setup                      ...        0 min,  0.000 sec (  5.117%)
 Dispersion                     ...        0 min,  0.000 sec (  1.084%)
 integral evaluation            ...        0 min,  0.000 sec ( 29.360%)
 zeroth order Hamiltonian       ...        0 min,  0.000 sec (  1.264%)
 iterations                     ...        0 min,  0.000 sec ( 25.246%)
 molecular gradient             ...        0 min,  0.000 sec ( 31.808%)
 printout                       ...        0 min,  0.000 sec (  4.295%)

         :::::::::::::::::::::::::::::::::::::::::::::::::::::
         ::                     SUMMARY                     ::
         :::::::::::::::::::::::::::::::::::::::::::::::::::::
         :: total energy             -13.129311758486 Eh    ::
         :: gradient norm              0.000632518208 Eh/a0 ::
         :: HOMO-LUMO gap              0.924440437027 eV    ::
         ::.................................................::
         :: SCC energy               -13.187950850144 Eh    ::
         :: -> isotropic ES            0.168585596917 Eh    ::
         :: -> anisotropic ES         -0.001390439786 Eh    ::
         :: -> anisotropic XC          0.005261852770 Eh    ::
         :: -> dispersion             -0.001796086950 Eh    ::
         :: repulsion energy           0.058562980138 Eh    ::
         :: add. restraining           0.000076884658 Eh    ::
         :::::::::::::::::::::::::::::::::::::::::::::::::::::

           -------------------------------------------------
          |                Property Printout                |
           -------------------------------------------------

    * Orbital Energies and Occupations

         #    Occupation            Energy/Eh            Energy/eV
      -------------------------------------------------------------
         1        2.0000           -0.8126555             -22.1135
         2        2.0000           -0.5709595             -15.5366
         3        2.0000           -0.4623316             -12.5807
         4        2.0000           -0.3670627              -9.9883
         5        2.0000           -0.3669138              -9.9842
         6        2.0000           -0.3081677              -8.3857
         7        2.0000           -0.2784178              -7.5761
         8        2.0000           -0.2784102              -7.5759
         9        2.0000           -0.2080902              -5.6624
        10        2.0000           -0.2043947              -5.5619
        11        2.0000           -0.2043936              -5.5618 (HOMO)
        12                         -0.1704210              -4.6374 (LUMO)
        13                          0.2515482               6.8450
        14                          0.3058767               8.3233
        15                          0.3058815               8.3235
        16                          0.3059718               8.3259
        17                          0.3069249               8.3519
        18                          0.3069251               8.3519
        19                          0.3960716              10.7777
        20                          0.3962894              10.7836
      -------------------------------------------------------------
                  HL-Gap            0.0339726 Eh            0.9244 eV
             Fermi-level           -0.1870735 Eh           -5.0905 eV

     #   Z        covCN         q      C6AA      α(0)
     1   9 F      0.159    -0.465    14.827     4.488
     2  17 Cl     0.000    -0.855   121.201    16.755
     3   6 C      2.939     0.008    27.843     8.654
     4   1 H      0.926     0.104     1.749     2.068
     5   1 H      0.926     0.104     1.745     2.066
     6   1 H      0.926     0.105     1.744     2.065

 Mol. C6AA /au·bohr⁶  :        574.405278
 Mol. C8AA /au·bohr⁸  :      16545.942810
 Mol. α(0) /au        :         36.095447


Wiberg/Mayer (AO) data.
largest (>0.10) Wiberg bond orders for each atom
          total WBO             WBO to atom ...
     1  F   0.784        C    3 0.703
     2  Cl  0.268        C    3 0.190
     3  C   3.853        H    4 0.987    H    5 0.987    H    6 0.987    F    1 0.703    Cl   2 0.190
     4  H   0.989        C    3 0.987
     5  H   0.989        C    3 0.987
     6  H   0.989        C    3 0.987

molecular dipole:
                 x           y           z       tot (Debye)
 q only:       -1.396      -0.099       0.007
   full:       -1.207      -0.088       0.003       3.076
molecular quadrupole (traceless):
                xx          xy          yy          xz          yz          zz
 q only:      -28.443      -2.564      14.151       0.694       0.041      14.292
  q+dip:      -29.465      -2.648      14.659       0.727       0.044      14.805
   full:      -28.690      -2.579      14.274       0.707       0.042      14.416

           -------------------------------------------------
          |                Geometry Summary                 |
           -------------------------------------------------

      molecular mass/u    :       69.4858989
   center of mass at/Å    :        0.0996300       0.0105159       0.0033599
  moments of inertia/u·Å² :        0.3408268E+01   0.3447057E+03   0.3447089E+03
rotational constants/cm⁻¹ :        0.4946099E+01   0.4890442E-01   0.4890397E-01

 * 3 selected distances

     #   Z        #   Z                                     value/Å
     3   6 C      4   1 H                                 1.0707480 (max)
     3   6 C      5   1 H                                 1.0705546 (min)
     3   6 C      6   1 H                                 1.0706964

 * 1 distinct bonds (by element types)

   Z      Z             #   av. dist./Å        max./Å        min./Å
   1 H    6 C           3     1.0706663     1.0707480     1.0705546


optimized geometry written to: xtbopt.xyz


           -------------------------------------------------
          | TOTAL ENERGY              -13.129311758486 Eh   |
          | GRADIENT NORM               0.000632518208 Eh/α |
          | HOMO-LUMO GAP               0.924440437027 eV   |
           -------------------------------------------------

------------------------------------------------------------------------
 * finished run on 2020/04/08 at 13:05:40.105     
------------------------------------------------------------------------
 total:
 * wall-time:     0 d,  0 h,  0 min,  0.130 sec
 *  cpu-time:     0 d,  0 h,  0 min,  0.101 sec
 * ratio c/w:     0.774 speedup
 SCF:
 * wall-time:     0 d,  0 h,  0 min,  0.003 sec
 *  cpu-time:     0 d,  0 h,  0 min,  0.004 sec
 * ratio c/w:     1.716 speedup
 ANC optimizer:
 * wall-time:     0 d,  0 h,  0 min,  0.088 sec
 *  cpu-time:     0 d,  0 h,  0 min,  0.071 sec
 * ratio c/w:     0.806 speedup

