      -----------------------------------------------------------      
     |                   =====================                   |     
     |                           x T B                           |     
     |                   =====================                   |     
     |                         S. Grimme                         |     
     |          Mulliken Center for Theoretical Chemistry        |     
     |                    University of Bonn                     |     
      -----------------------------------------------------------      

   * xtb version 6.2.3 (830e466) compiled by 'ehlert@majestix' on 2020-03-16

   xtb is free software: you can redistribute it and/or modify it under
   the terms of the GNU Lesser General Public License as published by
   the Free Software Foundation, either version 3 of the License, or
   (at your option) any later version.
   
   xtb is distributed in the hope that it will be useful,
   but WITHOUT ANY WARRANTY; without even the implied warranty of
   MERCHANTABILITY or FITNESS FOR A PARTICULAR PURPOSE.  See the
   GNU Lesser General Public License for more details.
   
   Cite this work as:
   * S. Grimme, C. Bannwarth, P. Shushkov, J. Chem. Theory Comput., 2017,
     13, 1989-2009. DOI: 10.1021/acs.jctc.7b00118
   * C. Bannwarth, S. Ehlert and S. Grimme., J. Chem. Theory Comput., 2019,
     15, 1652-1671. DOI: 10.1021/acs.jctc.8b01176
   * P. Pracht, E. Caldeweyher, S. Ehlert, S. Grimme, ChemRxiv, 2019, preprint.
     DOI: 10.26434/chemrxiv.8326202.v1
   
   for DFT-D4:
   * E. Caldeweyher, C. Bannwarth and S. Grimme, J. Chem. Phys., 2017,
     147, 034112. DOI: 10.1063/1.4993215
   * E. Caldeweyher, S. Ehlert, A. Hansen, H. Neugebauer, S. Spicher,
     C. Bannwarth and S. Grimme, J. Chem. Phys., 2019, 150, 154122.
     DOI: 10.1063/1.5090222
   
   for sTDA-xTB:
   * S. Grimme and C. Bannwarth, J. Chem. Phys., 2016, 145, 054103.
     DOI: 10.1063/1.4959605
   
   in the mass-spec context:
   * V. Asgeirsson, C. Bauer and S. Grimme, Chem. Sci., 2017, 8, 4879.
     DOI: 10.1039/c7sc00601b
   
   for metadynamics refer to:
   * S. Grimme, J. Chem. Theory Comput., 2019, 155, 2847-2862
     DOI: 10.1021/acs.jctc.9b00143
   
   with help from (in alphabetical order)
   C. Bannwarth, F. Bohle, G. Brandenburg, E. Caldeweyher, M. Checinski,
   S. Dohm, S. Ehlert, S. Ehrlich, F. März, H. Neugebauer, J. Pisarek,
   P. Pracht, P. Shushkov, and S. Spicher.
   
 * started run on 2020/04/08 at 23:04:51.125     

           -------------------------------------------------
          |                Calculation Setup                |
           -------------------------------------------------

          program call               : /home/tom/.local/bin/xtb SN2_PES_scan_2-7_xtb.xyz --chrg -1 --opt --input xcontrol_SN2_PES_scan_2-7
          coordinate file            : SN2_PES_scan_2-7_xtb.xyz
          omp threads                :                     1
          number of atoms            :                     6
          number of electrons        :                    22
          charge                     :                    -1
          spin                       :                   0.0
          first test random number   :      0.63683431974189

constraining bond 1 3 to    3.4050000 Å, actual value:    3.7049964 Å
constraining bond 2 3 to    3.8830000 Å, actual value:    3.5828372 Å

molecular fragmentation (1/2 indicates fragments):
122222
# atoms in fragment 1/2:     1     5
 fragment masses (1/2) :       19.00       50.49
CMA distance (Bohr)    :  11.757
constraining FC (au)   : 10.0000
########################################################################
[WARNING] Please study the warnings concerning your input carefully
-2- prog_main: XTBPATH is not set, using XTBHOME instead
-1- prog_main: XTBHOME is not set, using HOME instead
########################################################################
           ------------------------------------------------- 
          |                 G F N 2 - x T B                 |
          | Geometry, Frequencies, Noncovalent interactions |
          |            JCTC 2019 parametrisation            |
           ------------------------------------------------- 
             k(s)              :                1.8500
             k(p)              :                2.2300
             k(d)              :                2.2300
             k(f)              :                2.0000
             kEN (H0ij)        :               -2.0000
             D4 a1             :                0.5200
             D4 a2             :                5.0000
             D4 s6             :                1.0000
             D4 s8             :                2.7000
             D4 s9             :                5.0000
             alphaj            :                2.0000

  Z AO/shell   Hii/eV     exponent
  1     Wed Apr 25 08:07:45 CEST 2018   EN: 2.200 GM2: 0.406  GM3: 0.0800  RAES: 1.40
     1s    -10.707211    1.230000
  6     Wed Apr 25 08:07:45 CEST 2018   EN: 2.550 GM2: 0.538  GM3: 0.1500  RAES: 3.00
     2s    -13.970922    2.096432
     2p    -10.063292    1.800000
  9     Mon Apr 23 13:58:50 CEST 2018   EN: 3.980 GM2: 0.532  GM3: 0.1426  RAES: 2.40
     2s    -23.458179    2.416361
     2p    -15.746583    2.308399
 17     Mon Apr 23 14:09:22 CEST 2018   EN: 3.160 GM2: 0.249  GM3: 0.1495  RAES: 2.50
     3s    -29.278781    2.485265
     3p    -12.673758    2.199650
     3d     -0.240338    2.476089

           ------------------------------------------------- 
          |        Self-Consistent Charge Iterations        |
           ------------------------------------------------- 

          ...................................................
          :                      SETUP                      :
          :.................................................:
          :  # basis functions                  21          :
          :  # atomic orbitals                  20          :
          :  # shells                           10          :
          :  # electrons                        22          :
          :  max. iterations                   250          :
          :  Hamiltonian                  GFN2-xTB          :
          :  restarted?                      false          :
          :  GBSA solvation                  false          :
          :  PC potential                    false          :
          :  electronic temp.          300.0000000     K    :
          :  accuracy                    1.0000000          :
          :  -> integral cutoff          0.2500000E+02      :
          :  -> integral neglect         0.1000000E-07      :
          :  -> SCF convergence          0.1000000E-05 Eh   :
          :  -> wf. convergence          0.1000000E-03 e    :
          :  Broyden damping             0.4000000          :
          ...................................................

 iter      E             dE          RMSdq      gap      omega  full diag
   1    -12.8057840 -0.128058E+02  0.105E+01    1.20       0.0  T
   2    -12.1113517  0.694432E+00  0.106E+01    0.00       1.0  T
   3    -12.6911950 -0.579843E+00  0.799E+00    0.05       1.0  T
   4    -12.8492580 -0.158063E+00  0.815E+00    1.65       1.0  T
   5    -12.4826679  0.366590E+00  0.996E+00    0.00       1.0  T
   6    -12.4955984 -0.129305E-01  0.981E+00    0.00       1.0  T
   7    -12.2303935  0.265205E+00  0.103E+01    0.00       1.0  T
   8    -12.2380718 -0.767833E-02  0.968E+00    0.00       1.0  T
   9    -12.2342333  0.383856E-02  0.100E+01    0.00       1.0  T
  10    -12.2312317  0.300154E-02  0.104E+01    0.00       1.0  T
  11    -12.2313870 -0.155214E-03  0.104E+01    0.00       1.0  T
  12    -12.8842195 -0.652833E+00  0.645E+00    1.23       1.0  T
  13    -12.2149112  0.669308E+00  0.113E+01    0.00       1.0  T
  14    -12.2296589 -0.147477E-01  0.998E+00    0.00       1.0  T
  15    -12.9306756 -0.701017E+00  0.576E+00    0.40       1.0  T
  16    -12.9985104 -0.678348E-01  0.448E+00    0.24       1.0  T
  17    -13.0512028 -0.526924E-01  0.370E+00    0.13       1.0  T
  18    -12.2167957  0.834407E+00  0.103E+01    0.00       1.0  T
  19    -12.5162879 -0.299492E+00  0.103E+01    0.01       1.0  T
  20    -12.1925231  0.323765E+00  0.122E+01    0.00       1.0  T
  21    -12.2045506 -0.120275E-01  0.110E+01    0.00       1.0  T
  22    -12.2015206  0.302998E-02  0.114E+01    0.00       1.0  T
  23    -12.2144273 -0.129067E-01  0.107E+01    0.00       1.0  T
  24    -12.2402127 -0.257854E-01  0.954E+00    0.00       1.0  T
  25    -12.9356798 -0.695467E+00  0.572E+00    0.39       1.0  T
  26    -12.2921927  0.643487E+00  0.915E+00    0.00       1.0  T
  27    -12.8895943 -0.597402E+00  0.643E+00    0.92       1.0  T
  28    -12.2299207  0.659674E+00  0.979E+00    0.00       1.0  T
  29    -12.9346711 -0.704750E+00  0.590E+00    0.35       1.0  T
  30    -12.8312313  0.103440E+00  0.812E+00    0.07       1.0  T
  31    -12.9282457 -0.970144E-01  0.582E+00    0.40       1.0  T
  32    -12.9046991  0.235466E-01  0.604E+00    0.67       1.0  T
  33    -12.9056516 -0.952546E-03  0.599E+00    0.68       1.0  T
  34    -12.9057706 -0.118924E-03  0.598E+00    0.68       1.0  T
  35    -12.9096014 -0.383082E-02  0.584E+00    0.52       1.0  T
  36    -12.9128295 -0.322809E-02  0.577E+00    0.62       1.0  T
  37    -12.9219572 -0.912775E-02  0.564E+00    0.50       1.0  T
  38    -12.9223680 -0.410735E-03  0.567E+00    0.48       1.0  T
  39    -12.9223049  0.630277E-04  0.571E+00    0.47       1.0  T
  40    -12.9262743 -0.396933E-02  0.567E+00    0.44       1.0  T
  41    -12.9424392 -0.161650E-01  0.544E+00    0.36       1.0  T
  42    -12.9660635 -0.236243E-01  0.505E+00    0.28       1.0  T
  43    -12.9812099 -0.151464E-01  0.475E+00    0.25       1.0  T
  44    -12.9983990 -0.171891E-01  0.430E+00    0.23       1.0  T
  45    -13.0104111 -0.120121E-01  0.389E+00    0.21       1.0  T
  46    -12.2247652  0.785646E+00  0.975E+00    0.00       1.0  T
  47    -12.4974521 -0.272687E+00  0.103E+01    0.00       1.0  T
  48    -12.2094452  0.288007E+00  0.116E+01    0.00       1.0  T
  49    -12.8829259 -0.673481E+00  0.690E+00    0.66       1.0  T
  50    -12.9016506 -0.187247E-01  0.633E+00    0.57       1.0  T
  51    -13.0055125 -0.103862E+00  0.403E+00    0.22       1.0  T
  52    -12.2245581  0.780954E+00  0.971E+00    0.00       1.0  T
  53    -12.6466422 -0.422084E+00  0.922E+00    0.04       1.0  T
  54    -12.2298033  0.416839E+00  0.103E+01    0.00       1.0  T
  55    -12.8389878 -0.609184E+00  0.809E+00    1.10       1.0  T
  56    -12.8803527 -0.413649E-01  0.690E+00    0.74       1.0  T
  57    -12.9407207 -0.603681E-01  0.538E+00    0.38       1.0  T
  58    -12.2374933  0.703227E+00  0.960E+00    0.00       1.0  T
  59    -12.9528105 -0.715317E+00  0.653E+00    0.09       1.0  T
  60    -12.9064469  0.463636E-01  0.580E+00    0.51       1.0  T
  61    -12.9798905 -0.734436E-01  0.447E+00    0.27       1.0  T
  62    -12.2202857  0.759605E+00  0.985E+00    0.00       1.0  T
  63    -12.9942724 -0.773987E+00  0.554E+00    0.10       1.0  T
  64    -12.9080639  0.862085E-01  0.583E+00    0.67       1.0  T
  65    -13.0630746 -0.155011E+00  0.244E+00    0.14       1.0  T
  66    -12.2225632  0.840511E+00  0.991E+00    0.00       1.0  T
  67    -12.9436342 -0.721071E+00  0.589E+00    0.32       1.0  T
  68    -12.8775744  0.660598E-01  0.599E+00    0.05       1.0  T
  69    -12.2301774  0.647397E+00  0.100E+01    0.00       1.0  T
  70    -12.8553404 -0.625163E+00  0.762E+00    0.94       1.0  T
  71    -12.9217205 -0.663801E-01  0.589E+00    0.44       1.0  T
  72    -12.9527882 -0.310676E-01  0.474E+00    0.07       1.0  T
  73    -12.2269475  0.725841E+00  0.101E+01    0.00       1.0  T
  74    -12.8697296 -0.642782E+00  0.720E+00    0.80       1.0  T
  75    -12.9624196 -0.926900E-01  0.502E+00    0.30       1.0  T
  76    -12.6783501  0.284070E+00  0.754E+00    0.00       1.0  T
  77    -12.9377171 -0.259367E+00  0.558E+00    0.37       1.0  T
  78    -12.8636582  0.740589E-01  0.612E+00    0.05       1.0  T
  79    -12.2305910  0.633067E+00  0.998E+00    0.00       1.0  T
  80    -12.8579112 -0.627320E+00  0.752E+00    0.94       1.0  T
  81    -12.9282490 -0.703378E-01  0.570E+00    0.42       1.0  T
  82    -12.4384280  0.489821E+00  0.855E+00    0.00       1.0  T
  83    -13.0161999 -0.577772E+00  0.465E+00    0.20       1.0  T
  84    -13.0207102 -0.451029E-02  0.380E+00    0.09       1.0  T
  85    -12.2441081  0.776602E+00  0.950E+00    0.00       1.0  T
  86    -12.8779911 -0.633883E+00  0.717E+00    0.62       1.0  T
  87    -13.0379421 -0.159951E+00  0.351E+00    0.17       1.0  T
  88    -13.0471543 -0.921218E-02  0.291E+00    0.15       1.0  T
  89    -12.2231980  0.823956E+00  0.984E+00    0.00       1.0  T
  90    -12.9851162 -0.761918E+00  0.520E+00    0.24       1.0  T
  91    -12.9765052  0.861098E-02  0.453E+00    0.07       1.0  T
  92    -12.2417389  0.734766E+00  0.952E+00    0.00       1.0  T
  93    -12.8662091 -0.624470E+00  0.744E+00    0.73       1.0  T
  94    -12.9753553 -0.109146E+00  0.484E+00    0.26       1.0  T
  95    -12.9523669  0.229884E-01  0.473E+00    0.07       1.0  T
  96    -12.2303434  0.722024E+00  0.981E+00    0.00       1.0  T
  97    -12.8716967 -0.641353E+00  0.720E+00    0.75       1.0  T
  98    -12.9650615 -0.933648E-01  0.494E+00    0.29       1.0  T
  99    -12.2284197  0.736642E+00  0.965E+00    0.00       1.0  T
 100    -13.0442941 -0.815874E+00  0.438E+00    0.12       1.0  T
 101    -12.9385961  0.105698E+00  0.544E+00    0.38       1.0  T
 102    -13.0020929 -0.634967E-01  0.386E+00    0.08       1.0  T
 103    -12.2297197  0.772373E+00  0.975E+00    0.00       1.0  T
 104    -12.8842731 -0.654553E+00  0.692E+00    0.61       1.0  T
 105    -13.0193790 -0.135106E+00  0.381E+00    0.20       1.0  T
 106    -13.0116567  0.772229E-02  0.367E+00    0.04       1.0  T
 107    -13.0245400 -0.128833E-01  0.368E+00    0.19       1.0  T
 108    -12.3124270  0.712113E+00  0.916E+00    0.00       1.0  T
 109    -13.0336433 -0.721216E+00  0.425E+00    0.17       1.0  T
 110    -13.0453677 -0.117244E-01  0.324E+00    0.15       1.0  T
 111    -13.0195034  0.258643E-01  0.361E+00    0.20       1.0  T
 112    -12.2208873  0.798616E+00  0.991E+00    0.00       1.0  T
 113    -13.0459367 -0.825049E+00  0.386E+00    0.12       1.0  T
 114    -12.9383579  0.107579E+00  0.540E+00    0.38       1.0  T
 115    -12.9595571 -0.211993E-01  0.461E+00    0.04       1.0  T
 116    -12.9901341 -0.305769E-01  0.445E+00    0.24       1.0  T
 117    -12.9552412  0.348928E-01  0.467E+00    0.07       1.0  T
 118    -12.2298061  0.725435E+00  0.981E+00    0.00       1.0  T
 119    -12.8800521 -0.650246E+00  0.697E+00    0.68       1.0  T
 120    -12.9669031 -0.868510E-01  0.489E+00    0.29       1.0  T
 121    -12.8437450  0.123158E+00  0.586E+00    0.02       1.0  T
 122    -13.0003239 -0.156579E+00  0.432E+00    0.22       1.0  T
 123    -13.0158269 -0.155030E-01  0.358E+00    0.09       1.0  T
 124    -12.2295122  0.786315E+00  0.972E+00    0.00       1.0  T
 125    -12.8961282 -0.666616E+00  0.666E+00    0.53       1.0  T
 126    -13.0337746 -0.137646E+00  0.344E+00    0.17       1.0  T
 127    -13.0706707 -0.368961E-01  0.231E+00    0.15       1.0  T
 128    -12.2226947  0.847976E+00  0.988E+00    0.00       1.0  T
 129    -13.0233072 -0.800613E+00  0.422E+00    0.19       1.0  T
 130    -13.0519200 -0.286128E-01  0.295E+00    0.14       1.0  T
 131    -13.0926471 -0.407271E-01  0.164E+00    0.07       1.0  T
 132    -13.0492709  0.433762E-01  0.287E+00    0.11       1.0  T
 133    -12.2296814  0.819590E+00  0.965E+00    0.00       1.0  T
 134    -12.9216441 -0.691963E+00  0.620E+00    0.39       1.0  T
 135    -13.0358249 -0.114181E+00  0.332E+00    0.10       1.0  T
 136    -12.9370778  0.987472E-01  0.534E+00    0.33       1.0  T
 137    -12.2217202  0.715358E+00  0.991E+00    0.00       1.0  T
 138    -13.0453817 -0.823662E+00  0.377E+00    0.15       1.0  T
 139    -13.0079425  0.374393E-01  0.407E+00    0.21       1.0  T
 140    -13.0561341 -0.481917E-01  0.271E+00    0.10       1.0  T
 141    -12.2267240  0.829410E+00  0.979E+00    0.00       1.0  T
 142    -12.9216697 -0.694946E+00  0.612E+00    0.40       1.0  T
 143    -13.0520075 -0.130338E+00  0.291E+00    0.12       1.0  T
 144    -12.9853438  0.666637E-01  0.450E+00    0.22       1.0  T
 145    -12.2209067  0.764437E+00  0.992E+00    0.00       1.0  T
 146    -13.0362153 -0.815309E+00  0.391E+00    0.11       1.0  T
 147    -12.9357765  0.100439E+00  0.544E+00    0.40       1.0  T
 148    -13.1038999 -0.168123E+00  0.140E+00    0.12       1.0  T
 149    -12.2268588  0.877041E+00  0.970E+00    0.00       1.0  T
 150    -12.9834660 -0.756607E+00  0.504E+00    0.24       1.0  T
 151    -13.0024599 -0.189939E-01  0.404E+00    0.08       1.0  T
 152    -12.9256123  0.768476E-01  0.554E+00    0.36       1.0  T
 153    -12.2246712  0.700941E+00  0.980E+00    0.00       1.0  T
 154    -12.9857516 -0.761080E+00  0.497E+00    0.24       1.0  T
 155    -13.0234580 -0.377064E-01  0.363E+00    0.09       1.0  T
 156    -12.9400404  0.834176E-01  0.529E+00    0.30       1.0  T
 157    -12.2231749  0.716865E+00  0.985E+00    0.00       1.0  T
 158    -13.0279544 -0.804779E+00  0.411E+00    0.18       1.0  T
 159    -13.0504839 -0.225295E-01  0.303E+00    0.14       1.0  T
 160    -13.0284657  0.220182E-01  0.351E+00    0.21       1.0  T
 161    -12.2215209  0.806945E+00  0.989E+00    0.00       1.0  T
 162    -13.0354944 -0.813974E+00  0.386E+00    0.10       1.0  T
 163    -12.9394829  0.960115E-01  0.536E+00    0.38       1.0  T
 164    -13.1179885 -0.178506E+00  0.691E-01    0.10       1.0  T
 165    -12.2445249  0.873464E+00  0.953E+00    0.00       1.0  T
 166    -13.0084190 -0.763894E+00  0.459E+00    0.20       1.0  T
 167    -13.0282920 -0.198730E-01  0.355E+00    0.09       1.0  T
 168    -12.9364173  0.918747E-01  0.534E+00    0.42       1.0  T
 169    -12.2247462  0.711671E+00  0.977E+00    0.00       1.0  T
 170    -13.0243164 -0.799570E+00  0.424E+00    0.18       1.0  T
 171    -13.0498771 -0.255607E-01  0.307E+00    0.14       1.0  T
 172    -13.0125446  0.373325E-01  0.377E+00    0.21       1.0  T
 173    -12.2228072  0.789737E+00  0.983E+00    0.00       1.0  T
 174    -13.0474201 -0.824613E+00  0.363E+00    0.12       1.0  T
 175    -12.9564006  0.910196E-01  0.506E+00    0.32       1.0  T
 176    -13.0918595 -0.135459E+00  0.174E+00    0.12       1.0  T
 177    -12.2259326  0.865927E+00  0.975E+00    0.00       1.0  T
 178    -12.9798223 -0.753890E+00  0.503E+00    0.25       1.0  T
 179    -13.0434944 -0.636721E-01  0.314E+00    0.10       1.0  T
 180    -12.9584109  0.850835E-01  0.494E+00    0.31       1.0  T
 181    -12.2231021  0.735309E+00  0.983E+00    0.00       1.0  T
 182    -13.0496736 -0.826571E+00  0.360E+00    0.14       1.0  T
 183    -12.9976849  0.519887E-01  0.427E+00    0.23       1.0  T
 184    -13.0533099 -0.556250E-01  0.260E+00    0.11       1.0  T
 185    -12.2259855  0.827324E+00  0.977E+00    0.00       1.0  T
 186    -12.9594215 -0.733436E+00  0.538E+00    0.29       1.0  T
 187    -13.0536020 -0.941805E-01  0.286E+00    0.13       1.0  T
 188    -13.0147288  0.388732E-01  0.387E+00    0.21       1.0  T
 189    -12.2222948  0.792434E+00  0.985E+00    0.00       1.0  T
 190    -13.0454047 -0.823110E+00  0.360E+00    0.11       1.0  T
 191    -12.9596293  0.857755E-01  0.499E+00    0.31       1.0  T
 192    -13.0615987 -0.101969E+00  0.241E+00    0.13       1.0  T
 193    -12.2253959  0.836203E+00  0.977E+00    0.00       1.0  T
 194    -12.9851704 -0.759775E+00  0.488E+00    0.24       1.0  T
 195    -13.0526807 -0.675103E-01  0.288E+00    0.12       1.0  T
 196    -13.0177586  0.349222E-01  0.388E+00    0.19       1.0  T
 197    -12.2228616  0.794897E+00  0.983E+00    0.00       1.0  T
 198    -13.0508852 -0.828024E+00  0.348E+00    0.13       1.0  T
 199    -12.9816160  0.692692E-01  0.458E+00    0.26       1.0  T
 200    -13.0552967 -0.736807E-01  0.255E+00    0.12       1.0  T
 201    -12.2259799  0.829317E+00  0.976E+00    0.00       1.0  T
 202    -12.9708149 -0.744835E+00  0.515E+00    0.26       1.0  T
 203    -13.0535837 -0.827688E-01  0.286E+00    0.13       1.0  T
 204    -13.0174023  0.361814E-01  0.379E+00    0.21       1.0  T
 205    -12.2226296  0.794773E+00  0.984E+00    0.00       1.0  T
 206    -13.0495277 -0.826898E+00  0.346E+00    0.12       1.0  T
 207    -12.9747497  0.747780E-01  0.470E+00    0.27       1.0  T
 208    -13.0593357 -0.845860E-01  0.245E+00    0.12       1.0  T
 209    -12.2254891  0.833847E+00  0.977E+00    0.00       1.0  T
 210    -12.9816463 -0.756157E+00  0.492E+00    0.25       1.0  T
 211    -13.0536001 -0.719538E-01  0.285E+00    0.13       1.0  T
 212    -13.0225841  0.310159E-01  0.371E+00    0.20       1.0  T
 213    -12.2228815  0.799703E+00  0.983E+00    0.00       1.0  T
 214    -13.0509726 -0.828091E+00  0.342E+00    0.12       1.0  T
 215    -12.9846081  0.663645E-01  0.451E+00    0.25       1.0  T
 216    -13.0571356 -0.725275E-01  0.250E+00    0.12       1.0  T
 217    -12.2256265  0.831509E+00  0.977E+00    0.00       1.0  T
 218    -12.9821948 -0.756568E+00  0.490E+00    0.24       1.0  T
 219    -13.0534261 -0.712314E-01  0.286E+00    0.13       1.0  T
 220    -13.0254567  0.279694E-01  0.360E+00    0.20       1.0  T
 221    -12.2229434  0.802513E+00  0.983E+00    0.00       1.0  T
 222    -13.0514839 -0.828541E+00  0.338E+00    0.13       1.0  T
 223    -12.9897077  0.617762E-01  0.440E+00    0.24       1.0  T
 224    -13.0579777 -0.682700E-01  0.248E+00    0.12       1.0  T
 225    -12.2254367  0.832541E+00  0.977E+00    0.00       1.0  T
 226    -12.9861500 -0.760713E+00  0.481E+00    0.24       1.0  T
 227    -13.0532007 -0.670507E-01  0.286E+00    0.13       1.0  T
 228    -13.0283837  0.248170E-01  0.352E+00    0.20       1.0  T
 229    -12.2230798  0.805304E+00  0.982E+00    0.00       1.0  T
 230    -13.0518097 -0.828730E+00  0.335E+00    0.13       1.0  T
 231    -12.9967543  0.550554E-01  0.425E+00    0.23       1.0  T
 232    -13.0579411 -0.611868E-01  0.247E+00    0.13       1.0  T
 233    -12.2253301  0.832611E+00  0.977E+00    0.00       1.0  T
 234    -12.9905312 -0.765201E+00  0.471E+00    0.23       1.0  T
 235    -13.0527709 -0.622397E-01  0.287E+00    0.13       1.0  T
 236    -13.0313951  0.213759E-01  0.343E+00    0.20       1.0  T
 237    -12.2232162  0.808179E+00  0.982E+00    0.00       1.0  T
 238    -13.0516899 -0.828474E+00  0.334E+00    0.13       1.0  T
 239    -13.0039697  0.477202E-01  0.410E+00    0.22       1.0  T
 240    -13.0579187 -0.539491E-01  0.248E+00    0.13       1.0  T
 241    -12.2251860  0.832733E+00  0.978E+00    0.00       1.0  T
 242    -12.9959487 -0.770763E+00  0.460E+00    0.22       1.0  T
 243    -13.0522078 -0.562591E-01  0.289E+00    0.14       1.0  T
 244    -13.0346450  0.175628E-01  0.334E+00    0.20       1.0  T
 245    -12.2233525  0.811293E+00  0.981E+00    0.00       1.0  T
 246    -13.0510744 -0.827722E+00  0.334E+00    0.14       1.0  T
 247    -13.0109195  0.401549E-01  0.394E+00    0.21       1.0  T
 248    -13.0575250 -0.466054E-01  0.249E+00    0.13       1.0  T
 249    -12.2250401  0.832485E+00  0.978E+00    0.00       1.0  T
 250    -13.0021225 -0.777082E+00  0.446E+00    0.21       1.0  T

   *** convergence criteria cannot be satisfied within 250 iterations ***

         #    Occupation            Energy/Eh            Energy/eV
      -------------------------------------------------------------
         1        2.0000           -0.8397827             -22.8517
       ...           ...                  ...                  ...
         5        2.0000           -0.3591377              -9.7726
         6        2.0000           -0.3151410              -8.5754
         7        2.0000           -0.3151408              -8.5754
         8        2.0000           -0.3150323              -8.5725
         9        1.9984           -0.2253378              -6.1318
        10        1.9782           -0.2228489              -6.0640
        11        1.9782           -0.2228489              -6.0640 (HOMO)
        12        0.0452           -0.2149884              -5.8501 (LUMO)
        13                          0.2432569               6.6194
        14                          0.2705321               7.3616
        15                          0.2706500               7.3648
        16                          0.2706501               7.3648
       ...                                ...                  ...
        20                          0.4127329              11.2310
      -------------------------------------------------------------
                  HL-Gap            0.0078605 Eh            0.2139 eV
             Fermi-level           -0.2185666 Eh           -5.9475 eV

 SCC (total)                   0 d,  0 h,  0 min,  0.115 sec
 SCC setup                      ...        0 min,  0.000 sec (  0.053%)
 Dispersion                     ...        0 min,  0.000 sec (  0.010%)
 integral evaluation            ...        0 min,  0.001 sec (  0.560%)
 zeroth order Hamiltonian       ...        0 min,  0.000 sec (  0.011%)
 iterations                     ...        0 min,  0.114 sec ( 98.788%)
 molecular gradient             ...        0 min,  0.001 sec (  0.494%)
 printout                       ...        0 min,  0.000 sec (  0.058%)

         :::::::::::::::::::::::::::::::::::::::::::::::::::::
         ::                     SUMMARY                     ::
         :::::::::::::::::::::::::::::::::::::::::::::::::::::
         :: total energy              -6.511168511280 Eh    ::
         :: gradient norm             27.770967795520 Eh/a0 ::
         :: HOMO-LUMO gap              0.213895424205 eV    ::
         ::.................................................::
         :: SCC energy               -13.002122536890 Eh    ::
         :: -> isotropic ES            0.375236395288 Eh    ::
         :: -> anisotropic ES         -0.007762897698 Eh    ::
         :: -> anisotropic XC          0.009968266190 Eh    ::
         :: -> dispersion             -0.001420618423 Eh    ::
         :: repulsion energy           0.059717421477 Eh    ::
         :: add. restraining           6.431326252635 Eh    ::
         :::::::::::::::::::::::::::::::::::::::::::::::::::::

      ----------------------------------------------------------- 
     |                   =====================                   |
     |                        A N C O P T                        |
     |                   =====================                   |
     |               Approximate Normal Coordinate               |
     |                Rational Function Optimizer                |
      ----------------------------------------------------------- 

          ...................................................
          :                      SETUP                      :
          :.................................................:
          :   optimization level            normal          :
          :   max. optcycles                   200          :
          :   ANC micro-cycles                  20          :
          :   degrees of freedom                12          :
          :.................................................:
          :   RF solver                   davidson          :
          :   write xtbopt.log                true          :
          :   linear?                        false          :
          :   energy convergence         0.5000000E-05 Eh   :
          :   grad. convergence          0.1000000E-02 Eh/α :
          :   maximium RF displ.         1.0000000          :
          :   Hlow (freq-cutoff)         0.1000000E-01      :
          :   Hmax (freq-cutoff)         5.0000000          :
          :   S6 in model hess.         20.0000000          :
          ...................................................

generating ANC from model Hessian ...
Using Lindh-Hessian (1995)
 Shifting diagonal of input Hessian by   0.651815998114605     
 Lowest  eigenvalues of input Hessian
    0.010000    0.010012   -0.000000   -0.000000    0.000000    0.000000
    0.000000    0.000000    0.652151    0.802202    0.802205    1.047241
    1.047248    1.089486    2.055712    2.055743   20.652566   60.652885
 Highest eigenvalues
    1.047248    1.089486    2.055712    2.055743   20.652566   60.652885
 

........................................................................
.............................. CYCLE    1 ..............................
........................................................................
   1    -13.0514146 -0.130514E+02  0.291E+00    0.14       0.0  T
   2    -12.1935483  0.857866E+00  0.105E+01    0.00       1.0  T
   3    -12.9359307 -0.742382E+00  0.548E+00    0.26       1.0  T
   4    -13.1058962 -0.169966E+00  0.140E+00    0.12       1.0  T
   5    -13.1134472 -0.755098E-02  0.116E+00    0.09       1.0  T
   6    -12.8684822  0.244965E+00  0.501E+00    0.02       1.0  T
   7    -13.1069855 -0.238503E+00  0.155E+00    0.10       1.0  T
   8    -13.0041100  0.102876E+00  0.341E+00    0.04       1.0  T
   9    -13.1046350 -0.100525E+00  0.118E+00    0.07       1.0  T
  10    -12.8408859  0.263749E+00  0.536E+00    0.02       1.0  T
  11    -12.8929011 -0.520152E-01  0.486E+00    0.03       1.0  T
  12    -12.9482054 -0.553043E-01  0.426E+00    0.04       1.0  T
  13    -12.6454759  0.302729E+00  0.714E+00    0.01       1.0  T
  14    -12.6643197 -0.188438E-01  0.696E+00    0.01       1.0  T
  15    -12.9402607 -0.275941E+00  0.432E+00    0.03       1.0  T
  16    -13.1121761 -0.171915E+00  0.113E+00    0.11       1.0  T
  17    -13.0632372  0.489389E-01  0.262E+00    0.16       1.0  T
  18    -13.0616895  0.154770E-02  0.270E+00    0.17       1.0  T
  19    -13.0551800  0.650956E-02  0.285E+00    0.17       1.0  T
  20    -13.0561163 -0.936371E-03  0.275E+00    0.16       1.0  T
  21    -13.0654806 -0.936423E-02  0.238E+00    0.14       1.0  T
  22    -13.0746275 -0.914689E-02  0.226E+00    0.15       1.0  T
  23    -13.1096115 -0.349841E-01  0.104E+00    0.12       1.0  T
  24    -13.1189554 -0.934384E-02  0.184E-01    0.09       1.0  T
  25    -13.1177278  0.122759E-02  0.373E-01    0.09       1.0  T
  26    -13.1182268 -0.499003E-03  0.302E-01    0.09       1.0  T
  27    -13.1191330 -0.906246E-03  0.564E-02    0.09       1.0  T
  28    -13.1191460 -0.129741E-04  0.506E-02    0.10       1.0  T
  29    -13.1191389  0.709030E-05  0.574E-02    0.10       1.0  T
  30    -13.1191625 -0.235760E-04  0.206E-02    0.09       2.0  T
  31    -13.1191541  0.838420E-05  0.338E-02    0.09       1.2  T
  32    -13.1191602 -0.608308E-05  0.236E-02    0.09       1.7  T
  33    -13.1191654 -0.519426E-05  0.667E-03    0.09       6.1  T
  34    -13.1191657 -0.330630E-06  0.208E-03    0.10      19.6  T
  35    -13.1191657 -0.333184E-07  0.857E-04    0.10      47.6  T
  36    -13.1191657 -0.319009E-08  0.286E-04    0.10     142.7  T
     SCC iter.                  ...        0 min,  0.003 sec
     gradient                   ...        0 min,  0.001 sec
 * total energy  :    -6.6281265 Eh     change       -0.1169580E+00 Eh
   gradient norm :    27.7735629 Eh/α   predicted     0.0000000E+00 (-100.00%)
   displ. norm   :     0.9140295 α      lambda       -0.2538585E+02
   maximum displ.:     0.9140295 α      in ANC's #11, #8, #1, ...

........................................................................
.............................. CYCLE    2 ..............................
........................................................................
   1    -12.4331645 -0.124332E+02  0.834E+00    0.04       0.0  T
   2    -12.6358067 -0.202642E+00  0.930E+00    2.40       1.0  T
   3    -12.3981778  0.237629E+00  0.101E+01    0.00       1.0  T
   4    -12.8023669 -0.404189E+00  0.724E+00    0.47       1.0  T
   5    -12.3961820  0.406185E+00  0.936E+00    0.00       1.0  T
   6    -12.8863188 -0.490137E+00  0.474E+00    0.10       1.0  T
   7    -13.0180886 -0.131770E+00  0.283E+00    0.14       1.0  T
   8    -12.2661616  0.751927E+00  0.991E+00    0.01       1.0  T
   9    -12.7089293 -0.442768E+00  0.638E+00    0.08       1.0  T
  10    -12.8684880 -0.159559E+00  0.566E+00    0.48       1.0  T
  11    -13.0259953 -0.157507E+00  0.255E+00    0.15       1.0  T
  12    -12.9826803  0.433150E-01  0.371E+00    0.27       1.0  T
  13    -13.0155613 -0.328810E-01  0.293E+00    0.17       1.0  T
  14    -13.0297846 -0.142233E-01  0.249E+00    0.13       1.0  T
  15    -13.0130385  0.167461E-01  0.296E+00    0.15       1.0  T
  16    -13.0458451 -0.328066E-01  0.198E+00    0.13       1.0  T
  17    -13.0647107 -0.188656E-01  0.128E+00    0.14       1.0  T
  18    -12.8272672  0.237444E+00  0.527E+00    0.10       1.0  T
  19    -13.0329665 -0.205699E+00  0.213E+00    0.07       1.0  T
  20    -13.0471055 -0.141390E-01  0.198E+00    0.19       1.0  T
  21    -13.0678386 -0.207332E-01  0.842E-01    0.09       1.0  T
  22    -12.9829123  0.849263E-01  0.323E+00    0.13       1.0  T
  23    -13.0723568 -0.894445E-01  0.635E-01    0.12       1.0  T
  24    -12.9719323  0.100424E+00  0.344E+00    0.13       1.0  T
  25    -13.0228615 -0.509292E-01  0.248E+00    0.14       1.0  T
  26    -13.0160925  0.676901E-02  0.264E+00    0.14       1.0  T
  27    -13.0234950 -0.740251E-02  0.246E+00    0.14       1.0  T
  28    -13.0725502 -0.490551E-01  0.532E-01    0.12       1.0  T
  29    -13.0607883  0.117619E-01  0.128E+00    0.10       1.0  T
  30    -13.0339101  0.268782E-01  0.230E+00    0.09       1.0  T
  31    -13.0227302  0.111799E-01  0.270E+00    0.11       1.0  T
  32    -13.0416689 -0.189387E-01  0.203E+00    0.10       1.0  T
  33    -13.0556387 -0.139697E-01  0.154E+00    0.11       1.0  T
  34    -13.0711608 -0.155221E-01  0.582E-01    0.11       1.0  T
  35    -13.0479576  0.232032E-01  0.182E+00    0.14       1.0  T
  36    -13.0602080 -0.122504E-01  0.136E+00    0.13       1.0  T
  37    -13.0532943  0.691371E-02  0.160E+00    0.13       1.0  T
  38    -13.0730898 -0.197955E-01  0.353E-01    0.12       1.0  T
  39    -13.0692763  0.381349E-02  0.728E-01    0.10       1.0  T
  40    -13.0611891  0.808726E-02  0.123E+00    0.10       1.0  T
  41    -13.0642795 -0.309047E-02  0.108E+00    0.10       1.0  T
  42    -13.0715859 -0.730640E-02  0.498E-01    0.11       1.0  T
  43    -13.0721799 -0.593953E-03  0.515E-01    0.12       1.0  T
  44    -13.0687765  0.340342E-02  0.821E-01    0.12       1.0  T
  45    -13.0713622 -0.258579E-02  0.575E-01    0.12       1.0  T
  46    -13.0738603 -0.249801E-02  0.560E-02    0.11       1.0  T
  47    -13.0731669  0.693355E-03  0.276E-01    0.10       1.0  T
  48    -13.0732061 -0.391692E-04  0.268E-01    0.10       1.0  T
  49    -13.0736734 -0.467347E-03  0.185E-01    0.11       1.0  T
  50    -13.0729883  0.685156E-03  0.343E-01    0.11       1.0  T
  51    -13.0735433 -0.555044E-03  0.210E-01    0.11       1.0  T
  52    -13.0738195 -0.276170E-03  0.890E-02    0.11       1.0  T
  53    -13.0738548 -0.353678E-04  0.538E-02    0.11       1.0  T
  54    -13.0738639 -0.903975E-05  0.384E-02    0.11       1.1  T
  55    -13.0738693 -0.545821E-05  0.243E-02    0.11       1.7  T
  56    -13.0738723 -0.291634E-05  0.109E-02    0.11       3.7  T
  57    -13.0738725 -0.238613E-06  0.790E-03    0.11       5.2  T
  58    -13.0738728 -0.324185E-06  0.400E-03    0.11      10.2  T
  59    -13.0738728  0.648162E-07  0.480E-03    0.11       8.5  T
     SCC iter.                  ...        0 min,  0.005 sec
     gradient                   ...        0 min,  0.000 sec
 * total energy  :    -6.9372159 Eh     change       -0.3090894E+00 Eh
   gradient norm :    27.1125811 Eh/α   predicted    -0.2329723E+02 (7437.38%)
   displ. norm   :     0.3847065 α      lambda       -0.1043010E+02
   maximum displ.:     0.3846868 α      in ANC's #11, #3, #8, ...

........................................................................
.............................. CYCLE    3 ..............................
........................................................................
   1    -12.9895733 -0.129896E+02  0.407E+00    0.17       0.0  T
   2    -12.1649419  0.824631E+00  0.112E+01    0.01       1.0  T
   3    -12.3850758 -0.220134E+00  0.106E+01    0.00       1.0  T
   4    -12.2593981  0.125678E+00  0.970E+00    0.03       1.0  T
   5    -12.8996447 -0.640247E+00  0.561E+00    0.29       1.0  T
   6    -13.0362642 -0.136620E+00  0.293E+00    0.09       1.0  T
   7    -12.8809092  0.155355E+00  0.543E+00    0.04       1.0  T
   8    -12.8827237 -0.181449E-02  0.588E+00    0.43       1.0  T
   9    -12.9952511 -0.112527E+00  0.384E+00    0.14       1.0  T
  10    -13.0161426 -0.208915E-01  0.307E+00    0.06       1.0  T
  11    -12.9550196  0.611230E-01  0.469E+00    0.24       1.0  T
  12    -12.9896847 -0.346652E-01  0.413E+00    0.21       1.0  T
  13    -13.0724981 -0.828134E-01  0.219E+00    0.13       1.0  T
  14    -13.0659592  0.653890E-02  0.241E+00    0.14       1.0  T
  15    -13.0198766  0.460826E-01  0.350E+00    0.18       1.0  T
  16    -13.0641644 -0.442878E-01  0.245E+00    0.15       1.0  T
  17    -13.0649583 -0.793862E-03  0.234E+00    0.14       1.0  T
  18    -13.1004630 -0.355047E-01  0.620E-01    0.12       1.0  T
  19    -13.0920228  0.844022E-02  0.127E+00    0.12       1.0  T
  20    -13.1010533 -0.903048E-02  0.442E-01    0.11       1.0  T
  21    -13.1025867 -0.153341E-02  0.153E-01    0.11       1.0  T
  22    -13.1017678  0.818869E-03  0.323E-01    0.11       1.0  T
  23    -13.1024347 -0.666895E-03  0.204E-01    0.10       1.0  T
  24    -13.1023485  0.862218E-04  0.197E-01    0.11       1.0  T
  25    -13.1025507 -0.202193E-03  0.170E-01    0.10       1.0  T
  26    -13.1026652 -0.114532E-03  0.755E-02    0.11       1.0  T
  27    -13.1026870 -0.218186E-04  0.743E-02    0.11       1.0  T
  28    -13.1027129 -0.258635E-04  0.270E-02    0.11       1.5  T
  29    -13.1027155 -0.258293E-05  0.255E-02    0.11       1.6  T
  30    -13.1027188 -0.337168E-05  0.734E-03    0.11       5.6  T
  31    -13.1027191 -0.290598E-06  0.501E-03    0.11       8.2  T
  32    -13.1027193 -0.147675E-06  0.208E-04    0.11     196.6  T
     SCC iter.                  ...        0 min,  0.002 sec
     gradient                   ...        0 min,  0.000 sec
 * total energy  :   -12.9212626 Eh     change       -0.5984047E+01 Eh
   gradient norm :     4.0008025 Eh/α   predicted    -0.5986874E+01 (   0.05%)
   displ. norm   :     0.0695113 α      lambda       -0.2657056E+00
   maximum displ.:     0.0662606 α      in ANC's #11, #3, #8, ...

........................................................................
.............................. CYCLE    4 ..............................
........................................................................
   1    -13.0984532 -0.130985E+02  0.112E+00    0.11       0.0  T
   2    -12.2452141  0.853239E+00  0.981E+00    0.02       1.0  T
   3    -12.9673569 -0.722143E+00  0.494E+00    0.05       1.0  T
   4    -12.8538555  0.113501E+00  0.520E+00    0.06       1.0  T
   5    -13.0573473 -0.203492E+00  0.256E+00    0.12       1.0  T
   6    -13.0207362  0.366112E-01  0.353E+00    0.14       1.0  T
   7    -13.0052558  0.154804E-01  0.387E+00    0.15       1.0  T
   8    -13.0414934 -0.362376E-01  0.284E+00    0.11       1.0  T
   9    -13.0371118  0.438153E-02  0.298E+00    0.11       1.0  T
  10    -13.0490386 -0.119267E-01  0.246E+00    0.08       1.0  T
  11    -13.0536248 -0.458619E-02  0.235E+00    0.09       1.0  T
  12    -13.0912093 -0.375845E-01  0.129E+00    0.10       1.0  T
  13    -13.1012137 -0.100044E-01  0.839E-01    0.10       1.0  T
  14    -13.1084589 -0.724515E-02  0.137E-01    0.11       1.0  T
  15    -13.1069288  0.153007E-02  0.440E-01    0.11       1.0  T
  16    -13.1085333 -0.160450E-02  0.120E-01    0.10       1.0  T
  17    -13.1069864  0.154689E-02  0.421E-01    0.11       1.0  T
  18    -13.1085042 -0.151776E-02  0.138E-01    0.10       1.0  T
  19    -13.1081705  0.333639E-03  0.223E-01    0.11       1.0  T
  20    -13.1086041 -0.433517E-03  0.726E-02    0.11       1.0  T
  21    -13.1085590  0.450155E-04  0.951E-02    0.11       1.0  T
  22    -13.1086413 -0.822806E-04  0.220E-02    0.11       1.9  T
  23    -13.1086330  0.837697E-05  0.355E-02    0.11       1.1  T
  24    -13.1086449 -0.119551E-04  0.168E-03    0.11      24.3  T
  25    -13.1086419  0.303481E-05  0.186E-02    0.11       2.2  T
  26    -13.1086449 -0.301890E-05  0.208E-03    0.11      19.6  T
  27    -13.1086449  0.211089E-07  0.237E-03    0.11      17.3  T
     SCC iter.                  ...        0 min,  0.002 sec
     gradient                   ...        0 min,  0.000 sec
 * total energy  :   -13.0549721 Eh     change       -0.1337095E+00 Eh
   gradient norm :     0.0284866 Eh/α   predicted    -0.1334947E+00 (  -0.16%)
   displ. norm   :     0.0295471 α      lambda       -0.5124241E-03
   maximum displ.:     0.0242718 α      in ANC's #3, #1, #8, ...

........................................................................
.............................. CYCLE    5 ..............................
........................................................................
   1    -13.1106191 -0.131106E+02  0.224E-01    0.11       0.0  T
   2    -12.3242296  0.786390E+00  0.910E+00    0.03       1.0  T
   3    -13.0790244 -0.754795E+00  0.184E+00    0.10       1.0  T
   4    -13.1092787 -0.302544E-01  0.553E-01    0.10       1.0  T
   5    -13.1060261  0.325263E-02  0.798E-01    0.10       1.0  T
   6    -13.1044318  0.159427E-02  0.879E-01    0.10       1.0  T
   7    -13.1082979 -0.386608E-02  0.565E-01    0.10       1.0  T
   8    -13.1107936 -0.249567E-02  0.206E-01    0.11       1.0  T
   9    -13.1107059  0.876177E-04  0.218E-01    0.11       1.0  T
  10    -13.1110566 -0.350704E-03  0.107E-01    0.11       1.0  T
  11    -13.1110654 -0.878435E-05  0.109E-01    0.11       1.0  T
  12    -13.1111123 -0.468622E-04  0.627E-02    0.11       1.0  T
  13    -13.1111390 -0.266983E-04  0.109E-02    0.11       3.8  T
  14    -13.1111397 -0.680731E-06  0.308E-03    0.11      13.3  T
  15    -13.1111398 -0.956713E-07  0.719E-04    0.11      56.8  T
     SCC iter.                  ...        0 min,  0.001 sec
     gradient                   ...        0 min,  0.000 sec
 * total energy  :   -13.0554092 Eh     change       -0.4370951E-03 Eh
   gradient norm :     0.0247764 Eh/α   predicted    -0.2564337E-03 ( -41.33%)
   displ. norm   :     0.2168776 α      lambda       -0.2901227E-02
   maximum displ.:     0.1676214 α      in ANC's #3, #1, #8, ...

........................................................................
.............................. CYCLE    6 ..............................
........................................................................
   1    -13.1076418 -0.131076E+02  0.137E+00    0.09       0.0  T
   2    -12.2765759  0.831066E+00  0.973E+00    0.02       1.0  T
   3    -13.0887770 -0.812201E+00  0.247E+00    0.10       1.0  T
   4    -12.6881997  0.400577E+00  0.677E+00    0.05       1.0  T
   5    -13.0757885 -0.387589E+00  0.287E+00    0.15       1.0  T
   6    -12.4750589  0.600730E+00  0.970E+00    0.00       1.0  T
   7    -12.4704948  0.456416E-02  0.972E+00    0.00       1.0  T
   8    -13.0046378 -0.534143E+00  0.428E+00    0.16       1.0  T
   9    -13.0604606 -0.558228E-01  0.285E+00    0.09       1.0  T
  10    -13.0595789  0.881731E-03  0.289E+00    0.10       1.0  T
  11    -12.9748975  0.846814E-01  0.497E+00    0.18       1.0  T
  12    -13.0145533 -0.396558E-01  0.421E+00    0.14       1.0  T
  13    -13.0426997 -0.281465E-01  0.361E+00    0.11       1.0  T
  14    -12.9749101  0.677896E-01  0.501E+00    0.18       1.0  T
  15    -12.9579922  0.169179E-01  0.526E+00    0.20       1.0  T
  16    -12.9553099  0.268228E-02  0.529E+00    0.20       1.0  T
  17    -12.9532376  0.207227E-02  0.527E+00    0.21       1.0  T
  18    -12.9469321  0.630550E-02  0.526E+00    0.23       1.0  T
  19    -12.9655793 -0.186471E-01  0.490E+00    0.24       1.0  T
  20    -12.9715421 -0.596284E-02  0.480E+00    0.22       1.0  T
  21    -12.2926873  0.678855E+00  0.947E+00    0.01       1.0  T
  22    -13.0507097 -0.758022E+00  0.329E+00    0.08       1.0  T
  23    -12.9714044  0.793052E-01  0.506E+00    0.18       1.0  T
  24    -12.9855001 -0.140957E-01  0.458E+00    0.18       1.0  T
  25    -13.0402553 -0.547552E-01  0.288E+00    0.07       1.0  T
  26    -13.0453803 -0.512498E-02  0.323E+00    0.07       1.0  T
  27    -12.2735830  0.771797E+00  0.967E+00    0.01       1.0  T
  28    -12.9803639 -0.706781E+00  0.494E+00    0.17       1.0  T
  29    -13.0222427 -0.418787E-01  0.422E+00    0.13       1.0  T
  30    -13.0291227 -0.688002E-02  0.381E+00    0.13       1.0  T
  31    -13.0418472 -0.127245E-01  0.351E+00    0.17       1.0  T
  32    -12.4828697  0.558978E+00  0.825E+00    0.03       1.0  T
  33    -12.9964648 -0.513595E+00  0.422E+00    0.05       1.0  T
  34    -12.2780139  0.718451E+00  0.961E+00    0.01       1.0  T
  35    -12.9894296 -0.711416E+00  0.520E+00    0.16       1.0  T
  36    -13.0380885 -0.486589E-01  0.385E+00    0.12       1.0  T
  37    -13.0178547  0.202338E-01  0.402E+00    0.14       1.0  T
  38    -13.0178873 -0.326132E-04  0.394E+00    0.14       1.0  T
  39    -13.0350344 -0.171471E-01  0.353E+00    0.14       1.0  T
  40    -12.2926665  0.742368E+00  0.945E+00    0.01       1.0  T
  41    -13.0434054 -0.750739E+00  0.410E+00    0.11       1.0  T
  42    -13.0490540 -0.564860E-02  0.345E+00    0.11       1.0  T
  43    -12.4411639  0.607890E+00  0.854E+00    0.02       1.0  T
  44    -13.0558844 -0.614721E+00  0.361E+00    0.09       1.0  T
  45    -13.0170365  0.388478E-01  0.395E+00    0.15       1.0  T
  46    -13.0313933 -0.143568E-01  0.360E+00    0.13       1.0  T
  47    -12.7716597  0.259734E+00  0.608E+00    0.04       1.0  T
  48    -13.0278760 -0.256216E+00  0.359E+00    0.06       1.0  T
  49    -12.2662875  0.761589E+00  0.993E+00    0.00       1.0  T
  50    -12.8838904 -0.617603E+00  0.744E+00    0.28       1.0  T
  51    -12.9795954 -0.957050E-01  0.520E+00    0.17       1.0  T
  52    -13.0410266 -0.614312E-01  0.378E+00    0.12       1.0  T
  53    -13.0354794  0.554717E-02  0.363E+00    0.12       1.0  T
  54    -12.7486308  0.286849E+00  0.627E+00    0.04       1.0  T
  55    -13.0335703 -0.284940E+00  0.342E+00    0.06       1.0  T
  56    -12.2651508  0.768420E+00  0.998E+00    0.00       1.0  T
  57    -12.8807124 -0.615562E+00  0.759E+00    0.29       1.0  T
  58    -13.0005609 -0.119849E+00  0.495E+00    0.15       1.0  T
  59    -13.0461912 -0.456303E-01  0.365E+00    0.11       1.0  T
  60    -13.0349146  0.112767E-01  0.354E+00    0.13       1.0  T
  61    -12.3193163  0.715598E+00  0.928E+00    0.02       1.0  T
  62    -13.0486372 -0.729321E+00  0.403E+00    0.10       1.0  T
  63    -13.0470927  0.154447E-02  0.330E+00    0.11       1.0  T
  64    -12.2906432  0.756449E+00  0.948E+00    0.01       1.0  T
  65    -12.9984683 -0.707825E+00  0.536E+00    0.14       1.0  T
  66    -13.0541146 -0.556463E-01  0.340E+00    0.10       1.0  T
  67    -13.0331051  0.210095E-01  0.301E+00    0.07       1.0  T
  68    -13.0494323 -0.163271E-01  0.288E+00    0.07       1.0  T
  69    -12.2647648  0.784667E+00  0.999E+00    0.00       1.0  T
  70    -12.8847135 -0.619949E+00  0.755E+00    0.27       1.0  T
  71    -13.0132919 -0.128578E+00  0.471E+00    0.14       1.0  T
  72    -13.0478834 -0.345915E-01  0.354E+00    0.11       1.0  T
  73    -13.0514531 -0.356969E-02  0.315E+00    0.13       1.0  T
  74    -12.2715091  0.779944E+00  0.968E+00    0.01       1.0  T
  75    -12.9999006 -0.728391E+00  0.549E+00    0.14       1.0  T
  76    -13.0574653 -0.575647E-01  0.328E+00    0.09       1.0  T
  77    -12.2829690  0.774496E+00  0.954E+00    0.01       1.0  T
  78    -12.9779583 -0.694989E+00  0.578E+00    0.16       1.0  T
  79    -13.0534135 -0.754552E-01  0.346E+00    0.10       1.0  T
  80    -13.1057118 -0.522984E-01  0.177E+00    0.13       1.0  T
  81    -12.2713363  0.834376E+00  0.967E+00    0.01       1.0  T
  82    -13.0492491 -0.777913E+00  0.436E+00    0.10       1.0  T
  83    -13.0565568 -0.730770E-02  0.306E+00    0.10       1.0  T
  84    -12.2814125  0.775144E+00  0.956E+00    0.01       1.0  T
  85    -12.9750296 -0.693617E+00  0.584E+00    0.16       1.0  T
  86    -13.0510703 -0.760407E-01  0.355E+00    0.10       1.0  T
  87    -13.0401567  0.109136E-01  0.338E+00    0.13       1.0  T
  88    -12.3019448  0.738212E+00  0.940E+00    0.01       1.0  T
  89    -13.0404658 -0.738521E+00  0.438E+00    0.11       1.0  T
  90    -13.0499397 -0.947386E-02  0.325E+00    0.11       1.0  T
  91    -12.4042767  0.645663E+00  0.878E+00    0.02       1.0  T
  92    -13.0538081 -0.649531E+00  0.371E+00    0.10       1.0  T
  93    -13.0376845  0.161236E-01  0.343E+00    0.13       1.0  T
  94    -13.0505957 -0.129112E-01  0.273E+00    0.07       1.0  T
  95    -13.0492696  0.132601E-02  0.284E+00    0.07       1.0  T
  96    -12.2638285  0.785441E+00  0.100E+01    0.00       1.0  T
  97    -12.8925745 -0.628746E+00  0.743E+00    0.26       1.0  T
  98    -13.0179145 -0.125340E+00  0.459E+00    0.13       1.0  T
  99    -13.0469953 -0.290808E-01  0.350E+00    0.11       1.0  T
 100    -13.0538304 -0.683503E-02  0.306E+00    0.13       1.0  T
 101    -12.2718591  0.781971E+00  0.967E+00    0.01       1.0  T
 102    -12.9965461 -0.724687E+00  0.556E+00    0.14       1.0  T
 103    -13.0567526 -0.602065E-01  0.329E+00    0.09       1.0  T
 104    -12.3168908  0.739862E+00  0.931E+00    0.01       1.0  T
 105    -13.0289566 -0.712066E+00  0.457E+00    0.12       1.0  T
 106    -13.0505571 -0.216005E-01  0.327E+00    0.11       1.0  T
 107    -12.5383885  0.512169E+00  0.790E+00    0.03       1.0  T
 108    -13.0570071 -0.518619E+00  0.332E+00    0.09       1.0  T
 109    -12.3353751  0.721632E+00  0.920E+00    0.02       1.0  T
 110    -13.0332076 -0.697833E+00  0.438E+00    0.12       1.0  T
 111    -13.0458111 -0.126034E-01  0.340E+00    0.11       1.0  T
 112    -13.0503292 -0.451811E-02  0.313E+00    0.13       1.0  T
 113    -12.2785673  0.771762E+00  0.958E+00    0.01       1.0  T
 114    -13.0101916 -0.731624E+00  0.520E+00    0.13       1.0  T
 115    -13.0534521 -0.432605E-01  0.334E+00    0.10       1.0  T
 116    -13.0941971 -0.407450E-01  0.213E+00    0.14       1.0  T
 117    -12.2714092  0.822788E+00  0.968E+00    0.01       1.0  T
 118    -13.0332625 -0.761853E+00  0.485E+00    0.12       1.0  T
 119    -13.0562423 -0.229798E-01  0.313E+00    0.10       1.0  T
 120    -12.6565958  0.399647E+00  0.704E+00    0.03       1.0  T
 121    -13.0577391 -0.401143E+00  0.317E+00    0.09       1.0  T
 122    -12.3648214  0.692918E+00  0.902E+00    0.02       1.0  T
 123    -13.0407539 -0.675933E+00  0.410E+00    0.11       1.0  T
 124    -13.0425237 -0.176976E-02  0.345E+00    0.12       1.0  T
 125    -13.0421021  0.421615E-03  0.331E+00    0.12       1.0  T
 126    -13.1138242 -0.717221E-01  0.112E+00    0.10       1.0  T
 127    -12.2846487  0.829176E+00  0.951E+00    0.02       1.0  T
 128    -13.0458906 -0.761242E+00  0.404E+00    0.07       1.0  T
 129    -12.2725936  0.773297E+00  0.969E+00    0.01       1.0  T
 130    -12.9447746 -0.672181E+00  0.640E+00    0.19       1.0  T
 131    -13.0363878 -0.916132E-01  0.412E+00    0.12       1.0  T
 132    -13.0438926 -0.750480E-02  0.348E+00    0.11       1.0  T
 133    -13.0423513  0.154129E-02  0.332E+00    0.12       1.0  T
 134    -13.0588600 -0.165087E-01  0.289E+00    0.12       1.0  T
 135    -12.2750823  0.783778E+00  0.962E+00    0.01       1.0  T
 136    -12.9889277 -0.713845E+00  0.567E+00    0.15       1.0  T
 137    -13.0531293 -0.642015E-01  0.350E+00    0.10       1.0  T
 138    -13.0501122  0.301708E-02  0.313E+00    0.13       1.0  T
 139    -12.2984456  0.751667E+00  0.942E+00    0.01       1.0  T
 140    -13.0342169 -0.735771E+00  0.456E+00    0.12       1.0  T
 141    -13.0516026 -0.173857E-01  0.322E+00    0.11       1.0  T
 142    -13.1127567 -0.611540E-01  0.118E+00    0.10       1.0  T
 143    -12.2938641  0.818893E+00  0.944E+00    0.02       1.0  T
 144    -13.0444058 -0.750542E+00  0.403E+00    0.07       1.0  T
 145    -12.2688404  0.775565E+00  0.979E+00    0.01       1.0  T
 146    -12.9194167 -0.650576E+00  0.692E+00    0.21       1.0  T
 147    -13.0273704 -0.107954E+00  0.442E+00    0.13       1.0  T
 148    -13.0492418 -0.218714E-01  0.339E+00    0.11       1.0  T
 149    -13.0471640  0.207778E-02  0.318E+00    0.12       1.0  T
 150    -12.7492332  0.297931E+00  0.629E+00    0.04       1.0  T
 151    -13.0515561 -0.302323E+00  0.309E+00    0.08       1.0  T
 152    -12.2692626  0.782293E+00  0.977E+00    0.01       1.0  T
 153    -12.9185459 -0.649283E+00  0.690E+00    0.22       1.0  T
 154    -13.0278634 -0.109317E+00  0.436E+00    0.13       1.0  T
 155    -13.0500340 -0.221706E-01  0.331E+00    0.11       1.0  T
 156    -13.0668629 -0.168289E-01  0.273E+00    0.13       1.0  T
 157    -12.2711404  0.795722E+00  0.969E+00    0.01       1.0  T
 158    -12.9834282 -0.712288E+00  0.585E+00    0.15       1.0  T
 159    -13.0551844 -0.717562E-01  0.346E+00    0.10       1.0  T
 160    -13.1138865 -0.587021E-01  0.135E+00    0.12       1.0  T
 161    -12.2718901  0.841996E+00  0.966E+00    0.01       1.0  T
 162    -13.0336929 -0.761803E+00  0.489E+00    0.11       1.0  T
 163    -13.0577703 -0.240774E-01  0.304E+00    0.10       1.0  T
 164    -12.4065010  0.651269E+00  0.876E+00    0.02       1.0  T
 165    -13.0460381 -0.639537E+00  0.393E+00    0.11       1.0  T
 166    -13.0462260 -0.187981E-03  0.324E+00    0.12       1.0  T
 167    -13.1172835 -0.710575E-01  0.112E+00    0.12       1.0  T
 168    -12.2707640  0.846519E+00  0.969E+00    0.01       1.0  T
 169    -13.0259483 -0.755184E+00  0.506E+00    0.12       1.0  T
 170    -13.0572173 -0.312690E-01  0.311E+00    0.10       1.0  T
 171    -12.6718416  0.385376E+00  0.692E+00    0.04       1.0  T
 172    -13.0576296 -0.385788E+00  0.319E+00    0.09       1.0  T
 173    -12.6369241  0.420706E+00  0.719E+00    0.03       1.0  T
 174    -13.0571353 -0.420211E+00  0.322E+00    0.09       1.0  T
 175    -13.1160609 -0.589256E-01  0.113E+00    0.11       1.0  T
 176    -12.2843788  0.831682E+00  0.951E+00    0.01       1.0  T
 177    -13.0536546 -0.769276E+00  0.406E+00    0.09       1.0  T
 178    -13.0559944 -0.233975E-02  0.296E+00    0.12       1.0  T
 179    -12.5960734  0.459921E+00  0.749E+00    0.03       1.0  T
 180    -13.0567326 -0.460659E+00  0.315E+00    0.08       1.0  T
 181    -12.3156240  0.741109E+00  0.932E+00    0.02       1.0  T
 182    -13.0145235 -0.698899E+00  0.478E+00    0.13       1.0  T
 183    -13.0451346 -0.306111E-01  0.356E+00    0.11       1.0  T
 184    -13.0416809  0.345363E-02  0.336E+00    0.12       1.0  T
 185    -13.0469638 -0.528289E-02  0.317E+00    0.12       1.0  T
 186    -13.0979138 -0.509500E-01  0.192E+00    0.13       1.0  T
 187    -12.2698872  0.828027E+00  0.972E+00    0.01       1.0  T
 188    -12.9970914 -0.727204E+00  0.561E+00    0.14       1.0  T
 189    -13.0548766 -0.577851E-01  0.345E+00    0.10       1.0  T
 190    -13.0442394  0.106372E-01  0.326E+00    0.13       1.0  T
 191    -13.0703502 -0.261108E-01  0.260E+00    0.12       1.0  T
 192    -12.2744437  0.795907E+00  0.963E+00    0.01       1.0  T
 193    -12.9984453 -0.724002E+00  0.548E+00    0.14       1.0  T
 194    -13.0536228 -0.551775E-01  0.345E+00    0.10       1.0  T
 195    -13.0472787  0.634408E-02  0.318E+00    0.12       1.0  T
 196    -12.9502287  0.970501E-01  0.425E+00    0.06       1.0  T
 197    -13.0566610 -0.106432E+00  0.278E+00    0.08       1.0  T
 198    -12.2721422  0.784519E+00  0.969E+00    0.01       1.0  T
 199    -12.9470941 -0.674952E+00  0.636E+00    0.19       1.0  T
 200    -13.0393433 -0.922492E-01  0.403E+00    0.12       1.0  T
 201    -13.0492316 -0.988826E-02  0.323E+00    0.11       1.0  T
 202    -13.0683723 -0.191407E-01  0.266E+00    0.12       1.0  T
 203    -12.2723132  0.796059E+00  0.967E+00    0.01       1.0  T
 204    -12.9883934 -0.716080E+00  0.571E+00    0.15       1.0  T
 205    -13.0543877 -0.659943E-01  0.345E+00    0.10       1.0  T
 206    -13.0645243 -0.101366E-01  0.278E+00    0.13       1.0  T
 207    -12.2752366  0.789288E+00  0.962E+00    0.01       1.0  T
 208    -13.0006580 -0.725421E+00  0.544E+00    0.14       1.0  T
 209    -13.0549466 -0.542886E-01  0.336E+00    0.10       1.0  T
 210    -13.0893924 -0.344458E-01  0.218E+00    0.13       1.0  T
 211    -12.2707408  0.818652E+00  0.970E+00    0.01       1.0  T
 212    -12.9989011 -0.728160E+00  0.558E+00    0.14       1.0  T
 213    -13.0566167 -0.577156E-01  0.331E+00    0.09       1.0  T
 214    -12.9667040  0.899127E-01  0.403E+00    0.06       1.0  T
 215    -13.0596409 -0.929369E-01  0.278E+00    0.09       1.0  T
 216    -12.2779015  0.781739E+00  0.960E+00    0.01       1.0  T
 217    -12.9763815 -0.698480E+00  0.579E+00    0.16       1.0  T
 218    -13.0477295 -0.713480E-01  0.366E+00    0.11       1.0  T
 219    -13.0495008 -0.177128E-02  0.311E+00    0.11       1.0  T
 220    -12.6169636  0.432537E+00  0.734E+00    0.03       1.0  T
 221    -13.0572027 -0.440239E+00  0.328E+00    0.09       1.0  T
 222    -12.3639462  0.693256E+00  0.903E+00    0.02       1.0  T
 223    -13.0348640 -0.670918E+00  0.426E+00    0.12       1.0  T
 224    -13.0493402 -0.144762E-01  0.322E+00    0.11       1.0  T
 225    -13.1170808 -0.677406E-01  0.982E-01    0.10       1.0  T
 226    -12.2753307  0.841750E+00  0.961E+00    0.01       1.0  T
 227    -13.0342576 -0.758927E+00  0.476E+00    0.12       1.0  T
 228    -13.0562849 -0.220273E-01  0.305E+00    0.10       1.0  T
 229    -13.0996473 -0.433624E-01  0.189E+00    0.13       1.0  T
 230    -12.2714749  0.828172E+00  0.968E+00    0.01       1.0  T
 231    -13.0082396 -0.736765E+00  0.536E+00    0.13       1.0  T
 232    -13.0561694 -0.479297E-01  0.327E+00    0.10       1.0  T
 233    -13.0789905 -0.228211E-01  0.245E+00    0.13       1.0  T
 234    -12.2735378  0.805453E+00  0.964E+00    0.01       1.0  T
 235    -13.0067504 -0.733213E+00  0.534E+00    0.14       1.0  T
 236    -13.0551259 -0.483755E-01  0.332E+00    0.10       1.0  T
 237    -13.0580140 -0.288814E-02  0.292E+00    0.12       1.0  T
 238    -12.2883840  0.769630E+00  0.949E+00    0.01       1.0  T
 239    -13.0217815 -0.733398E+00  0.485E+00    0.13       1.0  T
 240    -13.0530972 -0.313157E-01  0.326E+00    0.10       1.0  T
 241    -13.0576837 -0.458655E-02  0.291E+00    0.12       1.0  T
 242    -12.2832968  0.774387E+00  0.953E+00    0.01       1.0  T
 243    -13.0129039 -0.729607E+00  0.506E+00    0.13       1.0  T
 244    -13.0527053 -0.398015E-01  0.332E+00    0.10       1.0  T
 245    -13.0566101 -0.390475E-02  0.293E+00    0.12       1.0  T
 246    -12.2857741  0.770836E+00  0.951E+00    0.01       1.0  T
 247    -13.0149519 -0.729178E+00  0.500E+00    0.13       1.0  T
 248    -13.0526834 -0.377315E-01  0.330E+00    0.10       1.0  T
 249    -13.0611080 -0.842453E-02  0.282E+00    0.12       1.0  T
 250    -12.2771325  0.783975E+00  0.960E+00    0.01       1.0  T
     SCC iter.                  ...        0 min,  0.112 sec
     gradient                   ...        0 min,  0.000 sec
 * total energy  :   -12.2072281 Eh     change        0.8481811E+00 Eh
   gradient norm :     0.1827439 Eh/α   predicted    -0.1518873E-02 (-100.18%)
   displ. norm   :     0.1867834 α      lambda       -0.4225127E-02
   maximum displ.:     0.1693595 α      in ANC's #1, #3, #8, ...

........................................................................
.............................. CYCLE    7 ..............................
........................................................................
   1    -12.9016639 -0.129017E+02  0.996E+00    0.24       0.0  T
   2    -12.3102117  0.591452E+00  0.114E+01    0.00       1.0  T
   3    -12.2906194  0.195923E-01  0.855E+00    0.01       1.0  T
   4    -12.8404420 -0.549823E+00  0.844E+00    1.43       1.0  T
   5    -12.8914209 -0.509789E-01  0.619E+00    0.62       1.0  T
   6    -12.2629714  0.628450E+00  0.993E+00    0.00       1.0  T
   7    -12.3157719 -0.528005E-01  0.936E+00    0.01       1.0  T
   8    -12.4574465 -0.141675E+00  0.101E+01    0.02       1.0  T
   9    -12.5032427 -0.457962E-01  0.975E+00    0.02       1.0  T
  10    -12.5680709 -0.648282E-01  0.937E+00    0.03       1.0  T
  11    -12.6317921 -0.637212E-01  0.881E+00    0.03       1.0  T
  12    -12.6694641 -0.376720E-01  0.821E+00    0.03       1.0  T
  13    -12.9079272 -0.238463E+00  0.590E+00    0.46       1.0  T
  14    -13.0531375 -0.145210E+00  0.287E+00    0.09       1.0  T
  15    -12.9826474  0.704901E-01  0.448E+00    0.18       1.0  T
  16    -12.9189301  0.637173E-01  0.513E+00    0.05       1.0  T
  17    -12.2717231  0.647207E+00  0.958E+00    0.00       1.0  T
  18    -13.0389851 -0.767262E+00  0.307E+00    0.07       1.0  T
  19    -12.9649887  0.739964E-01  0.491E+00    0.24       1.0  T
  20    -13.0341720 -0.691833E-01  0.345E+00    0.16       1.0  T
  21    -12.7568373  0.277335E+00  0.622E+00    0.04       1.0  T
  22    -13.0688778 -0.312040E+00  0.277E+00    0.16       1.0  T
  23    -13.0364935  0.323843E-01  0.311E+00    0.07       1.0  T
  24    -12.3539128  0.682581E+00  0.901E+00    0.02       1.0  T
  25    -13.0400988 -0.686186E+00  0.318E+00    0.13       1.0  T
  26    -12.9160320  0.124067E+00  0.511E+00    0.04       1.0  T
  27    -12.4894690  0.426563E+00  0.814E+00    0.03       1.0  T
  28    -12.8971444 -0.407675E+00  0.472E+00    0.06       1.0  T
  29    -12.3728886  0.524256E+00  0.887E+00    0.02       1.0  T
  30    -13.0809081 -0.708020E+00  0.258E+00    0.13       1.0  T
  31    -13.0010249  0.798832E-01  0.417E+00    0.17       1.0  T
  32    -12.9642417  0.367832E-01  0.441E+00    0.05       1.0  T
  33    -12.9700725 -0.583079E-02  0.476E+00    0.21       1.0  T
  34    -13.0559493 -0.858769E-01  0.266E+00    0.10       1.0  T
  35    -13.0290033  0.269461E-01  0.349E+00    0.13       1.0  T
  36    -13.0517977 -0.227944E-01  0.282E+00    0.11       1.0  T
  37    -13.0371547  0.146430E-01  0.327E+00    0.13       1.0  T
  38    -13.0508151 -0.136605E-01  0.287E+00    0.11       1.0  T
  39    -13.0543859 -0.357075E-02  0.286E+00    0.13       1.0  T
  40    -13.0786556 -0.242697E-01  0.199E+00    0.08       1.0  T
  41    -13.1050246 -0.263691E-01  0.150E+00    0.13       1.0  T
  42    -13.0832360  0.217887E-01  0.188E+00    0.08       1.0  T
  43    -13.1148994 -0.316635E-01  0.751E-01    0.11       1.0  T
  44    -13.0747580  0.401414E-01  0.211E+00    0.08       1.0  T
  45    -13.1117748 -0.370168E-01  0.867E-01    0.10       1.0  T
  46    -13.1001830  0.115918E-01  0.138E+00    0.09       1.0  T
  47    -13.0831027  0.170804E-01  0.191E+00    0.09       1.0  T
  48    -13.1040411 -0.209384E-01  0.123E+00    0.09       1.0  T
  49    -13.1085509 -0.450988E-02  0.104E+00    0.10       1.0  T
  50    -13.0683277  0.402233E-01  0.229E+00    0.08       1.0  T
  51    -13.0585039  0.982380E-02  0.249E+00    0.08       1.0  T
  52    -13.0904398 -0.319359E-01  0.171E+00    0.09       1.0  T
  53    -13.1174528 -0.270130E-01  0.391E-01    0.10       1.0  T
  54    -13.1174079  0.449219E-04  0.352E-01    0.10       1.0  T
  55    -13.1166007  0.807212E-03  0.449E-01    0.10       1.0  T
  56    -13.1174814 -0.880719E-03  0.341E-01    0.10       1.0  T
  57    -13.1166607  0.820745E-03  0.457E-01    0.10       1.0  T
  58    -13.0903333  0.263273E-01  0.171E+00    0.09       1.0  T
  59    -13.0630004  0.273330E-01  0.240E+00    0.08       1.0  T
  60    -13.0852454 -0.222450E-01  0.186E+00    0.09       1.0  T
  61    -13.1184860 -0.332407E-01  0.160E-01    0.10       1.0  T
  62    -13.1012959  0.171901E-01  0.133E+00    0.09       1.0  T
  63    -13.0768512  0.244447E-01  0.208E+00    0.09       1.0  T
  64    -13.0649656  0.118856E-01  0.237E+00    0.08       1.0  T
  65    -13.0659148 -0.949201E-03  0.235E+00    0.09       1.0  T
  66    -13.0657668  0.147964E-03  0.236E+00    0.09       1.0  T
  67    -13.0702485 -0.448166E-02  0.230E+00    0.10       1.0  T
  68    -13.0770822 -0.683371E-02  0.213E+00    0.10       1.0  T
  69    -13.1112072 -0.341250E-01  0.100E+00    0.12       1.0  T
  70    -13.1167923 -0.558514E-02  0.477E-01    0.11       1.0  T
  71    -13.1181817 -0.138943E-02  0.261E-01    0.11       1.0  T
  72    -13.1106228  0.755895E-02  0.899E-01    0.10       1.0  T
  73    -13.1163509 -0.572809E-02  0.485E-01    0.10       1.0  T
  74    -13.1152706  0.108023E-02  0.588E-01    0.10       1.0  T
  75    -13.1160999 -0.829275E-03  0.514E-01    0.10       1.0  T
  76    -13.1171327 -0.103280E-02  0.398E-01    0.10       1.0  T
  77    -13.1182282 -0.109550E-02  0.214E-01    0.10       1.0  T
  78    -13.1185896 -0.361425E-03  0.871E-02    0.11       1.0  T
  79    -13.1186467 -0.570387E-04  0.312E-02    0.11       1.3  T
  80    -13.1186462  0.452423E-06  0.274E-02    0.11       1.5  T
  81    -13.1186502 -0.395980E-05  0.175E-02    0.11       2.3  T
  82    -13.1186490  0.114157E-05  0.209E-02    0.11       2.0  T
  83    -13.1186486  0.432207E-06  0.217E-02    0.11       1.9  T
  84    -13.1186520 -0.337881E-05  0.761E-03    0.11       5.4  T
  85    -13.1186504  0.155099E-05  0.138E-02    0.11       3.0  T
  86    -13.1186517 -0.121974E-05  0.833E-03    0.11       4.9  T
  87    -13.1186524 -0.695797E-06  0.817E-04    0.11      50.0  T
  88    -13.1186523  0.744038E-08  0.125E-03    0.11      32.7  T
     SCC iter.                  ...        0 min,  0.009 sec
     gradient                   ...        0 min,  0.000 sec
 * total energy  :   -13.0563657 Eh     change       -0.8491376E+00 Eh
   gradient norm :     0.0204560 Eh/α   predicted    -0.2186266E-02 ( -99.74%)
   displ. norm   :     0.1345111 α      lambda       -0.7074702E-03
   maximum displ.:     0.1325451 α      in ANC's #1, #2, #8, ...

........................................................................
.............................. CYCLE    8 ..............................
........................................................................
   1    -13.1140337 -0.131140E+02  0.731E-01    0.12       0.0  T
   2    -12.2597813  0.854252E+00  0.964E+00    0.02       1.0  T
   3    -12.4515914 -0.191810E+00  0.980E+00    0.00       1.0  T
   4    -13.1132303 -0.661639E+00  0.697E-01    0.09       1.0  T
   5    -13.1099440  0.328630E-02  0.915E-01    0.10       1.0  T
   6    -13.1160702 -0.612620E-02  0.444E-01    0.11       1.0  T
   7    -13.1171954 -0.112524E-02  0.803E-02    0.11       1.0  T
   8    -13.1171710  0.244509E-04  0.118E-01    0.11       1.0  T
   9    -13.1172142 -0.432400E-04  0.651E-02    0.11       1.0  T
  10    -13.1172458 -0.315904E-04  0.215E-02    0.11       1.9  T
  11    -13.1172480 -0.218022E-05  0.827E-03    0.11       4.9  T
  12    -13.1172483 -0.262546E-06  0.418E-03    0.11       9.8  T
  13    -13.1172483 -0.749856E-07  0.185E-03    0.11      22.0  T
     SCC iter.                  ...        0 min,  0.001 sec
     gradient                   ...        0 min,  0.001 sec
 * total energy  :   -13.0560860 Eh     change        0.2797082E-03 Eh
   gradient norm :     0.1201168 Eh/α   predicted    -0.3601333E-03 (-228.75%)
   displ. norm   :     0.0773764 α      lambda       -0.1142045E-02
   maximum displ.:     0.0634341 α      in ANC's #1, #3, #2, ...

........................................................................
.............................. CYCLE    9 ..............................
........................................................................
   1    -13.1169550 -0.131170E+02  0.494E-01    0.11       0.0  T
   2    -12.2663158  0.850639E+00  0.961E+00    0.02       1.0  T
   3    -13.0838339 -0.817518E+00  0.185E+00    0.09       1.0  T
   4    -13.1138468 -0.300130E-01  0.981E-01    0.09       1.0  T
   5    -13.1191117 -0.526482E-02  0.100E-01    0.11       1.0  T
   6    -13.1191275 -0.158614E-04  0.989E-02    0.11       1.0  T
   7    -13.1190713  0.562179E-04  0.106E-01    0.11       1.0  T
   8    -13.1190846 -0.133333E-04  0.103E-01    0.11       1.0  T
   9    -13.1191519 -0.672189E-04  0.603E-02    0.11       1.0  T
  10    -13.1191802 -0.283645E-04  0.617E-03    0.11       6.6  T
  11    -13.1191800  0.237666E-06  0.696E-03    0.11       5.9  T
  12    -13.1191804 -0.378233E-06  0.236E-03    0.11      17.3  T
  13    -13.1191804 -0.328098E-07  0.171E-03    0.11      23.8  T
     SCC iter.                  ...        0 min,  0.001 sec
     gradient                   ...        0 min,  0.000 sec
 * total energy  :   -13.0568777 Eh     change       -0.7917013E-03 Eh
   gradient norm :     0.0303816 Eh/α   predicted    -0.5744404E-03 ( -27.44%)
   displ. norm   :     0.0891587 α      lambda       -0.6382144E-03
   maximum displ.:     0.0763938 α      in ANC's #3, #1, #2, ...

........................................................................
.............................. CYCLE   10 ..............................
........................................................................
   1    -13.1094669 -0.131095E+02  0.118E+00    0.11       0.0  T
   2    -12.2432172  0.866250E+00  0.998E+00    0.01       1.0  T
   3    -12.6354175 -0.392200E+00  0.849E+00    0.00       1.0  T
   4    -12.9016010 -0.266183E+00  0.504E+00    0.06       1.0  T
   5    -13.0811906 -0.179590E+00  0.224E+00    0.12       1.0  T
   6    -13.0577544  0.234361E-01  0.291E+00    0.13       1.0  T
   7    -13.0293426  0.284119E-01  0.362E+00    0.14       1.0  T
   8    -13.0327663 -0.342377E-02  0.354E+00    0.14       1.0  T
   9    -13.0336151 -0.848802E-03  0.352E+00    0.14       1.0  T
  10    -13.0447612 -0.111460E-01  0.319E+00    0.13       1.0  T
  11    -13.0741082 -0.293471E-01  0.224E+00    0.07       1.0  T
  12    -13.0917408 -0.176325E-01  0.166E+00    0.09       1.0  T
  13    -12.8644876  0.227253E+00  0.525E+00    0.06       1.0  T
  14    -13.0530727 -0.188585E+00  0.291E+00    0.12       1.0  T
  15    -13.1200726 -0.669999E-01  0.168E-01    0.10       1.0  T
  16    -13.1088003  0.112724E-01  0.113E+00    0.11       1.0  T
  17    -13.1192625 -0.104622E-01  0.348E-01    0.11       1.0  T
  18    -13.1109526  0.830989E-02  0.967E-01    0.10       1.0  T
  19    -13.1143678 -0.341524E-02  0.844E-01    0.11       1.0  T
  20    -13.1197422 -0.537437E-02  0.220E-01    0.11       1.0  T
  21    -13.1201713 -0.429055E-03  0.899E-02    0.11       1.0  T
  22    -13.1197518  0.419447E-03  0.236E-01    0.11       1.0  T
  23    -13.1202024 -0.450628E-03  0.614E-02    0.11       1.0  T
  24    -13.1202322 -0.297400E-04  0.320E-02    0.11       1.3  T
  25    -13.1201865  0.456994E-04  0.751E-02    0.11       1.0  T
  26    -13.1202390 -0.524875E-04  0.219E-02    0.11       1.9  T
  27    -13.1202412 -0.223296E-05  0.100E-02    0.11       4.1  T
  28    -13.1202421 -0.922394E-06  0.408E-03    0.11      10.0  T
  29    -13.1202420  0.146903E-06  0.502E-03    0.11       8.1  T
     SCC iter.                  ...        0 min,  0.002 sec
     gradient                   ...        0 min,  0.001 sec
 * total energy  :   -13.0573495 Eh     change       -0.4718749E-03 Eh
   gradient norm :     0.0215191 Eh/α   predicted    -0.3216492E-03 ( -31.84%)
   displ. norm   :     0.1535629 α      lambda       -0.8297489E-03
   maximum displ.:     0.1392041 α      in ANC's #3, #2, #1, ...

........................................................................
.............................. CYCLE   11 ..............................
........................................................................
   1    -13.0936953 -0.130937E+02  0.184E+00    0.12       0.0  T
   2    -12.2218273  0.871868E+00  0.103E+01    0.01       1.0  T
   3    -12.4770656 -0.255238E+00  0.979E+00    0.00       1.0  T
   4    -12.3991777  0.778879E-01  0.885E+00    0.03       1.0  T
   5    -12.9945066 -0.595329E+00  0.437E+00    0.17       1.0  T
   6    -12.9610214  0.334852E-01  0.499E+00    0.21       1.0  T
   7    -12.9729352 -0.119137E-01  0.480E+00    0.20       1.0  T
   8    -12.9341057  0.388294E-01  0.542E+00    0.25       1.0  T
   9    -13.0513462 -0.117240E+00  0.289E+00    0.08       1.0  T
  10    -13.0624113 -0.110651E-01  0.252E+00    0.10       1.0  T
  11    -13.0629119 -0.500632E-03  0.244E+00    0.09       1.0  T
  12    -13.0743026 -0.113907E-01  0.216E+00    0.10       1.0  T
  13    -13.0746451 -0.342568E-03  0.215E+00    0.10       1.0  T
  14    -12.6668801  0.407765E+00  0.698E+00    0.04       1.0  T
  15    -13.0152909 -0.348411E+00  0.387E+00    0.14       1.0  T
  16    -13.0614893 -0.461984E-01  0.250E+00    0.10       1.0  T
  17    -13.1125484 -0.510591E-01  0.791E-01    0.10       1.0  T
  18    -13.1172985 -0.475007E-02  0.429E-01    0.10       1.0  T
  19    -13.1159364  0.136205E-02  0.630E-01    0.10       1.0  T
  20    -13.0976967  0.182398E-01  0.150E+00    0.10       1.0  T
  21    -12.8376790  0.260018E+00  0.548E+00    0.05       1.0  T
  22    -13.0450157 -0.207337E+00  0.310E+00    0.12       1.0  T
  23    -13.0951855 -0.501698E-01  0.156E+00    0.10       1.0  T
  24    -13.1047154 -0.952988E-02  0.126E+00    0.09       1.0  T
  25    -13.0863661  0.183493E-01  0.189E+00    0.10       1.0  T
  26    -13.0083877  0.779785E-01  0.343E+00    0.07       1.0  T
  27    -13.0608651 -0.524774E-01  0.263E+00    0.11       1.0  T
  28    -13.1134754 -0.526103E-01  0.800E-01    0.10       1.0  T
  29    -13.0934038  0.200717E-01  0.167E+00    0.10       1.0  T
  30    -13.1042567 -0.108529E-01  0.127E+00    0.09       1.0  T
  31    -13.1013299  0.292680E-02  0.138E+00    0.10       1.0  T
  32    -13.0774524  0.238774E-01  0.211E+00    0.08       1.0  T
  33    -13.0877663 -0.103138E-01  0.186E+00    0.10       1.0  T
  34    -13.0830693  0.469698E-02  0.196E+00    0.09       1.0  T
  35    -13.0872292 -0.415996E-02  0.188E+00    0.10       1.0  T
  36    -13.1090632 -0.218339E-01  0.104E+00    0.10       1.0  T
  37    -13.1095744 -0.511262E-03  0.102E+00    0.11       1.0  T
  38    -13.1072417  0.233278E-02  0.113E+00    0.10       1.0  T
  39    -13.1166212 -0.937957E-02  0.519E-01    0.11       1.0  T
  40    -13.1024706  0.141506E-01  0.134E+00    0.09       1.0  T
  41    -13.1157824 -0.133118E-01  0.599E-01    0.11       1.0  T
  42    -13.1064308  0.935157E-02  0.117E+00    0.10       1.0  T
  43    -13.1163765 -0.994565E-02  0.546E-01    0.11       1.0  T
  44    -13.1134954  0.288111E-02  0.784E-01    0.10       1.0  T
  45    -13.1185958 -0.510047E-02  0.253E-01    0.11       1.0  T
  46    -13.1168854  0.171044E-02  0.503E-01    0.10       1.0  T
  47    -13.1192139 -0.232855E-02  0.272E-02    0.11       1.5  T
  48    -13.1182725  0.941490E-03  0.323E-01    0.11       1.0  T
  49    -13.1191574 -0.884982E-03  0.872E-02    0.11       1.0  T
  50    -13.1189482  0.209244E-03  0.174E-01    0.11       1.0  T
  51    -13.1191731 -0.224884E-03  0.742E-02    0.11       1.0  T
  52    -13.1191735 -0.390075E-06  0.728E-02    0.11       1.0  T
  53    -13.1191532  0.203046E-04  0.842E-02    0.11       1.0  T
  54    -13.1192193 -0.661462E-04  0.674E-03    0.11       6.1  T
  55    -13.1191928  0.265542E-04  0.539E-02    0.11       1.0  T
  56    -13.1192126 -0.198180E-04  0.278E-02    0.11       1.5  T
  57    -13.1192161 -0.352690E-05  0.198E-02    0.11       2.1  T
  58    -13.1192192 -0.306487E-05  0.774E-03    0.11       5.3  T
  59    -13.1192197 -0.550752E-06  0.810E-04    0.11      50.4  T
  60    -13.1192196  0.789552E-07  0.306E-03    0.11      13.3  T
     SCC iter.                  ...        0 min,  0.005 sec
     gradient                   ...        0 min,  0.000 sec
 * total energy  :   -13.0578235 Eh     change       -0.4739949E-03 Eh
   gradient norm :     0.0472872 Eh/α   predicted    -0.4246571E-03 ( -10.41%)
   displ. norm   :     0.2697600 α      lambda       -0.1047726E-02
   maximum displ.:     0.1952479 α      in ANC's #3, #2, #1, ...

........................................................................
.............................. CYCLE   12 ..............................
........................................................................
   1    -13.0918061 -0.130918E+02  0.161E+00    0.11       0.0  T
   2    -12.2213777  0.870428E+00  0.102E+01    0.01       1.0  T
   3    -12.4330393 -0.211662E+00  0.847E+00    0.03       1.0  T
   4    -12.9421861 -0.509147E+00  0.523E+00    0.25       1.0  T
   5    -12.9963748 -0.541887E-01  0.423E+00    0.17       1.0  T
   6    -13.0237475 -0.273727E-01  0.359E+00    0.13       1.0  T
   7    -12.9488166  0.749309E-01  0.512E+00    0.21       1.0  T
   8    -13.0334739 -0.846573E-01  0.335E+00    0.12       1.0  T
   9    -13.0432738 -0.979987E-02  0.302E+00    0.11       1.0  T
  10    -13.0151440  0.281298E-01  0.374E+00    0.14       1.0  T
  11    -13.0201971 -0.505311E-02  0.360E+00    0.13       1.0  T
  12    -13.0526602 -0.324631E-01  0.267E+00    0.11       1.0  T
  13    -13.0484361  0.422415E-02  0.281E+00    0.11       1.0  T
  14    -13.0780844 -0.296483E-01  0.213E+00    0.12       1.0  T
  15    -13.1027995 -0.247151E-01  0.108E+00    0.09       1.0  T
  16    -13.0888907  0.139088E-01  0.165E+00    0.11       1.0  T
  17    -13.1068863 -0.179956E-01  0.852E-01    0.11       1.0  T
  18    -13.0708018  0.360845E-01  0.216E+00    0.08       1.0  T
  19    -13.0700107  0.791071E-03  0.210E+00    0.09       1.0  T
  20    -13.1112138 -0.412031E-01  0.543E-01    0.10       1.0  T
  21    -13.0960828  0.151310E-01  0.141E+00    0.09       1.0  T
  22    -13.0840650  0.120178E-01  0.174E+00    0.10       1.0  T
  23    -13.1126243 -0.285594E-01  0.375E-01    0.11       1.0  T
  24    -13.1045555  0.806886E-02  0.103E+00    0.10       1.0  T
  25    -13.0966148  0.794068E-02  0.131E+00    0.10       1.0  T
  26    -13.1139766 -0.173618E-01  0.947E-02    0.11       1.0  T
  27    -13.1126554  0.132120E-02  0.421E-01    0.10       1.0  T
  28    -13.1081601  0.449527E-02  0.751E-01    0.10       1.0  T
  29    -13.1138084 -0.564832E-02  0.139E-01    0.11       1.0  T
  30    -13.1139293 -0.120853E-03  0.123E-01    0.11       1.0  T
  31    -13.1116010  0.232826E-02  0.480E-01    0.10       1.0  T
  32    -13.1139734 -0.237238E-02  0.678E-02    0.11       1.0  T
  33    -13.1138568  0.116657E-03  0.118E-01    0.11       1.0  T
  34    -13.1139900 -0.133228E-03  0.467E-02    0.11       1.0  T
  35    -13.1139910 -0.962762E-06  0.337E-02    0.11       1.2  T
  36    -13.1139151  0.758468E-04  0.973E-02    0.11       1.0  T
  37    -13.1139918 -0.766567E-04  0.313E-02    0.11       1.3  T
  38    -13.1139682  0.235822E-04  0.600E-02    0.11       1.0  T
  39    -13.1139940 -0.258317E-04  0.277E-02    0.11       1.5  T
  40    -13.1139979 -0.386337E-05  0.204E-02    0.11       2.0  T
  41    -13.1139965  0.141453E-05  0.230E-02    0.11       1.8  T
  42    -13.1140017 -0.521005E-05  0.134E-03    0.11      30.4  T
  43    -13.1140000  0.163682E-05  0.129E-02    0.11       3.2  T
  44    -13.1140013 -0.128562E-05  0.636E-03    0.11       6.4  T
  45    -13.1140011  0.253130E-06  0.817E-03    0.11       5.0  T
  46    -13.1140013 -0.232977E-06  0.642E-03    0.11       6.4  T
  47    -13.1140017 -0.357925E-06  0.176E-03    0.11      23.2  T
     SCC iter.                  ...        0 min,  0.004 sec
     gradient                   ...        0 min,  0.001 sec
[...]
 105    -13.1038688  0.784124E-02  0.124E+00    0.10       1.0  T
 106    -13.1112282 -0.735935E-02  0.844E-01    0.10       1.0  T
 107    -13.1041908  0.703735E-02  0.122E+00    0.10       1.0  T
 108    -13.1106714 -0.648062E-02  0.878E-01    0.10       1.0  T
 109    -13.1044738  0.619767E-02  0.121E+00    0.11       1.0  T
 110    -13.1101292 -0.565542E-02  0.910E-01    0.10       1.0  T
 111    -13.1047716  0.535762E-02  0.120E+00    0.11       1.0  T
 112    -13.1096955 -0.492396E-02  0.935E-01    0.10       1.0  T
 113    -13.1051305  0.456500E-02  0.118E+00    0.11       1.0  T
 114    -13.1094557 -0.432519E-02  0.949E-01    0.10       1.0  T
 115    -13.1055845  0.387118E-02  0.116E+00    0.11       1.0  T
 116    -13.1094707 -0.388618E-02  0.948E-01    0.10       1.0  T
 117    -13.1061527  0.331802E-02  0.113E+00    0.11       1.0  T
 118    -13.1097655 -0.361282E-02  0.932E-01    0.10       1.0  T
 119    -13.1068394  0.292611E-02  0.110E+00    0.11       1.0  T
 120    -13.1103253 -0.348589E-02  0.899E-01    0.10       1.0  T
 121    -13.1076363  0.268902E-02  0.106E+00    0.11       1.0  T
 122    -13.1111003 -0.346403E-02  0.852E-01    0.10       1.0  T
 123    -13.1085249  0.257542E-02  0.101E+00    0.11       1.0  T
 124    -13.1120175 -0.349262E-02  0.793E-01    0.10       1.0  T
 125    -13.1094796  0.253788E-02  0.957E-01    0.11       1.0  T
 126    -13.1129953 -0.351567E-02  0.725E-01    0.10       1.0  T
 127    -13.1104705  0.252478E-02  0.899E-01    0.11       1.0  T
 128    -13.1139576 -0.348705E-02  0.651E-01    0.10       1.0  T
 129    -13.1114658  0.249173E-02  0.837E-01    0.11       1.0  T
 130    -13.1148440 -0.337817E-02  0.574E-01    0.10       1.0  T
 131    -13.1124348  0.240926E-02  0.771E-01    0.11       1.0  T
 132    -13.1156153 -0.318052E-02  0.498E-01    0.10       1.0  T
 133    -13.1133497  0.226558E-02  0.704E-01    0.11       1.0  T
 134    -13.1162531 -0.290344E-02  0.424E-01    0.10       1.0  T
 135    -13.1141884  0.206469E-02  0.636E-01    0.11       1.0  T
 136    -13.1167570 -0.256859E-02  0.355E-01    0.11       1.0  T
 137    -13.1149355  0.182153E-02  0.569E-01    0.11       1.0  T
 138    -13.1171387 -0.220319E-02  0.293E-01    0.11       1.0  T
 139    -13.1155825  0.155615E-02  0.504E-01    0.11       1.0  T
 140    -13.1174166 -0.183405E-02  0.237E-01    0.11       1.0  T
 141    -13.1161280  0.128857E-02  0.442E-01    0.11       1.0  T
 142    -13.1176114 -0.148340E-02  0.187E-01    0.11       1.0  T
 143    -13.1165760  0.103541E-02  0.383E-01    0.11       1.0  T
 144    -13.1177429 -0.116689E-02  0.145E-01    0.11       1.0  T
 145    -13.1169347  0.808246E-03  0.329E-01    0.11       1.0  T
 146    -13.1178281 -0.893432E-03  0.109E-01    0.11       1.0  T
 147    -13.1172146  0.613445E-03  0.280E-01    0.11       1.0  T
 148    -13.1178808 -0.666127E-03  0.796E-02    0.11       1.0  T
 149    -13.1174278  0.452962E-03  0.235E-01    0.11       1.0  T
 150    -13.1179115 -0.483716E-03  0.552E-02    0.11       1.0  T
 151    -13.1175860  0.325478E-03  0.195E-01    0.11       1.0  T
 152    -13.1179281 -0.342085E-03  0.356E-02    0.11       1.1  T
 153    -13.1177011  0.227000E-03  0.160E-01    0.11       1.0  T
 154    -13.1179363 -0.235148E-03  0.198E-02    0.11       2.1  T
 155    -13.1177860  0.150299E-03  0.129E-01    0.11       1.0  T
 156    -13.1179396 -0.153664E-03  0.585E-03    0.11       7.0  T
 157    -13.1178612  0.784527E-04  0.922E-02    0.11       1.0  T
 158    -13.1179322 -0.709823E-04  0.290E-02    0.11       1.4  T
 159    -13.1179064  0.257534E-04  0.601E-02    0.11       1.0  T
 160    -13.1179280 -0.216167E-04  0.359E-02    0.11       1.1  T
 161    -13.1179216  0.642922E-05  0.445E-02    0.11       1.0  T
 162    -13.1179293 -0.766110E-05  0.339E-02    0.11       1.2  T
 163    -13.1179286  0.698159E-06  0.350E-02    0.11       1.2  T
 164    -13.1179347 -0.613417E-05  0.237E-02    0.11       1.7  T
 165    -13.1179356 -0.905126E-06  0.215E-02    0.11       1.9  T
 166    -13.1179388 -0.318275E-05  0.108E-02    0.11       3.8  T
 167    -13.1179393 -0.549792E-06  0.744E-03    0.11       5.5  T
 168    -13.1179398 -0.505249E-06  0.322E-04    0.11     127.0  T
 169    -13.1179398 -0.422752E-09  0.209E-04    0.11     195.7  T
     SCC iter.                  ...        0 min,  0.038 sec
     gradient                   ...        0 min,  0.000 sec
 * total energy  :   -13.0580558 Eh     change       -0.5937862E-03 Eh
   gradient norm :     0.0094149 Eh/α   predicted    -0.5992553E-03 (   0.92%)
   displ. norm   :     0.0201832 α      lambda       -0.2155814E-04
   maximum displ.:     0.0153663 α      in ANC's #2, #3, #1, ...

........................................................................
.............................. CYCLE   14 ..............................
........................................................................
   1    -13.1178729 -0.131179E+02  0.812E-02    0.11       0.0  T
   2    -13.0762434  0.416295E-01  0.207E+00    0.08       1.0  T
   3    -13.1172851 -0.410416E-01  0.307E-01    0.11       1.0  T
   4    -13.1178749 -0.589839E-03  0.976E-02    0.11       1.0  T
   5    -13.1176508  0.224115E-03  0.179E-01    0.11       1.0  T
   6    -13.1178521 -0.201278E-03  0.976E-02    0.11       1.0  T
   7    -13.1179336 -0.815539E-04  0.132E-02    0.11       3.1  T
   8    -13.1179348 -0.115958E-05  0.689E-03    0.11       5.9  T
   9    -13.1179349 -0.158461E-06  0.529E-03    0.11       7.7  T
  10    -13.1179351 -0.129375E-06  0.362E-03    0.11      11.3  T
  11    -13.1179352 -0.102395E-06  0.104E-03    0.11      39.1  T
  12    -13.1179352 -0.861284E-08  0.221E-04    0.11     185.0  T
     SCC iter.                  ...        0 min,  0.001 sec
     gradient                   ...        0 min,  0.000 sec
 * total energy  :   -13.0580666 Eh     change       -0.1081461E-04 Eh
   gradient norm :     0.0034661 Eh/α   predicted    -0.1078221E-04 (  -0.30%)
   displ. norm   :     0.0030217 α      lambda       -0.9272636E-06
   maximum displ.:     0.0024340 α      in ANC's #1, #3, #8, ...

........................................................................
.............................. CYCLE   15 ..............................
........................................................................
   1    -13.1178443 -0.131178E+02  0.334E-02    0.11       0.0  T
   2    -13.0812524  0.365919E-01  0.213E+00    0.09       1.0  T
   3    -13.1177697 -0.365173E-01  0.908E-02    0.11       1.0  T
   4    -13.1169912  0.778420E-03  0.319E-01    0.11       1.0  T
   5    -13.1178475 -0.856222E-03  0.262E-02    0.11       1.6  T
   6    -13.1178520 -0.455965E-05  0.859E-03    0.11       4.8  T
   7    -13.1178520  0.176138E-07  0.856E-03    0.11       4.8  T
   8    -13.1178526 -0.598553E-06  0.394E-04    0.11     103.6  T
   9    -13.1178526 -0.325196E-09  0.445E-04    0.11      91.8  T
     SCC iter.                  ...        0 min,  0.001 sec
     gradient                   ...        0 min,  0.001 sec
 * total energy  :   -13.0580672 Eh     change       -0.6135105E-06 Eh
   gradient norm :     0.0009312 Eh/α   predicted    -0.4646753E-06 ( -24.26%)
   displ. norm   :     0.0029274 α      lambda       -0.1919258E-06
   maximum displ.:     0.0028186 α      in ANC's #1, #3, #8, ...

   *** GEOMETRY OPTIMIZATION CONVERGED AFTER 15 ITERATIONS ***

------------------------------------------------------------------------
 total energy gain   :        -6.5468987 Eh    -4108.2410 kcal/mol
 total RMSD          :         0.2757033 a0        0.1459 Å
 total power (kW/mol):     -1145.9253444 (step)********** (real)
------------------------------------------------------------------------

 ANCopt (total)                0 d,  0 h,  0 min,  0.206 sec
 optimizer setup                ...        0 min,  0.000 sec (  0.024%)
 model hessian                  ...        0 min,  0.000 sec (  0.036%)
 ANC generation                 ...        0 min,  0.000 sec (  0.032%)
 coordinate transformation      ...        0 min,  0.000 sec (  0.031%)
 single point calculation       ...        0 min,  0.205 sec ( 99.226%)
 optimization log               ...        0 min,  0.000 sec (  0.186%)
 hessian update                 ...        0 min,  0.000 sec (  0.030%)
 rational function              ...        0 min,  0.000 sec (  0.230%)

================
 final structure:
================
6
 xtb: 6.2.3 (830e466)
F        -4.16603324219732   -0.24900466593559    0.07327597070670
Cl        3.10859150565102    0.17013011338881   -0.05776781936472
C        -0.76799446731729   -0.03987300592308    0.01587180424408
H        -0.75395418754858   -0.62272867710766   -0.87886140432140
H        -0.72587567925362   -0.52277499825023    0.96721822000544
H        -0.83768392933550    1.02415123382705   -0.04102677127189
 
 Bond Distances (Angstroems)
 ---------------------------
C3-H4=1.0679         C3-H5=1.0677         C3-H6=1.0678         H4-C3=1.0679         H5-C3=1.0677         H6-C3=1.0678         
 C  H  Rav=1.0678 sigma=0.0001  Rmin=1.0677  Rmax=1.0679     3
 
 selected bond angles (degree)
 --------------------
H5-C3-H4=119.94                H6-C3-H4=120.00                H6-C3-H5=120.05                
 
 selected dihedral angles (degree)
 ---------------------------------

 
 CMA Distance (Angstroems)
 ---------------------------
R(CMA):  6.1313
           -------------------------------------------------
          |                Final Singlepoint                |
           -------------------------------------------------

          ...................................................
          :                      SETUP                      :
          :.................................................:
          :  # basis functions                  21          :
          :  # atomic orbitals                  20          :
          :  # shells                           10          :
          :  # electrons                        22          :
          :  max. iterations                   250          :
          :  Hamiltonian                  GFN2-xTB          :
          :  restarted?                      false          :
          :  GBSA solvation                  false          :
          :  PC potential                    false          :
          :  electronic temp.          300.0000000     K    :
          :  accuracy                    1.0000000          :
          :  -> integral cutoff          0.2500000E+02      :
          :  -> integral neglect         0.1000000E-07      :
          :  -> SCF convergence          0.1000000E-05 Eh   :
          :  -> wf. convergence          0.1000000E-03 e    :
          :  Broyden damping             0.4000000          :
          ...................................................

 iter      E             dE          RMSdq      gap      omega  full diag
   1    -13.1178526 -0.131179E+02  0.342E-04    0.11       0.0  T
   2    -13.1178513  0.133207E-05  0.116E-02    0.11       3.5  T
   3    -13.1178523 -0.104676E-05  0.531E-03    0.11       7.7  T
   4    -13.1178520  0.328287E-06  0.981E-03    0.11       4.2  T
   5    -13.1178526 -0.606384E-06  0.110E-03    0.11      37.3  T
   6    -13.1178526 -0.777387E-08  0.626E-05    0.11     651.9  T
   7    -13.1178526 -0.219327E-10  0.205E-05    0.11    1996.3  T

   *** convergence criteria satisfied after 7 iterations ***

         #    Occupation            Energy/Eh            Energy/eV
      -------------------------------------------------------------
         1        2.0000           -0.8627152             -23.4757
       ...           ...                  ...                  ...
         5        2.0000           -0.3781981             -10.2913
         6        1.9798           -0.2445874              -6.6556
         7        1.9263           -0.2433327              -6.6214
         8        1.9263           -0.2433325              -6.6214
         9        1.9058           -0.2430899              -6.6148
        10        1.9015           -0.2430452              -6.6136
        11        1.9015           -0.2430450              -6.6136 (HOMO)
        12        0.4588           -0.2390813              -6.5057 (LUMO)
        13                          0.2267502               6.1702
        14                          0.2426630               6.6032
        15                          0.2427414               6.6053
        16                          0.2427415               6.6053
       ...                                ...                  ...
        20                          0.3955927              10.7646
      -------------------------------------------------------------
                  HL-Gap            0.0039637 Eh            0.1079 eV
             Fermi-level           -0.2402325 Eh           -6.5371 eV

 SCC (total)                   0 d,  0 h,  0 min,  0.002 sec
 SCC setup                      ...        0 min,  0.000 sec (  2.575%)
 Dispersion                     ...        0 min,  0.000 sec (  0.425%)
 integral evaluation            ...        0 min,  0.001 sec ( 34.282%)
 zeroth order Hamiltonian       ...        0 min,  0.000 sec (  0.592%)
 iterations                     ...        0 min,  0.001 sec ( 29.210%)
 molecular gradient             ...        0 min,  0.001 sec ( 27.691%)
 printout                       ...        0 min,  0.000 sec (  4.158%)

         :::::::::::::::::::::::::::::::::::::::::::::::::::::
         ::                     SUMMARY                     ::
         :::::::::::::::::::::::::::::::::::::::::::::::::::::
         :: total energy             -13.058067191079 Eh    ::
         :: gradient norm              0.000931199466 Eh/a0 ::
         :: HOMO-LUMO gap              0.107857780309 eV    ::
         ::.................................................::
         :: SCC energy               -13.117852600485 Eh    ::
         :: -> isotropic ES            0.155846515036 Eh    ::
         :: -> anisotropic ES         -0.000943547915 Eh    ::
         :: -> anisotropic XC          0.006646728878 Eh    ::
         :: -> dispersion             -0.001340375623 Eh    ::
         :: repulsion energy           0.059789656662 Eh    ::
         :: add. restraining           0.000000117793 Eh    ::
         :::::::::::::::::::::::::::::::::::::::::::::::::::::

           -------------------------------------------------
          |                Property Printout                |
           -------------------------------------------------

    * Orbital Energies and Occupations

         #    Occupation            Energy/Eh            Energy/eV
      -------------------------------------------------------------
         1        2.0000           -0.8627152             -23.4757
         2        2.0000           -0.5297839             -14.4162
         3        2.0000           -0.4763288             -12.9616
         4        2.0000           -0.3783266             -10.2948
         5        2.0000           -0.3781981             -10.2913
         6        1.9798           -0.2445874              -6.6556
         7        1.9263           -0.2433327              -6.6214
         8        1.9263           -0.2433325              -6.6214
         9        1.9058           -0.2430899              -6.6148
        10        1.9015           -0.2430452              -6.6136
        11        1.9015           -0.2430450              -6.6136 (HOMO)
        12        0.4588           -0.2390813              -6.5057 (LUMO)
        13                          0.2267502               6.1702
        14                          0.2426630               6.6032
        15                          0.2427414               6.6053
        16                          0.2427415               6.6053
        17                          0.2430905               6.6148
        18                          0.2430905               6.6148
        19                          0.3949572              10.7473
        20                          0.3955927              10.7646
      -------------------------------------------------------------
                  HL-Gap            0.0039637 Eh            0.1079 eV
             Fermi-level           -0.2402325 Eh           -6.5371 eV

     #   Z        covCN         q      C6AA      α(0)
     1   9 F      0.000    -0.538    15.875     4.641
     2  17 Cl     0.000    -0.624   112.553    16.146
     3   6 C      2.780    -0.086    30.138     8.992
     4   1 H      0.927     0.083     1.951     2.184
     5   1 H      0.927     0.083     1.952     2.185
     6   1 H      0.927     0.082     1.953     2.186

 Mol. C6AA /au·bohr⁶  :        582.567693
 Mol. C8AA /au·bohr⁸  :      16516.900592
 Mol. α(0) /au        :         36.333227


Wiberg/Mayer (AO) data.
largest (>0.10) Wiberg bond orders for each atom
          total WBO             WBO to atom ...
     1  F   0.266        C    3 0.266
     2  Cl  0.163        C    3 0.163
     3  C   3.404        H    6 0.992    H    5 0.992    H    4 0.992    F    1 0.266    Cl   2 0.163
     4  H   0.993        C    3 0.992
     5  H   0.993        C    3 0.992
     6  H   0.993        C    3 0.992

molecular dipole:
                 x           y           z       tot (Debye)
 q only:        0.330       0.040      -0.002
   full:        0.311       0.038      -0.001       0.796
molecular quadrupole (traceless):
                xx          xy          yy          xz          yz          zz
 q only:      -54.911      -4.773      27.330       1.483       0.086      27.580
  q+dip:      -56.045      -4.874      27.896       1.514       0.087      28.149
   full:      -55.128      -4.792      27.440       1.489       0.086      27.689

           -------------------------------------------------
          |                Geometry Summary                 |
           -------------------------------------------------

      molecular mass/u    :       69.4858989
   center of mass at/Å    :        0.2806415       0.0100697      -0.0060095
  moments of inertia/u·Å² :        0.3449993E+01   0.6799066E+03   0.6799103E+03
rotational constants/cm⁻¹ :        0.4886280E+01   0.2479404E-01   0.2479391E-01

 * 3 selected distances

     #   Z        #   Z                                     value/Å
     3   6 C      4   1 H                                 1.0679257 (max)
     3   6 C      5   1 H                                 1.0677211 (min)
     3   6 C      6   1 H                                 1.0678210

 * 1 distinct bonds (by element types)

   Z      Z             #   av. dist./Å        max./Å        min./Å
   1 H    6 C           3     1.0678226     1.0679257     1.0677211


optimized geometry written to: xtbopt.xyz


           -------------------------------------------------
          | TOTAL ENERGY              -13.058067191079 Eh   |
          | GRADIENT NORM               0.000931199466 Eh/α |
          | HOMO-LUMO GAP               0.107857780309 eV   |
           -------------------------------------------------
########################################################################
[WARNING] Runtime exception occurred
-2- scf: Self consistent charge iterator did not converge
-1- scf: Self consistent charge iterator did not converge
########################################################################

------------------------------------------------------------------------
 * finished run on 2020/04/08 at 23:04:51.456     
------------------------------------------------------------------------
 total:
 * wall-time:     0 d,  0 h,  0 min,  0.330 sec
 *  cpu-time:     0 d,  0 h,  0 min,  0.330 sec
 * ratio c/w:     1.000 speedup
 SCF:
 * wall-time:     0 d,  0 h,  0 min,  0.115 sec
 *  cpu-time:     0 d,  0 h,  0 min,  0.115 sec
 * ratio c/w:     1.000 speedup
 ANC optimizer:
 * wall-time:     0 d,  0 h,  0 min,  0.209 sec
 *  cpu-time:     0 d,  0 h,  0 min,  0.209 sec
 * ratio c/w:     1.000 speedup

