      -----------------------------------------------------------      
     |                   =====================                   |     
     |                           x T B                           |     
     |                   =====================                   |     
     |                         S. Grimme                         |     
     |          Mulliken Center for Theoretical Chemistry        |     
     |                    University of Bonn                     |     
      -----------------------------------------------------------      

   * xtb version 6.2.3 (830e466) compiled by 'ehlert@majestix' on 2020-03-16

   xtb is free software: you can redistribute it and/or modify it under
   the terms of the GNU Lesser General Public License as published by
   the Free Software Foundation, either version 3 of the License, or
   (at your option) any later version.
   
   xtb is distributed in the hope that it will be useful,
   but WITHOUT ANY WARRANTY; without even the implied warranty of
   MERCHANTABILITY or FITNESS FOR A PARTICULAR PURPOSE.  See the
   GNU Lesser General Public License for more details.
   
   Cite this work as:
   * S. Grimme, C. Bannwarth, P. Shushkov, J. Chem. Theory Comput., 2017,
     13, 1989-2009. DOI: 10.1021/acs.jctc.7b00118
   * C. Bannwarth, S. Ehlert and S. Grimme., J. Chem. Theory Comput., 2019,
     15, 1652-1671. DOI: 10.1021/acs.jctc.8b01176
   * P. Pracht, E. Caldeweyher, S. Ehlert, S. Grimme, ChemRxiv, 2019, preprint.
     DOI: 10.26434/chemrxiv.8326202.v1
   
   for DFT-D4:
   * E. Caldeweyher, C. Bannwarth and S. Grimme, J. Chem. Phys., 2017,
     147, 034112. DOI: 10.1063/1.4993215
   * E. Caldeweyher, S. Ehlert, A. Hansen, H. Neugebauer, S. Spicher,
     C. Bannwarth and S. Grimme, J. Chem. Phys., 2019, 150, 154122.
     DOI: 10.1063/1.5090222
   
   for sTDA-xTB:
   * S. Grimme and C. Bannwarth, J. Chem. Phys., 2016, 145, 054103.
     DOI: 10.1063/1.4959605
   
   in the mass-spec context:
   * V. Asgeirsson, C. Bauer and S. Grimme, Chem. Sci., 2017, 8, 4879.
     DOI: 10.1039/c7sc00601b
   
   for metadynamics refer to:
   * S. Grimme, J. Chem. Theory Comput., 2019, 155, 2847-2862
     DOI: 10.1021/acs.jctc.9b00143
   
   with help from (in alphabetical order)
   C. Bannwarth, F. Bohle, G. Brandenburg, E. Caldeweyher, M. Checinski,
   S. Dohm, S. Ehlert, S. Ehrlich, F. März, H. Neugebauer, J. Pisarek,
   P. Pracht, P. Shushkov, and S. Spicher.
   
 * started run on 2020/04/08 at 23:04:44.294     

           -------------------------------------------------
          |                Calculation Setup                |
           -------------------------------------------------

          program call               : /home/tom/.local/bin/xtb SN2_PES_scan_0-6_xtb.xyz --chrg -1 --opt --input xcontrol_SN2_PES_scan_0-6
          coordinate file            : SN2_PES_scan_0-6_xtb.xyz
          omp threads                :                     1
          number of atoms            :                     6
          number of electrons        :                    22
          charge                     :                    -1
          spin                       :                   0.0
          first test random number   :      0.22607403538017

constraining bond 1 3 to    4.0050000 Å, actual value:    4.0000086 Å
constraining bond 2 3 to    3.5830000 Å, actual value:    3.9999650 Å

molecular fragmentation (1/2 indicates fragments):
122222
# atoms in fragment 1/2:     1     5
 fragment masses (1/2) :       19.00       50.49
CMA distance (Bohr)    :  12.868
constraining FC (au)   : 10.0000
########################################################################
[WARNING] Please study the warnings concerning your input carefully
-2- prog_main: XTBPATH is not set, using XTBHOME instead
-1- prog_main: XTBHOME is not set, using HOME instead
########################################################################
           ------------------------------------------------- 
          |                 G F N 2 - x T B                 |
          | Geometry, Frequencies, Noncovalent interactions |
          |            JCTC 2019 parametrisation            |
           ------------------------------------------------- 
             k(s)              :                1.8500
             k(p)              :                2.2300
             k(d)              :                2.2300
             k(f)              :                2.0000
             kEN (H0ij)        :               -2.0000
             D4 a1             :                0.5200
             D4 a2             :                5.0000
             D4 s6             :                1.0000
             D4 s8             :                2.7000
             D4 s9             :                5.0000
             alphaj            :                2.0000

  Z AO/shell   Hii/eV     exponent
  1     Wed Apr 25 08:07:45 CEST 2018   EN: 2.200 GM2: 0.406  GM3: 0.0800  RAES: 1.40
     1s    -10.707211    1.230000
  6     Wed Apr 25 08:07:45 CEST 2018   EN: 2.550 GM2: 0.538  GM3: 0.1500  RAES: 3.00
     2s    -13.970922    2.096432
     2p    -10.063292    1.800000
  9     Mon Apr 23 13:58:50 CEST 2018   EN: 3.980 GM2: 0.532  GM3: 0.1426  RAES: 2.40
     2s    -23.458179    2.416361
     2p    -15.746583    2.308399
 17     Mon Apr 23 14:09:22 CEST 2018   EN: 3.160 GM2: 0.249  GM3: 0.1495  RAES: 2.50
     3s    -29.278781    2.485265
     3p    -12.673758    2.199650
     3d     -0.240338    2.476089

           ------------------------------------------------- 
          |        Self-Consistent Charge Iterations        |
           ------------------------------------------------- 

          ...................................................
          :                      SETUP                      :
          :.................................................:
          :  # basis functions                  21          :
          :  # atomic orbitals                  20          :
          :  # shells                           10          :
          :  # electrons                        22          :
          :  max. iterations                   250          :
          :  Hamiltonian                  GFN2-xTB          :
          :  restarted?                      false          :
          :  GBSA solvation                  false          :
          :  PC potential                    false          :
          :  electronic temp.          300.0000000     K    :
          :  accuracy                    1.0000000          :
          :  -> integral cutoff          0.2500000E+02      :
          :  -> integral neglect         0.1000000E-07      :
          :  -> SCF convergence          0.1000000E-05 Eh   :
          :  -> wf. convergence          0.1000000E-03 e    :
          :  Broyden damping             0.4000000          :
          ...................................................

 iter      E             dE          RMSdq      gap      omega  full diag
   1    -12.7843123 -0.127843E+02  0.106E+01    1.16       0.0  T
   2    -12.1075269  0.676785E+00  0.106E+01    0.00       1.0  T
   3    -12.4673337 -0.359807E+00  0.911E+00    0.00       1.0  T
   4    -12.8225730 -0.355239E+00  0.834E+00    1.52       1.0  T
   5    -12.4457799  0.376793E+00  0.994E+00    0.00       1.0  T
   6    -12.2257466  0.220033E+00  0.103E+01    0.00       1.0  T
   7    -12.2369579 -0.112113E-01  0.957E+00    0.00       1.0  T
   8    -12.2315778  0.538004E-02  0.999E+00    0.00       1.0  T
   9    -12.2288762  0.270166E-02  0.103E+01    0.00       1.0  T
  10    -12.2268591  0.201703E-02  0.104E+01    0.00       1.0  T
  11    -12.2333163 -0.645715E-02  0.993E+00    0.00       1.0  T
  12    -12.8587076 -0.625391E+00  0.659E+00    0.76       1.0  T
  13    -12.2091178  0.649590E+00  0.113E+01    0.00       1.0  T
  14    -12.2307771 -0.216593E-01  0.974E+00    0.00       1.0  T
  15    -12.8650458 -0.634269E+00  0.646E+00    0.64       1.0  T
  16    -12.2241590  0.640887E+00  0.990E+00    0.00       1.0  T
  17    -12.9340086 -0.709850E+00  0.575E+00    0.18       1.0  T
  18    -13.0214874 -0.874788E-01  0.401E+00    0.11       1.0  T
  19    -13.0121525  0.933487E-02  0.423E+00    0.12       1.0  T
  20    -12.2171748  0.794978E+00  0.101E+01    0.00       1.0  T
  21    -12.4542766 -0.237102E+00  0.107E+01    0.00       1.0  T
  22    -12.2023945  0.251882E+00  0.112E+01    0.00       1.0  T
  23    -12.4404161 -0.238022E+00  0.120E+01    0.00       1.0  T
  24    -12.4369871  0.342901E-02  0.124E+01    0.00       1.0  T
  25    -12.1958236  0.241164E+00  0.122E+01    0.00       1.0  T
  26    -12.1812512  0.145724E-01  0.132E+01    0.00       1.0  T
  27    -12.2136741 -0.324229E-01  0.106E+01    0.00       1.0  T
  28    -12.8524843 -0.638810E+00  0.715E+00    0.04       1.0  T
  29    -12.2233814  0.629103E+00  0.976E+00    0.00       1.0  T
  30    -12.7846831 -0.561302E+00  0.866E+00    0.04       1.0  T
  31    -12.4807551  0.303928E+00  0.113E+01    0.02       1.0  T
  32    -12.4799105  0.844631E-03  0.113E+01    0.02       1.0  T
  33    -13.0416292 -0.561719E+00  0.538E+00    0.08       1.0  T
  34    -12.5071174  0.534512E+00  0.117E+01    0.03       1.0  T
  35    -12.5076712 -0.553745E-03  0.117E+01    0.03       1.0  T
  36    -12.5061868  0.148438E-02  0.107E+01    0.03       1.0  T
  37    -12.2059177  0.300269E+00  0.112E+01    0.00       1.0  T
  38    -12.2306760 -0.247583E-01  0.958E+00    0.00       1.0  T
  39    -12.8656567 -0.634981E+00  0.664E+00    0.55       1.0  T
  40    -12.2145796  0.651077E+00  0.107E+01    0.00       1.0  T
  41    -12.9899052 -0.775326E+00  0.342E+00    0.02       1.0  T
  42    -12.9070595  0.828457E-01  0.596E+00    0.20       1.0  T
  43    -12.2107194  0.696340E+00  0.109E+01    0.00       1.0  T
  44    -13.0406090 -0.829890E+00  0.323E+00    0.10       1.0  T
  45    -12.2098859  0.830723E+00  0.107E+01    0.00       1.0  T
  46    -12.5963169 -0.386431E+00  0.878E+00    0.02       1.0  T
  47    -12.1997495  0.396567E+00  0.114E+01    0.00       1.0  T
  48    -12.2205213 -0.207718E-01  0.100E+01    0.02       1.0  T
  49    -12.2365812 -0.160599E-01  0.955E+00    0.05       1.0  T
  50    -12.8884781 -0.651897E+00  0.687E+00    0.26       1.0  T
  51    -12.2193001  0.669178E+00  0.102E+01    0.04       1.0  T
  52    -13.0440687 -0.824769E+00  0.480E+00    0.08       1.0  T
  53    -12.2152509  0.828818E+00  0.103E+01    0.05       1.0  T
  54    -12.8025901 -0.587339E+00  0.775E+00    0.03       1.0  T
  55    -12.2136960  0.588894E+00  0.106E+01    0.07       1.0  T
  56    -12.9476144 -0.733918E+00  0.683E+00    0.17       1.0  T
  57    -12.2176680  0.729946E+00  0.104E+01    0.09       1.0  T
  58    -12.7045211 -0.486853E+00  0.915E+00    0.02       1.0  T
  59    -12.2263709  0.478150E+00  0.982E+00    0.12       1.0  T
  60    -12.9519572 -0.725586E+00  0.695E+00    0.04       1.0  T
  61    -12.2529203  0.699037E+00  0.950E+00    0.14       1.0  T
  62    -12.7973363 -0.544416E+00  0.845E+00    0.03       1.0  T
  63    -12.8210211 -0.236848E-01  0.790E+00    0.03       1.0  T
  64    -13.0368311 -0.215810E+00  0.555E+00    0.10       1.0  T
  65    -12.2298137  0.807017E+00  0.965E+00    0.13       1.0  T
  66    -12.7140327 -0.484219E+00  0.912E+00    0.02       1.0  T
  67    -12.9625097 -0.248477E+00  0.703E+00    0.04       1.0  T
  68    -12.5197279  0.442782E+00  0.105E+01    0.00       1.0  T
  69    -13.0413751 -0.521647E+00  0.618E+00    0.07       1.0  T
  70    -12.4740333  0.567342E+00  0.107E+01    0.00       1.0  T
  71    -12.9338202 -0.459787E+00  0.724E+00    0.04       1.0  T
  72    -12.5318709  0.401949E+00  0.102E+01    0.00       1.0  T
  73    -13.0314873 -0.499616E+00  0.587E+00    0.10       1.0  T
  74    -12.4738223  0.557665E+00  0.105E+01    0.00       1.0  T
  75    -12.9598521 -0.486030E+00  0.661E+00    0.04       1.0  T
  76    -12.5454185  0.414434E+00  0.995E+00    0.00       1.0  T
  77    -12.9931790 -0.447761E+00  0.598E+00    0.12       1.0  T
  78    -12.4748170  0.518362E+00  0.103E+01    0.00       1.0  T
  79    -13.0359652 -0.561148E+00  0.526E+00    0.07       1.0  T
  80    -12.5001799  0.535785E+00  0.101E+01    0.00       1.0  T
  81    -12.9486486 -0.448469E+00  0.618E+00    0.15       1.0  T
  82    -12.4892230  0.459426E+00  0.993E+00    0.00       1.0  T
  83    -12.9564540 -0.467231E+00  0.594E+00    0.15       1.0  T
  84    -12.5205673  0.435887E+00  0.963E+00    0.00       1.0  T
  85    -12.8996207 -0.379053E+00  0.642E+00    0.21       1.0  T
  86    -13.0304851 -0.130864E+00  0.360E+00    0.06       1.0  T
  87    -12.9045531  0.125932E+00  0.594E+00    0.22       1.0  T
  88    -12.9574563 -0.529032E-01  0.498E+00    0.17       1.0  T
  89    -12.2244668  0.732990E+00  0.996E+00    0.00       1.0  T
  90    -12.9436478 -0.719181E+00  0.534E+00    0.17       1.0  T
  91    -12.9881264 -0.444787E-01  0.470E+00    0.13       1.0  T
  92    -12.9923781 -0.425171E-02  0.447E+00    0.05       1.0  T
  93    -13.0428674 -0.504892E-01  0.398E+00    0.08       1.0  T
  94    -12.9351801  0.107687E+00  0.542E+00    0.04       1.0  T
  95    -12.9629323 -0.277522E-01  0.520E+00    0.15       1.0  T
  96    -12.9802371 -0.173049E-01  0.463E+00    0.14       1.0  T
  97    -12.9043429  0.758942E-01  0.569E+00    0.24       1.0  T
  98    -12.2253539  0.678989E+00  0.982E+00    0.00       1.0  T
  99    -13.0102560 -0.784902E+00  0.405E+00    0.12       1.0  T
 100    -12.9386557  0.716003E-01  0.542E+00    0.17       1.0  T
 101    -12.9381349  0.520719E-03  0.531E+00    0.18       1.0  T
 102    -12.9134043  0.247306E-01  0.561E+00    0.22       1.0  T
 103    -12.9054187  0.798561E-02  0.569E+00    0.25       1.0  T
 104    -12.7284208  0.176998E+00  0.613E+00    0.00       1.0  T
 105    -13.0393422 -0.310921E+00  0.354E+00    0.09       1.0  T
 106    -12.9444771  0.948651E-01  0.531E+00    0.17       1.0  T
 107    -12.9369030  0.757413E-02  0.530E+00    0.18       1.0  T
 108    -12.9187871  0.181159E-01  0.553E+00    0.21       1.0  T
 109    -12.9094219  0.936524E-02  0.564E+00    0.23       1.0  T
 110    -12.9069291  0.249272E-02  0.567E+00    0.24       1.0  T
 111    -12.9078576 -0.928488E-03  0.566E+00    0.25       1.0  T
 112    -12.9030049  0.485272E-02  0.571E+00    0.25       1.0  T
 113    -12.9028769  0.128030E-03  0.571E+00    0.25       1.0  T
 114    -12.9036146 -0.737772E-03  0.570E+00    0.24       1.0  T
 115    -12.9058982 -0.228354E-02  0.566E+00    0.24       1.0  T
 116    -12.9098254 -0.392722E-02  0.561E+00    0.23       1.0  T
 117    -12.9810846 -0.712592E-01  0.468E+00    0.15       1.0  T
 118    -12.9317299  0.493547E-01  0.527E+00    0.19       1.0  T
 119    -13.0051008 -0.733709E-01  0.429E+00    0.13       1.0  T
 120    -12.9511383  0.539625E-01  0.495E+00    0.17       1.0  T
 121    -13.0561667 -0.105028E+00  0.329E+00    0.10       1.0  T
 122    -12.9844887  0.716780E-01  0.438E+00    0.14       1.0  T
 123    -12.9761862  0.830258E-02  0.468E+00    0.16       1.0  T
 124    -13.0473376 -0.711514E-01  0.344E+00    0.11       1.0  T
 125    -12.9930691  0.542685E-01  0.418E+00    0.13       1.0  T
 126    -13.0856226 -0.925535E-01  0.240E+00    0.08       1.0  T
 127    -13.0236395  0.619832E-01  0.356E+00    0.11       1.0  T
 128    -13.0110062  0.126333E-01  0.414E+00    0.13       1.0  T
 129    -12.9810719  0.299343E-01  0.439E+00    0.14       1.0  T
 130    -13.0878447 -0.106773E+00  0.187E+00    0.06       1.0  T
 131    -13.0468167  0.410279E-01  0.295E+00    0.08       1.0  T
 132    -13.0762751 -0.294584E-01  0.209E+00    0.05       1.0  T
 133    -13.0210181  0.552571E-01  0.369E+00    0.11       1.0  T
 134    -12.9448859  0.761321E-01  0.504E+00    0.18       1.0  T
 135    -12.9653397 -0.204537E-01  0.467E+00    0.16       1.0  T
 136    -13.0860518 -0.120712E+00  0.237E+00    0.09       1.0  T
 137    -13.0343184  0.517334E-01  0.321E+00    0.10       1.0  T
 138    -12.6190111  0.415307E+00  0.700E+00    0.00       1.0  T
 139    -13.0109063 -0.391895E+00  0.389E+00    0.05       1.0  T
 140    -12.9226945  0.882118E-01  0.545E+00    0.21       1.0  T
 141    -12.9358261 -0.131316E-01  0.516E+00    0.19       1.0  T
 142    -12.9780983 -0.422722E-01  0.442E+00    0.15       1.0  T
 143    -13.0678234 -0.897251E-01  0.288E+00    0.10       1.0  T
 144    -13.0271260  0.406974E-01  0.334E+00    0.11       1.0  T
 145    -12.2458952  0.781231E+00  0.943E+00    0.00       1.0  T
 146    -12.9404639 -0.694569E+00  0.511E+00    0.04       1.0  T
 147    -12.5503011  0.390163E+00  0.748E+00    0.00       1.0  T
 148    -12.9139620 -0.363661E+00  0.581E+00    0.20       1.0  T
 149    -12.9927356 -0.787736E-01  0.440E+00    0.13       1.0  T
 150    -12.9681363  0.245993E-01  0.472E+00    0.15       1.0  T
 151    -12.9821025 -0.139662E-01  0.441E+00    0.14       1.0  T
 152    -12.9842511 -0.214859E-02  0.431E+00    0.14       1.0  T
 153    -13.0986280 -0.114377E+00  0.158E+00    0.07       1.0  T
 154    -13.0480706  0.505574E-01  0.274E+00    0.08       1.0  T
 155    -12.2370999  0.810971E+00  0.948E+00    0.00       1.0  T
 156    -13.0434080 -0.806308E+00  0.345E+00    0.07       1.0  T
 157    -12.9123156  0.131092E+00  0.557E+00    0.22       1.0  T
 158    -12.9888972 -0.765816E-01  0.424E+00    0.14       1.0  T
 159    -13.0024836 -0.135864E-01  0.391E+00    0.13       1.0  T
 160    -12.2326400  0.769844E+00  0.952E+00    0.00       1.0  T
 161    -12.9202148 -0.687575E+00  0.544E+00    0.04       1.0  T
 162    -13.0463568 -0.126142E+00  0.259E+00    0.05       1.0  T
 163    -12.9184016  0.127955E+00  0.560E+00    0.20       1.0  T
 164    -13.0092049 -0.908032E-01  0.390E+00    0.12       1.0  T
 165    -12.9893275  0.198774E-01  0.418E+00    0.14       1.0  T
 166    -12.8172455  0.172082E+00  0.538E+00    0.00       1.0  T
 167    -12.9973667 -0.180121E+00  0.402E+00    0.05       1.0  T
 168    -12.4692175  0.528149E+00  0.804E+00    0.00       1.0  T
 169    -12.9591477 -0.489930E+00  0.516E+00    0.15       1.0  T
 170    -13.0150387 -0.558911E-01  0.389E+00    0.12       1.0  T
 171    -12.9804246  0.346141E-01  0.440E+00    0.14       1.0  T
 172    -13.0072785 -0.268539E-01  0.379E+00    0.12       1.0  T
 173    -12.2456539  0.761625E+00  0.943E+00    0.00       1.0  T
 174    -12.9520555 -0.706402E+00  0.497E+00    0.04       1.0  T
 175    -13.0054360 -0.533804E-01  0.428E+00    0.13       1.0  T
 176    -12.9506748  0.547612E-01  0.492E+00    0.17       1.0  T
 177    -13.0169440 -0.662692E-01  0.356E+00    0.12       1.0  T
 178    -12.2387450  0.778199E+00  0.948E+00    0.00       1.0  T
 179    -12.9590811 -0.720336E+00  0.485E+00    0.04       1.0  T
 180    -13.0310112 -0.719301E-01  0.383E+00    0.12       1.0  T
 181    -12.9501572  0.808540E-01  0.494E+00    0.17       1.0  T
 182    -13.0144077 -0.642505E-01  0.363E+00    0.12       1.0  T
 183    -12.2685032  0.745904E+00  0.930E+00    0.00       1.0  T
 184    -12.9686683 -0.700165E+00  0.469E+00    0.04       1.0  T
 185    -12.9964912 -0.278229E-01  0.442E+00    0.14       1.0  T
 186    -12.9570548  0.394364E-01  0.480E+00    0.16       1.0  T
 187    -13.0147703 -0.577155E-01  0.360E+00    0.12       1.0  T
 188    -12.2316733  0.783097E+00  0.952E+00    0.00       1.0  T
 189    -12.9565713 -0.724898E+00  0.487E+00    0.04       1.0  T
 190    -13.0857589 -0.129188E+00  0.221E+00    0.07       1.0  T
 191    -12.9461731  0.139586E+00  0.508E+00    0.17       1.0  T
 192    -13.0145696 -0.683965E-01  0.368E+00    0.12       1.0  T
 193    -13.0988227 -0.842531E-01  0.179E+00    0.08       1.0  T
 194    -13.0463359  0.524868E-01  0.272E+00    0.09       1.0  T
 195    -12.2282168  0.818119E+00  0.956E+00    0.00       1.0  T
 196    -13.0234148 -0.795198E+00  0.371E+00    0.06       1.0  T
 197    -12.9092629  0.114152E+00  0.555E+00    0.23       1.0  T
 198    -12.9919480 -0.826852E-01  0.411E+00    0.13       1.0  T
 199    -12.8296056  0.162342E+00  0.527E+00    0.01       1.0  T
 200    -13.0113407 -0.181735E+00  0.369E+00    0.05       1.0  T
 201    -12.7337531  0.277588E+00  0.607E+00    0.00       1.0  T
 202    -12.9897556 -0.256002E+00  0.450E+00    0.13       1.0  T
 203    -13.0128241 -0.230686E-01  0.380E+00    0.12       1.0  T
 204    -13.0011612  0.116629E-01  0.392E+00    0.13       1.0  T
 205    -12.7950740  0.206087E+00  0.560E+00    0.00       1.0  T
 206    -13.0120626 -0.216989E+00  0.369E+00    0.05       1.0  T
 207    -12.9578106  0.542520E-01  0.380E+00    0.03       1.0  T
 208    -13.0007352 -0.429246E-01  0.419E+00    0.13       1.0  T
 209    -13.0139039 -0.131687E-01  0.371E+00    0.12       1.0  T
 210    -13.0278685 -0.139646E-01  0.343E+00    0.12       1.0  T
 211    -12.2370193  0.790849E+00  0.949E+00    0.00       1.0  T
 212    -12.9600632 -0.723044E+00  0.480E+00    0.04       1.0  T
 213    -13.0859843 -0.125921E+00  0.227E+00    0.08       1.0  T
 214    -12.9677663  0.118218E+00  0.470E+00    0.15       1.0  T
 215    -13.0274815 -0.597153E-01  0.333E+00    0.11       1.0  T
 216    -12.6055127  0.421969E+00  0.713E+00    0.00       1.0  T
 217    -13.0247232 -0.419210E+00  0.354E+00    0.06       1.0  T
 218    -12.9390239  0.856993E-01  0.514E+00    0.21       1.0  T
 219    -13.0154629 -0.764390E-01  0.358E+00    0.12       1.0  T
 220    -12.2549429  0.760520E+00  0.938E+00    0.00       1.0  T
 221    -12.9866283 -0.731685E+00  0.435E+00    0.05       1.0  T
 222    -12.9955779 -0.894959E-02  0.441E+00    0.14       1.0  T
 223    -12.9907966  0.478128E-02  0.415E+00    0.14       1.0  T
 224    -13.0632947 -0.724981E-01  0.264E+00    0.11       1.0  T
 225    -12.2278537  0.835441E+00  0.956E+00    0.00       1.0  T
 226    -12.9672515 -0.739398E+00  0.466E+00    0.04       1.0  T
 227    -13.0617369 -0.944854E-01  0.314E+00    0.10       1.0  T
 228    -12.9799447  0.817922E-01  0.442E+00    0.14       1.0  T
 229    -13.0267988 -0.468541E-01  0.330E+00    0.11       1.0  T
 230    -12.2357546  0.791044E+00  0.949E+00    0.00       1.0  T
 231    -13.0101858 -0.774431E+00  0.392E+00    0.05       1.0  T
 232    -12.9194595  0.907263E-01  0.541E+00    0.22       1.0  T
 233    -13.0040719 -0.846124E-01  0.384E+00    0.13       1.0  T
 234    -12.5647334  0.439338E+00  0.743E+00    0.00       1.0  T
 235    -13.0089044 -0.444171E+00  0.383E+00    0.05       1.0  T
 236    -13.0218155 -0.129111E-01  0.394E+00    0.13       1.0  T
 237    -13.0113283  0.104872E-01  0.370E+00    0.12       1.0  T
 238    -13.0043553  0.697302E-02  0.323E+00    0.03       1.0  T
 239    -13.0419558 -0.376005E-01  0.285E+00    0.07       1.0  T
 240    -12.5654805  0.476475E+00  0.739E+00    0.00       1.0  T
 241    -13.0352437 -0.469763E+00  0.352E+00    0.10       1.0  T
 242    -12.9882014  0.470424E-01  0.425E+00    0.14       1.0  T
 243    -13.0253929 -0.371915E-01  0.334E+00    0.11       1.0  T
 244    -12.2626984  0.762694E+00  0.933E+00    0.00       1.0  T
 245    -13.0180196 -0.755321E+00  0.376E+00    0.06       1.0  T
 246    -12.9209892  0.970304E-01  0.536E+00    0.21       1.0  T
 247    -13.0160714 -0.950822E-01  0.357E+00    0.12       1.0  T
 248    -12.4208005  0.595271E+00  0.838E+00    0.00       1.0  T
 249    -13.0154467 -0.594646E+00  0.374E+00    0.06       1.0  T
 250    -12.9366940  0.787527E-01  0.517E+00    0.21       1.0  T

   *** convergence criteria cannot be satisfied within 250 iterations ***

         #    Occupation            Energy/Eh            Energy/eV
      -------------------------------------------------------------
         1        2.0000           -0.8693557             -23.6564
       ...           ...                  ...                  ...
         5        2.0000           -0.3800482             -10.3416
         6        1.9905           -0.2494970              -6.7892
         7        1.9880           -0.2492789              -6.7832
         8        1.9867           -0.2491750              -6.7804
         9        1.9867           -0.2491748              -6.7804
        10        1.9843           -0.2490217              -6.7762
        11        1.9843           -0.2490217              -6.7762 (HOMO)
        12        0.0795           -0.2413951              -6.5687 (LUMO)
        13                          0.2237461               6.0884
        14                          0.2347464               6.3878
        15                          0.2347720               6.3885
        16                          0.2347721               6.3885
       ...                                ...                  ...
        20                          0.3927405              10.6870
      -------------------------------------------------------------
                  HL-Gap            0.0076266 Eh            0.2075 eV
             Fermi-level           -0.2444211 Eh           -6.6510 eV

 SCC (total)                   0 d,  0 h,  0 min,  0.144 sec
 SCC setup                      ...        0 min,  0.000 sec (  0.147%)
 Dispersion                     ...        0 min,  0.000 sec (  0.028%)
 integral evaluation            ...        0 min,  0.002 sec (  1.555%)
 zeroth order Hamiltonian       ...        0 min,  0.000 sec (  0.031%)
 iterations                     ...        0 min,  0.141 sec ( 97.767%)
 molecular gradient             ...        0 min,  0.001 sec (  0.394%)
 printout                       ...        0 min,  0.000 sec (  0.042%)

         :::::::::::::::::::::::::::::::::::::::::::::::::::::
         ::                     SUMMARY                     ::
         :::::::::::::::::::::::::::::::::::::::::::::::::::::
         :: total energy              -6.667534758087 Eh    ::
         :: gradient norm             22.423172591636 Eh/a0 ::
         :: HOMO-LUMO gap              0.207529256324 eV    ::
         ::.................................................::
         :: SCC energy               -12.936693976156 Eh    ::
         :: -> isotropic ES            0.452673890756 Eh    ::
         :: -> anisotropic ES         -0.011705115166 Eh    ::
         :: -> anisotropic XC          0.012191657740 Eh    ::
         :: -> dispersion             -0.001173274981 Eh    ::
         :: repulsion energy           0.059758061889 Eh    ::
         :: add. restraining           6.209535287893 Eh    ::
         :::::::::::::::::::::::::::::::::::::::::::::::::::::

      ----------------------------------------------------------- 
     |                   =====================                   |
     |                        A N C O P T                        |
     |                   =====================                   |
     |               Approximate Normal Coordinate               |
     |                Rational Function Optimizer                |
      ----------------------------------------------------------- 

          ...................................................
          :                      SETUP                      :
          :.................................................:
          :   optimization level            normal          :
          :   max. optcycles                   200          :
          :   ANC micro-cycles                  20          :
          :   degrees of freedom                12          :
          :.................................................:
          :   RF solver                   davidson          :
          :   write xtbopt.log                true          :
          :   linear?                        false          :
          :   energy convergence         0.5000000E-05 Eh   :
          :   grad. convergence          0.1000000E-02 Eh/α :
          :   maximium RF displ.         1.0000000          :
          :   Hlow (freq-cutoff)         0.1000000E-01      :
          :   Hmax (freq-cutoff)         5.0000000          :
          :   S6 in model hess.         20.0000000          :
          ...................................................

generating ANC from model Hessian ...
Using Lindh-Hessian (1995)
 Shifting diagonal of input Hessian by   1.190354909502304E-002
 Lowest  eigenvalues of input Hessian
    0.010000    0.010001   -0.000000   -0.000000   -0.000000   -0.000000
    0.000000    0.000000    0.012077    0.163851    0.163859    0.449699
    0.608185    0.608204    3.853906    3.853911   20.012486   60.012243
 Highest eigenvalues
    0.608185    0.608204    3.853906    3.853911   20.012486   60.012243
 

........................................................................
.............................. CYCLE    1 ..............................
........................................................................
   1    -13.0180555 -0.130181E+02  0.351E+00    0.12       0.0  T
   2    -12.1572027  0.860853E+00  0.111E+01    0.00       1.0  T
   3    -12.6044751 -0.447272E+00  0.848E+00    0.00       1.0  T
   4    -12.2389730  0.365502E+00  0.956E+00    0.00       1.0  T
   5    -12.7102432 -0.471270E+00  0.758E+00    0.01       1.0  T
   6    -13.1031376 -0.392894E+00  0.132E+00    0.07       1.0  T
   7    -12.8207720  0.282366E+00  0.719E+00    0.01       1.0  T
   8    -12.8674012 -0.466292E-01  0.563E+00    0.01       1.0  T
   9    -12.6341840  0.233217E+00  0.836E+00    0.01       1.0  T
  10    -12.9536477 -0.319464E+00  0.390E+00    0.03       1.0  T
  11    -13.0764923 -0.122845E+00  0.193E+00    0.05       1.0  T
  12    -13.0763213  0.171007E-03  0.193E+00    0.05       1.0  T
  13    -12.4820224  0.594299E+00  0.821E+00    0.00       1.0  T
  14    -12.4309781  0.510443E-01  0.886E+00    0.01       1.0  T
  15    -12.9676259 -0.536648E+00  0.477E+00    0.17       1.0  T
  16    -12.3015549  0.666071E+00  0.911E+00    0.00       1.0  T
  17    -13.0470469 -0.745492E+00  0.355E+00    0.11       1.0  T
  18    -12.2390331  0.808014E+00  0.948E+00    0.01       1.0  T
  19    -13.0675338 -0.828501E+00  0.238E+00    0.05       1.0  T
  20    -12.2635480  0.803986E+00  0.932E+00    0.00       1.0  T
  21    -13.0209153 -0.757367E+00  0.305E+00    0.04       1.0  T
  22    -12.3399757  0.680940E+00  0.885E+00    0.00       1.0  T
  23    -13.0360760 -0.696100E+00  0.287E+00    0.04       1.0  T
  24    -12.4186399  0.617436E+00  0.836E+00    0.00       1.0  T
  25    -13.0585472 -0.639907E+00  0.261E+00    0.05       1.0  T
  26    -12.5177766  0.540771E+00  0.770E+00    0.00       1.0  T
  27    -13.0740481 -0.556272E+00  0.249E+00    0.06       1.0  T
  28    -12.6444652  0.429583E+00  0.679E+00    0.00       1.0  T
  29    -13.0801493 -0.435684E+00  0.253E+00    0.07       1.0  T
  30    -12.7896128  0.290537E+00  0.560E+00    0.01       1.0  T
  31    -13.0811990 -0.291586E+00  0.259E+00    0.07       1.0  T
  32    -12.9229524  0.158247E+00  0.429E+00    0.02       1.0  T
  33    -13.0806970 -0.157745E+00  0.257E+00    0.07       1.0  T
  34    -13.0113734  0.693235E-01  0.324E+00    0.04       1.0  T
  35    -13.0778063 -0.664329E-01  0.253E+00    0.06       1.0  T
  36    -13.0518041  0.260022E-01  0.273E+00    0.05       1.0  T
  37    -13.0715690 -0.197649E-01  0.255E+00    0.06       1.0  T
  38    -13.0668919  0.467714E-02  0.259E+00    0.05       1.0  T
  39    -13.0671502 -0.258355E-03  0.259E+00    0.05       1.0  T
  40    -13.0569150  0.102352E-01  0.341E+00    0.10       1.0  T
  41    -13.0638007 -0.688570E-02  0.324E+00    0.09       1.0  T
  42    -13.0576720  0.612876E-02  0.339E+00    0.10       1.0  T
  43    -13.0576482  0.237228E-04  0.339E+00    0.10       1.0  T
  44    -13.0666882 -0.903997E-02  0.318E+00    0.09       1.0  T
  45    -13.0708057 -0.411747E-02  0.307E+00    0.09       1.0  T
  46    -13.0710342 -0.228489E-03  0.308E+00    0.09       1.0  T
  47    -13.0710125  0.217232E-04  0.293E+00    0.09       1.0  T
  48    -12.4488953  0.622117E+00  0.999E+00    0.00       1.0  T
  49    -12.9829791 -0.534084E+00  0.396E+00    0.03       1.0  T
  50    -12.9159870  0.669921E-01  0.562E+00    0.20       1.0  T
  51    -12.4636694  0.452318E+00  0.980E+00    0.00       1.0  T
  52    -12.9486728 -0.485003E+00  0.574E+00    0.15       1.0  T
  53    -13.0531738 -0.104501E+00  0.380E+00    0.08       1.0  T
  54    -13.0046846  0.484891E-01  0.447E+00    0.13       1.0  T
  55    -13.0868718 -0.821872E-01  0.226E+00    0.08       1.0  T
  56    -12.4723284  0.614543E+00  0.971E+00    0.00       1.0  T
  57    -13.0734901 -0.601162E+00  0.315E+00    0.06       1.0  T
  58    -13.0120319  0.614582E-01  0.444E+00    0.12       1.0  T
  59    -13.0826742 -0.706423E-01  0.236E+00    0.07       1.0  T
  60    -13.0953464 -0.126721E-01  0.164E+00    0.07       1.0  T
  61    -12.9021492  0.193197E+00  0.571E+00    0.26       1.0  T
  62    -12.4434885  0.458661E+00  0.102E+01    0.00       1.0  T
  63    -12.2695374  0.173951E+00  0.926E+00    0.02       1.0  T
  64    -12.4520614 -0.182524E+00  0.994E+00    0.00       1.0  T
  65    -12.3226114  0.129450E+00  0.892E+00    0.01       1.0  T
  66    -13.0508344 -0.728223E+00  0.355E+00    0.10       1.0  T
  67    -13.0476805  0.315391E-02  0.361E+00    0.10       1.0  T
  68    -12.9823432  0.653373E-01  0.466E+00    0.15       1.0  T
  69    -12.9788378  0.350539E-02  0.411E+00    0.05       1.0  T
  70    -12.8965019  0.823359E-01  0.589E+00    0.23       1.0  T
  71    -13.0963273 -0.199825E+00  0.191E+00    0.09       1.0  T
  72    -12.4907852  0.605542E+00  0.956E+00    0.00       1.0  T
  73    -13.0614831 -0.570698E+00  0.298E+00    0.04       1.0  T
  74    -13.0108342  0.506489E-01  0.446E+00    0.11       1.0  T
  75    -13.0477518 -0.369176E-01  0.363E+00    0.10       1.0  T
  76    -13.0778757 -0.301239E-01  0.264E+00    0.09       1.0  T
  77    -12.4891825  0.588693E+00  0.956E+00    0.00       1.0  T
  78    -12.6506474 -0.161465E+00  0.677E+00    0.01       1.0  T
  79    -13.0124878 -0.361840E+00  0.428E+00    0.12       1.0  T
  80    -13.0103503  0.213742E-02  0.419E+00    0.13       1.0  T
  81    -12.8142780  0.196072E+00  0.644E+00    0.02       1.0  T
  82    -12.9693526 -0.155075E+00  0.515E+00    0.15       1.0  T
  83    -13.0306789 -0.613263E-01  0.399E+00    0.11       1.0  T
  84    -13.0871262 -0.564473E-01  0.225E+00    0.08       1.0  T
  85    -12.4621848  0.624941E+00  0.981E+00    0.00       1.0  T
  86    -12.5369728 -0.747880E-01  0.758E+00    0.01       1.0  T
  87    -13.0754123 -0.538440E+00  0.302E+00    0.07       1.0  T
  88    -12.9803676  0.950447E-01  0.475E+00    0.14       1.0  T
  89    -13.0887917 -0.108424E+00  0.176E+00    0.10       1.0  T
  90    -12.9619650  0.126827E+00  0.475E+00    0.18       1.0  T
  91    -12.6453073  0.316658E+00  0.819E+00    0.01       1.0  T
  92    -13.0786075 -0.433300E+00  0.303E+00    0.07       1.0  T
  93    -13.0481265  0.304811E-01  0.370E+00    0.10       1.0  T
  94    -13.0841744 -0.360479E-01  0.221E+00    0.07       1.0  T
  95    -12.5062937  0.577881E+00  0.942E+00    0.00       1.0  T
  96    -12.4544019  0.518918E-01  0.812E+00    0.01       1.0  T
  97    -13.0185961 -0.564194E+00  0.420E+00    0.12       1.0  T
  98    -13.0102048  0.839138E-02  0.420E+00    0.13       1.0  T
  99    -12.8610675  0.149137E+00  0.587E+00    0.03       1.0  T
 100    -12.9755669 -0.114499E+00  0.508E+00    0.14       1.0  T
 101    -13.0402931 -0.647262E-01  0.378E+00    0.11       1.0  T
 102    -13.0906218 -0.503287E-01  0.184E+00    0.07       1.0  T
 103    -12.4508687  0.639753E+00  0.996E+00    0.00       1.0  T
 104    -12.6509675 -0.200099E+00  0.678E+00    0.02       1.0  T
 105    -13.0753197 -0.424352E+00  0.269E+00    0.05       1.0  T
 106    -12.9895620  0.857576E-01  0.466E+00    0.13       1.0  T
 107    -13.0902440 -0.100682E+00  0.161E+00    0.08       1.0  T
 108    -12.9601660  0.130078E+00  0.499E+00    0.16       1.0  T
 109    -12.7472698  0.212896E+00  0.724E+00    0.02       1.0  T
 110    -13.0788035 -0.331534E+00  0.269E+00    0.07       1.0  T
 111    -13.0244576  0.543459E-01  0.407E+00    0.12       1.0  T
 112    -13.0915613 -0.671037E-01  0.195E+00    0.07       1.0  T
 113    -12.4545827  0.636979E+00  0.990E+00    0.00       1.0  T
 114    -12.6977355 -0.243153E+00  0.641E+00    0.02       1.0  T
 115    -13.0774457 -0.379710E+00  0.295E+00    0.07       1.0  T
 116    -13.0147981  0.626476E-01  0.418E+00    0.12       1.0  T
 117    -13.0680974 -0.532993E-01  0.235E+00    0.06       1.0  T
 118    -12.9787780  0.893194E-01  0.479E+00    0.15       1.0  T
 119    -13.1054113 -0.126633E+00  0.137E+00    0.08       1.0  T
 120    -12.4592613  0.646150E+00  0.985E+00    0.00       1.0  T
 121    -12.9194347 -0.460173E+00  0.443E+00    0.02       1.0  T
 122    -13.0632080 -0.143773E+00  0.338E+00    0.09       1.0  T
 123    -13.0557615  0.744658E-02  0.335E+00    0.10       1.0  T
 124    -12.8264381  0.229323E+00  0.639E+00    0.02       1.0  T
 125    -13.0744968 -0.248059E+00  0.257E+00    0.06       1.0  T
 126    -13.0208176  0.536792E-01  0.407E+00    0.12       1.0  T
 127    -13.0976742 -0.768566E-01  0.178E+00    0.10       1.0  T
 128    -12.5911278  0.506546E+00  0.868E+00    0.01       1.0  T
 129    -13.0788531 -0.487725E+00  0.294E+00    0.06       1.0  T
 130    -13.0223540  0.564991E-01  0.424E+00    0.11       1.0  T
 131    -13.0832943 -0.609403E-01  0.243E+00    0.08       1.0  T
 132    -12.7991775  0.284117E+00  0.673E+00    0.02       1.0  T
 133    -13.0590583 -0.259881E+00  0.273E+00    0.05       1.0  T
 134    -13.0335752  0.254831E-01  0.388E+00    0.11       1.0  T
 135    -13.0868424 -0.532673E-01  0.227E+00    0.08       1.0  T
 136    -12.4656463  0.621196E+00  0.978E+00    0.00       1.0  T
 137    -12.7996912 -0.334045E+00  0.557E+00    0.01       1.0  T
 138    -13.0570974 -0.257406E+00  0.357E+00    0.09       1.0  T
 139    -13.0340342  0.230632E-01  0.383E+00    0.11       1.0  T
 140    -13.1103738 -0.763396E-01  0.999E-01    0.09       1.0  T
 141    -12.8440509  0.266323E+00  0.607E+00    0.03       1.0  T
 142    -13.0026760 -0.158625E+00  0.467E+00    0.12       1.0  T
 143    -13.0751191 -0.724431E-01  0.290E+00    0.09       1.0  T
 144    -13.0841929 -0.907380E-02  0.194E+00    0.06       1.0  T
 145    -12.4502422  0.633951E+00  0.997E+00    0.00       1.0  T
 146    -12.8892778 -0.439036E+00  0.474E+00    0.02       1.0  T
 147    -13.0779969 -0.188719E+00  0.293E+00    0.07       1.0  T
 148    -13.0622667  0.157302E-01  0.320E+00    0.09       1.0  T
 149    -13.0073111  0.549557E-01  0.385E+00    0.04       1.0  T
 150    -13.0641996 -0.568885E-01  0.325E+00    0.10       1.0  T
 151    -13.0831634 -0.189638E-01  0.244E+00    0.09       1.0  T
 152    -12.4740967  0.609067E+00  0.969E+00    0.00       1.0  T
 153    -12.7260171 -0.251920E+00  0.618E+00    0.02       1.0  T
 154    -13.0226785 -0.296661E+00  0.420E+00    0.11       1.0  T
 155    -13.0291539 -0.647537E-02  0.387E+00    0.12       1.0  T
 156    -13.0318192 -0.266526E-02  0.315E+00    0.05       1.0  T
 157    -12.9999605  0.318587E-01  0.455E+00    0.13       1.0  T
 158    -13.0857189 -0.857584E-01  0.212E+00    0.07       1.0  T
 159    -12.4535960  0.632123E+00  0.991E+00    0.00       1.0  T
 160    -12.7511311 -0.297535E+00  0.598E+00    0.01       1.0  T
 161    -13.0510654 -0.299934E+00  0.369E+00    0.10       1.0  T
 162    -13.0415148  0.955058E-02  0.365E+00    0.11       1.0  T
 163    -12.9727508  0.687640E-01  0.437E+00    0.04       1.0  T
 164    -13.0656747 -0.929239E-01  0.326E+00    0.09       1.0  T
 165    -13.0789349 -0.132602E-01  0.261E+00    0.09       1.0  T
 166    -12.4747342  0.604201E+00  0.969E+00    0.00       1.0  T
 167    -12.6800334 -0.205299E+00  0.655E+00    0.01       1.0  T
 168    -12.9964327 -0.316399E+00  0.471E+00    0.12       1.0  T
 169    -13.0013777 -0.494496E-02  0.438E+00    0.14       1.0  T
 170    -13.0925877 -0.912101E-01  0.198E+00    0.10       1.0  T
 171    -12.5609195  0.531668E+00  0.895E+00    0.00       1.0  T
 172    -13.0383890 -0.477469E+00  0.307E+00    0.04       1.0  T
 173    -13.0000396  0.383494E-01  0.458E+00    0.13       1.0  T
 174    -13.0769837 -0.769441E-01  0.271E+00    0.09       1.0  T
 175    -12.5150783  0.561905E+00  0.935E+00    0.00       1.0  T
 176    -12.6369731 -0.121895E+00  0.687E+00    0.01       1.0  T
 177    -12.9571131 -0.320140E+00  0.526E+00    0.15       1.0  T
 178    -12.9995335 -0.424205E-01  0.441E+00    0.14       1.0  T
 179    -13.0817439 -0.822104E-01  0.236E+00    0.11       1.0  T
 180    -12.6582640  0.423480E+00  0.807E+00    0.01       1.0  T
 181    -13.0738009 -0.415537E+00  0.321E+00    0.08       1.0  T
 182    -13.0495973  0.242036E-01  0.361E+00    0.10       1.0  T
 183    -13.0831263 -0.335290E-01  0.206E+00    0.07       1.0  T
 184    -12.4503532  0.632773E+00  0.996E+00    0.00       1.0  T
 185    -13.0204914 -0.570138E+00  0.333E+00    0.04       1.0  T
 186    -13.0458593 -0.253679E-01  0.388E+00    0.10       1.0  T
 187    -13.0750764 -0.292172E-01  0.287E+00    0.09       1.0  T
 188    -13.1149750 -0.398985E-01  0.681E-01    0.07       1.0  T
 189    -12.5931463  0.521829E+00  0.869E+00    0.01       1.0  T
 190    -12.8644357 -0.271289E+00  0.496E+00    0.01       1.0  T
 191    -12.9481497 -0.837140E-01  0.534E+00    0.16       1.0  T
 192    -13.0214104 -0.732607E-01  0.405E+00    0.12       1.0  T
 193    -13.0914890 -0.700785E-01  0.187E+00    0.11       1.0  T
 194    -13.0591454  0.323436E-01  0.266E+00    0.11       1.0  T
 195    -12.9898586  0.692868E-01  0.453E+00    0.14       1.0  T
 196    -12.6841001  0.305758E+00  0.790E+00    0.01       1.0  T
 197    -12.9979353 -0.313835E+00  0.347E+00    0.03       1.0  T
 198    -13.0808085 -0.828731E-01  0.260E+00    0.08       1.0  T
 199    -12.7086762  0.372132E+00  0.768E+00    0.01       1.0  T
 200    -12.9699083 -0.261232E+00  0.383E+00    0.03       1.0  T
 201    -13.0202657 -0.503574E-01  0.419E+00    0.12       1.0  T
 202    -13.0800060 -0.597403E-01  0.258E+00    0.09       1.0  T
 203    -12.4886893  0.591317E+00  0.957E+00    0.00       1.0  T
 204    -12.9403800 -0.451691E+00  0.420E+00    0.02       1.0  T
 205    -12.9958116 -0.554316E-01  0.473E+00    0.13       1.0  T
 206    -13.0562765 -0.604649E-01  0.337E+00    0.10       1.0  T
 207    -13.1071772 -0.509007E-01  0.129E+00    0.08       1.0  T
 208    -12.4706086  0.636569E+00  0.973E+00    0.00       1.0  T
 209    -13.0276311 -0.557022E+00  0.321E+00    0.04       1.0  T
 210    -13.0144160  0.132151E-01  0.441E+00    0.12       1.0  T
 211    -13.0749357 -0.605196E-01  0.284E+00    0.09       1.0  T
 212    -13.1043083 -0.293726E-01  0.134E+00    0.07       1.0  T
 213    -13.0686407  0.356676E-01  0.296E+00    0.10       1.0  T
 214    -12.5384594  0.530181E+00  0.915E+00    0.00       1.0  T
 215    -12.9343051 -0.395846E+00  0.425E+00    0.02       1.0  T
 216    -12.9998859 -0.655808E-01  0.461E+00    0.13       1.0  T
 217    -13.0664521 -0.665662E-01  0.307E+00    0.10       1.0  T
 218    -12.9947251  0.717270E-01  0.404E+00    0.04       1.0  T
 219    -13.0535687 -0.588436E-01  0.356E+00    0.10       1.0  T
 220    -13.0841134 -0.305447E-01  0.210E+00    0.07       1.0  T
 221    -12.4548419  0.629272E+00  0.990E+00    0.00       1.0  T
 222    -13.0290892 -0.574247E+00  0.320E+00    0.04       1.0  T
 223    -13.0445198 -0.154307E-01  0.388E+00    0.10       1.0  T
 224    -13.0789511 -0.344313E-01  0.271E+00    0.08       1.0  T
 225    -13.1084150 -0.294639E-01  0.101E+00    0.07       1.0  T
 226    -12.4613611  0.647054E+00  0.982E+00    0.00       1.0  T
 227    -12.9592891 -0.497928E+00  0.399E+00    0.02       1.0  T
 228    -12.9921772 -0.328881E-01  0.478E+00    0.13       1.0  T
 229    -13.0541535 -0.619763E-01  0.343E+00    0.10       1.0  T
 230    -13.0975401 -0.433866E-01  0.179E+00    0.08       1.0  T
 231    -12.4600498  0.637490E+00  0.983E+00    0.00       1.0  T
 232    -13.0251765 -0.565127E+00  0.321E+00    0.04       1.0  T
 233    -13.0161424  0.903411E-02  0.436E+00    0.12       1.0  T
 234    -13.0748880 -0.587455E-01  0.283E+00    0.09       1.0  T
 235    -13.0788642 -0.397623E-02  0.226E+00    0.06       1.0  T
 236    -13.0757183  0.314591E-02  0.281E+00    0.09       1.0  T
 237    -12.8643025  0.211416E+00  0.596E+00    0.03       1.0  T
 238    -13.0798724 -0.215570E+00  0.260E+00    0.06       1.0  T
 239    -13.0654822  0.143903E-01  0.310E+00    0.10       1.0  T
 240    -13.1031465 -0.376643E-01  0.122E+00    0.07       1.0  T
 241    -13.0448502  0.582963E-01  0.356E+00    0.11       1.0  T
 242    -12.8973645  0.147486E+00  0.554E+00    0.03       1.0  T
 243    -13.0710208 -0.173656E+00  0.315E+00    0.09       1.0  T
 244    -13.0724279 -0.140706E-02  0.223E+00    0.06       1.0  T
 245    -12.4595132  0.612915E+00  0.984E+00    0.00       1.0  T
 246    -12.9465879 -0.487075E+00  0.413E+00    0.02       1.0  T
 247    -13.0263253 -0.797374E-01  0.425E+00    0.11       1.0  T
 248    -13.0674051 -0.410797E-01  0.311E+00    0.09       1.0  T
 249    -13.0913427 -0.239376E-01  0.185E+00    0.07       1.0  T
 250    -12.4529799  0.638363E+00  0.992E+00    0.00       1.0  T
     SCC iter.                  ...        0 min,  0.112 sec
     gradient                   ...        0 min,  0.000 sec
 * total energy  :    -6.1832925 Eh     change        0.4842423E+00 Eh
   gradient norm :    22.4198244 Eh/α   predicted     0.0000000E+00 (-100.00%)
   displ. norm   :     0.8946895 α      lambda       -0.2005878E+02
   maximum displ.:     0.7793988 α      in ANC's #11, #12, #10, ...

........................................................................
.............................. CYCLE    2 ..............................
........................................................................
   1    -12.9275651 -0.129276E+02  0.911E+00    0.15       0.0  T
   2    -12.0353458  0.892219E+00  0.101E+01    0.00       1.0  T
   3    -12.8606853 -0.825340E+00  0.865E+00    0.13       1.0  T
   4    -12.8301143  0.305709E-01  0.752E+00    1.03       1.0  T
   5    -12.5171971  0.312917E+00  0.971E+00    0.00       1.0  T
   6    -12.5232419 -0.604480E-02  0.960E+00    0.01       1.0  T
   7    -12.8628678 -0.339626E+00  0.693E+00    0.10       1.0  T
   8    -12.7275243  0.135344E+00  0.798E+00    0.06       1.0  T
   9    -12.6466585  0.808657E-01  0.862E+00    0.05       1.0  T
  10    -12.1656880  0.480971E+00  0.947E+00    0.00       1.0  T
  11    -12.1738397 -0.815171E-02  0.919E+00    0.00       1.0  T
  12    -12.1722708  0.156894E-02  0.927E+00    0.00       1.0  T
  13    -12.1713110  0.959741E-03  0.921E+00    0.00       1.0  T
  14    -12.1729901 -0.167910E-02  0.918E+00    0.00       1.0  T
  15    -12.8603817 -0.687392E+00  0.620E+00    0.41       1.0  T
  16    -12.1533736  0.707008E+00  0.104E+01    0.00       1.0  T
  17    -12.1744912 -0.211176E-01  0.942E+00    0.00       1.0  T
  18    -12.1846217 -0.101305E-01  0.897E+00    0.00       1.0  T
  19    -12.8199901 -0.635368E+00  0.705E+00    1.43       1.0  T
  20    -12.1435036  0.676486E+00  0.123E+01    0.00       1.0  T
  21    -12.1890209 -0.455172E-01  0.992E+00    0.00       1.0  T
  22    -12.1986886 -0.966777E-02  0.956E+00    0.00       1.0  T
  23    -12.8483417 -0.649653E+00  0.639E+00    1.03       1.0  T
  24    -12.1574474  0.690894E+00  0.980E+00    0.00       1.0  T
  25    -12.5125998 -0.355152E+00  0.100E+01    0.01       1.0  T
  26    -12.9508999 -0.438300E+00  0.424E+00    0.44       1.0  T
  27    -12.8416945  0.109205E+00  0.668E+00    0.29       1.0  T
  28    -12.8844882 -0.427937E-01  0.604E+00    0.20       1.0  T
  29    -12.2171279  0.667360E+00  0.879E+00    0.00       1.0  T
  30    -12.7834232 -0.566295E+00  0.909E+00    0.10       1.0  T
  31    -12.1565250  0.626898E+00  0.102E+01    0.00       1.0  T
  32    -12.8861911 -0.729666E+00  0.646E+00    0.10       1.0  T
  33    -12.1807075  0.705484E+00  0.940E+00    0.00       1.0  T
  34    -12.9259311 -0.745224E+00  0.483E+00    0.51       1.0  T
  35    -12.8753699  0.505613E-01  0.588E+00    0.76       1.0  T
  36    -12.9877628 -0.112393E+00  0.363E+00    0.33       1.0  T
  37    -12.8720466  0.115716E+00  0.590E+00    0.87       1.0  T
  38    -12.9334577 -0.614111E-01  0.460E+00    0.49       1.0  T
  39    -12.8860477  0.474099E-01  0.555E+00    0.40       1.0  T
  40    -12.9479911 -0.619433E-01  0.461E+00    0.18       1.0  T
  41    -12.3122265  0.635765E+00  0.824E+00    0.00       1.0  T
  42    -12.8438655 -0.531639E+00  0.804E+00    0.11       1.0  T
  43    -12.1549819  0.688884E+00  0.100E+01    0.00       1.0  T
  44    -12.6938649 -0.538883E+00  0.801E+00    0.05       1.0  T
  45    -12.1726213  0.521244E+00  0.952E+00    0.00       1.0  T
  46    -12.9450634 -0.772442E+00  0.442E+00    0.44       1.0  T
  47    -12.8739360  0.711274E-01  0.592E+00    0.78       1.0  T
  48    -12.9564265 -0.824904E-01  0.427E+00    0.41       1.0  T
  49    -12.9130315  0.433950E-01  0.511E+00    0.57       1.0  T
  50    -12.9404293 -0.273978E-01  0.454E+00    0.47       1.0  T
  51    -12.9246776  0.157517E-01  0.480E+00    0.54       1.0  T
  52    -12.9277806 -0.310307E-02  0.470E+00    0.40       1.0  T
  53    -13.0666842 -0.138904E+00  0.226E+00    0.09       1.0  T
  54    -12.9724614  0.942228E-01  0.385E+00    0.38       1.0  T
  55    -12.2338660  0.738595E+00  0.864E+00    0.00       1.0  T
  56    -12.7390119 -0.505146E+00  0.853E+00    0.08       1.0  T
  57    -12.1597650  0.579247E+00  0.984E+00    0.00       1.0  T
  58    -12.9407608 -0.780996E+00  0.584E+00    0.12       1.0  T
  59    -12.9123571  0.284037E-01  0.517E+00    0.49       1.0  T
  60    -12.8500600  0.622971E-01  0.648E+00    1.03       1.0  T
  61    -12.8821192 -0.320591E-01  0.578E+00    0.73       1.0  T
  62    -12.8921027 -0.998355E-02  0.553E+00    0.67       1.0  T
  63    -12.9243372 -0.322345E-01  0.479E+00    0.53       1.0  T
  64    -12.9632634 -0.389262E-01  0.402E+00    0.25       1.0  T
  65    -12.1763839  0.786879E+00  0.899E+00    0.00       1.0  T
  66    -12.7695988 -0.593215E+00  0.807E+00    0.08       1.0  T
  67    -12.1742714  0.595327E+00  0.934E+00    0.00       1.0  T
  68    -12.9076190 -0.733348E+00  0.551E+00    0.52       1.0  T
  69    -12.8949432  0.126758E-01  0.557E+00    0.62       1.0  T
  70    -13.0029558 -0.108013E+00  0.331E+00    0.31       1.0  T
  71    -12.1769228  0.826033E+00  0.898E+00    0.00       1.0  T
  72    -13.0163704 -0.839448E+00  0.421E+00    0.19       1.0  T
  73    -12.9119567  0.104414E+00  0.524E+00    0.54       1.0  T
  74    -12.9533511 -0.413944E-01  0.421E+00    0.43       1.0  T
  75    -12.2279500  0.725401E+00  0.869E+00    0.00       1.0  T
  76    -13.0160989 -0.788149E+00  0.428E+00    0.19       1.0  T
  77    -12.9184419  0.976570E-01  0.512E+00    0.52       1.0  T
  78    -12.9562644 -0.378225E-01  0.416E+00    0.42       1.0  T
  79    -12.8344677  0.121797E+00  0.473E+00    0.02       1.0  T
  80    -13.0166061 -0.182138E+00  0.358E+00    0.24       1.0  T
  81    -12.9459058  0.707003E-01  0.444E+00    0.44       1.0  T
  82    -12.9751119 -0.292061E-01  0.373E+00    0.35       1.0  T
  83    -12.1856313  0.789481E+00  0.891E+00    0.00       1.0  T
  84    -13.0160947 -0.830463E+00  0.418E+00    0.19       1.0  T
  85    -12.9206178  0.954769E-01  0.511E+00    0.50       1.0  T
  86    -12.9663943 -0.457764E-01  0.396E+00    0.39       1.0  T
  87    -13.0520170 -0.856227E-01  0.225E+00    0.14       1.0  T
  88    -13.0124070  0.396100E-01  0.301E+00    0.23       1.0  T
  89    -12.6591820  0.353225E+00  0.616E+00    0.00       1.0  T
  90    -13.0065227 -0.347341E+00  0.353E+00    0.27       1.0  T
  91    -12.9530735  0.534492E-01  0.433E+00    0.41       1.0  T
  92    -12.9983633 -0.452898E-01  0.327E+00    0.31       1.0  T
  93    -12.5230187  0.475345E+00  0.707E+00    0.00       1.0  T
  94    -13.0155464 -0.492528E+00  0.352E+00    0.23       1.0  T
  95    -12.9465538  0.689926E-01  0.451E+00    0.43       1.0  T
  96    -12.9912180 -0.446642E-01  0.342E+00    0.32       1.0  T
  97    -13.0686761 -0.774581E-01  0.174E+00    0.13       1.0  T
  98    -12.9995286  0.691475E-01  0.321E+00    0.30       1.0  T
  99    -13.0879207 -0.883921E-01  0.856E-01    0.08       1.0  T
 100    -12.9979082  0.900124E-01  0.331E+00    0.30       1.0  T
 101    -13.0086618 -0.107536E-01  0.309E+00    0.21       1.0  T
 102    -13.0223921 -0.137302E-01  0.246E+00    0.05       1.0  T
 103    -13.0098311  0.125610E-01  0.319E+00    0.26       1.0  T
 104    -12.9762780  0.335531E-01  0.371E+00    0.35       1.0  T
 105    -13.0649028 -0.886248E-01  0.186E+00    0.13       1.0  T
 106    -13.0192080  0.456948E-01  0.284E+00    0.23       1.0  T
 107    -12.4505998  0.568608E+00  0.752E+00    0.00       1.0  T
 108    -13.0096325 -0.559033E+00  0.337E+00    0.25       1.0  T
 109    -12.9642106  0.454218E-01  0.410E+00    0.38       1.0  T
 110    -13.0032255 -0.390149E-01  0.315E+00    0.29       1.0  T
 111    -12.9022088  0.101017E+00  0.410E+00    0.03       1.0  T
 112    -13.0129369 -0.110728E+00  0.318E+00    0.25       1.0  T
 113    -12.9729309  0.400059E-01  0.384E+00    0.36       1.0  T
 114    -12.9961531 -0.232221E-01  0.326E+00    0.31       1.0  T
 115    -12.7786436  0.217509E+00  0.527E+00    0.01       1.0  T
 116    -13.0180896 -0.239446E+00  0.320E+00    0.23       1.0  T
 117    -12.9702613  0.478283E-01  0.391E+00    0.36       1.0  T
 118    -12.9909394 -0.206781E-01  0.337E+00    0.32       1.0  T
 119    -12.9664654  0.244740E-01  0.334E+00    0.04       1.0  T
 120    -13.0172621 -0.507966E-01  0.308E+00    0.23       1.0  T
 121    -12.9771819  0.400802E-01  0.371E+00    0.35       1.0  T
 122    -13.0027250 -0.255431E-01  0.316E+00    0.24       1.0  T
 123    -12.6040679  0.398657E+00  0.658E+00    0.00       1.0  T
 124    -13.0199657 -0.415898E+00  0.324E+00    0.21       1.0  T
 125    -12.9693843  0.505814E-01  0.395E+00    0.36       1.0  T
 126    -12.9936044 -0.242201E-01  0.331E+00    0.31       1.0  T
 127    -12.8590918  0.134513E+00  0.456E+00    0.02       1.0  T
 128    -13.0186365 -0.159545E+00  0.310E+00    0.22       1.0  T
 129    -12.9771379  0.414986E-01  0.373E+00    0.34       1.0  T
 130    -13.0019187 -0.247808E-01  0.315E+00    0.26       1.0  T
 131    -12.5179333  0.483985E+00  0.714E+00    0.00       1.0  T
 132    -13.0199246 -0.501991E+00  0.322E+00    0.21       1.0  T
 133    -12.9719346  0.479900E-01  0.390E+00    0.35       1.0  T
 134    -12.9982481 -0.263135E-01  0.320E+00    0.30       1.0  T
 135    -12.8256177  0.172630E+00  0.488E+00    0.02       1.0  T
 136    -13.0179628 -0.192345E+00  0.307E+00    0.23       1.0  T
 137    -12.9802247  0.377380E-01  0.366E+00    0.33       1.0  T
 138    -13.0081034 -0.278787E-01  0.301E+00    0.25       1.0  T
 139    -12.5561300  0.451973E+00  0.691E+00    0.00       1.0  T
 140    -13.0189686 -0.462839E+00  0.315E+00    0.22       1.0  T
 141    -12.9772610  0.417075E-01  0.376E+00    0.34       1.0  T
 142    -13.0028587 -0.255977E-01  0.309E+00    0.29       1.0  T
 143    -12.6283756  0.374483E+00  0.643E+00    0.00       1.0  T
 144    -13.0181345 -0.389759E+00  0.311E+00    0.22       1.0  T
 145    -12.9809425  0.371920E-01  0.367E+00    0.33       1.0  T
 146    -13.0048375 -0.238951E-01  0.305E+00    0.28       1.0  T
 147    -12.6331516  0.371686E+00  0.640E+00    0.00       1.0  T
 148    -13.0176874 -0.384536E+00  0.310E+00    0.22       1.0  T
 149    -12.9828272  0.348601E-01  0.362E+00    0.33       1.0  T
 150    -13.0066938 -0.238665E-01  0.301E+00    0.28       1.0  T
 151    -12.6359168  0.370777E+00  0.638E+00    0.00       1.0  T
 152    -13.0173381 -0.381421E+00  0.308E+00    0.23       1.0  T
 153    -12.9845256  0.328125E-01  0.358E+00    0.32       1.0  T
 154    -13.0086646 -0.241390E-01  0.297E+00    0.28       1.0  T
 155    -12.6426490  0.366016E+00  0.634E+00    0.00       1.0  T
 156    -13.0170565 -0.374408E+00  0.307E+00    0.23       1.0  T
 157    -12.9860898  0.309667E-01  0.354E+00    0.32       1.0  T
 158    -13.0111676 -0.250778E-01  0.292E+00    0.26       1.0  T
 159    -12.6558399  0.355328E+00  0.625E+00    0.00       1.0  T
 160    -13.0168006 -0.360961E+00  0.306E+00    0.23       1.0  T
 161    -12.9875590  0.292415E-01  0.350E+00    0.31       1.0  T
 162    -13.0148893 -0.273303E-01  0.285E+00    0.24       1.0  T
 163    -12.6833584  0.331531E+00  0.606E+00    0.00       1.0  T
 164    -13.0164824 -0.333124E+00  0.304E+00    0.23       1.0  T
 165    -12.9890326  0.274499E-01  0.345E+00    0.31       1.0  T
 166    -13.0217755 -0.327429E-01  0.272E+00    0.22       1.0  T
 167    -12.7546520  0.267124E+00  0.551E+00    0.01       1.0  T
 168    -13.0158328 -0.261181E+00  0.301E+00    0.23       1.0  T
 169    -12.9907441  0.250887E-01  0.340E+00    0.31       1.0  T
 170    -13.0420825 -0.513384E-01  0.230E+00    0.17       1.0  T
 171    -13.0174418  0.246406E-01  0.261E+00    0.05       1.0  T
 172    -13.0126688  0.477300E-02  0.294E+00    0.25       1.0  T
 173    -13.0003314  0.123374E-01  0.318E+00    0.26       1.0  T
 174    -12.9943177  0.601371E-02  0.297E+00    0.04       1.0  T
 175    -13.0155076 -0.211899E-01  0.290E+00    0.24       1.0  T
 176    -13.0238922 -0.838454E-02  0.272E+00    0.19       1.0  T
 177    -13.0789151 -0.550229E-01  0.109E+00    0.07       1.0  T
 178    -13.0125887  0.663264E-01  0.288E+00    0.25       1.0  T
 179    -12.9823340  0.302547E-01  0.315E+00    0.04       1.0  T
 180    -13.0082119 -0.258779E-01  0.303E+00    0.26       1.0  T
 181    -13.0170604 -0.884852E-02  0.280E+00    0.23       1.0  T
 182    -12.5217963  0.495264E+00  0.714E+00    0.00       1.0  T
 183    -13.0178782 -0.496082E+00  0.299E+00    0.22       1.0  T
 184    -12.9953464  0.225318E-01  0.328E+00    0.29       1.0  T
 185    -13.0615485 -0.662021E-01  0.181E+00    0.14       1.0  T
 186    -13.0906804 -0.291319E-01  0.458E-01    0.09       1.0  T
 187    -13.0122171  0.784633E-01  0.284E+00    0.25       1.0  T
 188    -12.9854023  0.268148E-01  0.311E+00    0.04       1.0  T
 189    -13.0049041 -0.195018E-01  0.310E+00    0.27       1.0  T
 190    -13.0290220 -0.241179E-01  0.255E+00    0.20       1.0  T
 191    -12.3786373  0.650385E+00  0.798E+00    0.00       1.0  T
 192    -13.0178971 -0.639260E+00  0.299E+00    0.22       1.0  T
 193    -12.9978413  0.200558E-01  0.322E+00    0.29       1.0  T
 194    -13.0540242 -0.561829E-01  0.200E+00    0.15       1.0  T
 195    -13.0658003 -0.117761E-01  0.157E+00    0.06       1.0  T
 196    -13.0127506  0.530497E-01  0.286E+00    0.24       1.0  T
 197    -13.0840588 -0.713082E-01  0.111E+00    0.11       1.0  T
 198    -13.0140786  0.699802E-01  0.282E+00    0.26       1.0  T
 199    -12.2904401  0.723639E+00  0.845E+00    0.00       1.0  T
 200    -13.0167836 -0.726343E+00  0.299E+00    0.23       1.0  T
 201    -13.0018119  0.149717E-01  0.312E+00    0.28       1.0  T
 202    -13.0781896 -0.763778E-01  0.124E+00    0.12       1.0  T
 203    -13.0622332  0.159564E-01  0.176E+00    0.15       1.0  T
 204    -13.0789017 -0.166685E-01  0.111E+00    0.07       1.0  T
 205    -13.0038272  0.750745E-01  0.306E+00    0.27       1.0  T
 206    -13.0846355 -0.808082E-01  0.966E-01    0.11       1.0  T
 207    -13.0552583  0.293772E-01  0.195E+00    0.16       1.0  T
 208    -12.6673360  0.387922E+00  0.620E+00    0.00       1.0  T
 209    -13.0099760 -0.342640E+00  0.302E+00    0.25       1.0  T
 210    -13.0043786  0.559748E-02  0.304E+00    0.27       1.0  T
 211    -12.8365469  0.167832E+00  0.481E+00    0.02       1.0  T
 212    -13.0188148 -0.182268E+00  0.284E+00    0.22       1.0  T
 213    -13.0301230 -0.113082E-01  0.257E+00    0.19       1.0  T
 214    -13.0804322 -0.503092E-01  0.113E+00    0.12       1.0  T
 215    -13.0591628  0.212694E-01  0.183E+00    0.15       1.0  T
 216    -13.0541998  0.496300E-02  0.187E+00    0.06       1.0  T
 217    -13.0078529  0.463469E-01  0.296E+00    0.26       1.0  T
 218    -13.0881637 -0.803108E-01  0.748E-01    0.11       1.0  T
 219    -13.0445760  0.435878E-01  0.220E+00    0.18       1.0  T
 220    -12.4513473  0.593229E+00  0.759E+00    0.00       1.0  T
 221    -13.0120563 -0.560709E+00  0.299E+00    0.24       1.0  T
 222    -13.0051888  0.686755E-02  0.302E+00    0.27       1.0  T
 223    -12.9671180  0.380708E-01  0.338E+00    0.04       1.0  T
 224    -13.0187829 -0.516649E-01  0.278E+00    0.22       1.0  T
 225    -13.0807956 -0.620127E-01  0.107E+00    0.07       1.0  T
 226    -13.0072279  0.735677E-01  0.298E+00    0.26       1.0  T
 227    -13.0855493 -0.783214E-01  0.775E-01    0.08       1.0  T
 228    -13.0178114  0.677380E-01  0.273E+00    0.23       1.0  T
 229    -12.2938873  0.723924E+00  0.844E+00    0.00       1.0  T
 230    -13.0080401 -0.714153E+00  0.308E+00    0.25       1.0  T
 231    -13.0095667 -0.152660E-02  0.294E+00    0.26       1.0  T
 232    -12.9057924  0.103774E+00  0.412E+00    0.03       1.0  T
 233    -13.0182460 -0.112454E+00  0.282E+00    0.22       1.0  T
 234    -13.0487726 -0.305266E-01  0.216E+00    0.16       1.0  T
 235    -13.0393235  0.944910E-02  0.232E+00    0.18       1.0  T
 236    -13.0533169 -0.139933E-01  0.189E+00    0.06       1.0  T
 237    -13.0125136  0.408033E-01  0.285E+00    0.24       1.0  T
 238    -13.0887887 -0.762752E-01  0.634E-01    0.08       1.0  T
 239    -13.0130772  0.757116E-01  0.282E+00    0.25       1.0  T
 240    -12.4637620  0.549315E+00  0.750E+00    0.00       1.0  T
 241    -13.0145741 -0.550812E+00  0.292E+00    0.23       1.0  T
 242    -13.0105178  0.405635E-02  0.289E+00    0.26       1.0  T
 243    -12.9069998  0.103518E+00  0.411E+00    0.03       1.0  T
 244    -13.0165516 -0.109552E+00  0.282E+00    0.23       1.0  T
 245    -13.0652236 -0.486721E-01  0.170E+00    0.14       1.0  T
 246    -13.0410543  0.241693E-01  0.227E+00    0.18       1.0  T
 247    -13.0429515 -0.189724E-02  0.213E+00    0.06       1.0  T
 248    -13.0112957  0.316558E-01  0.288E+00    0.25       1.0  T
 249    -13.0913982 -0.801024E-01  0.454E-01    0.10       1.0  T
 250    -13.0220564  0.693417E-01  0.265E+00    0.24       1.0  T
     SCC iter.                  ...        0 min,  0.110 sec
     gradient                   ...        0 min,  0.001 sec
 * total energy  :    -6.6778457 Eh     change       -0.4945533E+00 Eh
   gradient norm :    27.3559077 Eh/α   predicted    -0.1805761E+02 (3551.30%)
   displ. norm   :     0.5381989 α      lambda       -0.1262223E+02
   maximum displ.:     0.4372419 α      in ANC's #11, #12, #3, ...

........................................................................
.............................. CYCLE    3 ..............................
........................................................................
   1    -12.9745418 -0.129745E+02  0.493E+00    0.03       0.0  T
   2    -12.8475436  0.126998E+00  0.649E+00    0.95       1.0  T
   3    -12.4567206  0.390823E+00  0.119E+01    0.00       1.0  T
   4    -12.4831646 -0.264440E-01  0.108E+01    0.00       1.0  T
   5    -12.9365514 -0.453387E+00  0.504E+00    0.44       1.0  T
   6    -12.1954483  0.741103E+00  0.102E+01    0.00       1.0  T
   7    -12.9107438 -0.715296E+00  0.567E+00    0.62       1.0  T
   8    -13.0728423 -0.162098E+00  0.306E+00    0.10       1.0  T
   9    -13.0824764 -0.963412E-02  0.238E+00    0.07       1.0  T
  10    -12.9031727  0.179304E+00  0.577E+00    0.36       1.0  T
  11    -12.9668032 -0.636305E-01  0.494E+00    0.17       1.0  T
  12    -12.5353946  0.431409E+00  0.749E+00    0.00       1.0  T
  13    -12.9377820 -0.402387E+00  0.515E+00    0.46       1.0  T
  14    -12.9681558 -0.303738E-01  0.464E+00    0.36       1.0  T
  15    -12.9691335 -0.977770E-03  0.463E+00    0.35       1.0  T
  16    -12.9718721 -0.273862E-02  0.457E+00    0.34       1.0  T
  17    -12.9698570  0.201511E-02  0.463E+00    0.32       1.0  T
  18    -12.9737425 -0.388543E-02  0.450E+00    0.31       1.0  T
  19    -12.9935603 -0.198178E-01  0.408E+00    0.26       1.0  T
  20    -12.2146920  0.778868E+00  0.942E+00    0.00       1.0  T
  21    -13.0126562 -0.797964E+00  0.420E+00    0.10       1.0  T
  22    -12.9791547  0.335016E-01  0.457E+00    0.30       1.0  T
  23    -12.9854626 -0.630788E-02  0.430E+00    0.27       1.0  T
  24    -13.0237356 -0.382731E-01  0.354E+00    0.19       1.0  T
  25    -12.5249497  0.498786E+00  0.761E+00    0.00       1.0  T
  26    -13.0439895 -0.519040E+00  0.334E+00    0.16       1.0  T
  27    -13.0090935  0.348960E-01  0.377E+00    0.23       1.0  T
  28    -13.0208071 -0.117136E-01  0.344E+00    0.22       1.0  T
  29    -12.2336540  0.787153E+00  0.933E+00    0.00       1.0  T
  30    -13.0388596 -0.805206E+00  0.361E+00    0.17       1.0  T
  31    -13.0174379  0.214217E-01  0.362E+00    0.22       1.0  T
  32    -13.0238694 -0.643150E-02  0.329E+00    0.21       1.0  T
  33    -12.2083086  0.815561E+00  0.949E+00    0.00       1.0  T
  34    -13.0329798 -0.824671E+00  0.392E+00    0.18       1.0  T
  35    -13.0207222  0.122575E-01  0.357E+00    0.22       1.0  T
  36    -13.0287404 -0.801819E-02  0.316E+00    0.20       1.0  T
  37    -12.2055065  0.823234E+00  0.954E+00    0.00       1.0  T
  38    -13.0215874 -0.816081E+00  0.440E+00    0.20       1.0  T
  39    -13.0257926 -0.420517E-02  0.344E+00    0.21       1.0  T
  40    -13.1048096 -0.790171E-01  0.119E+00    0.11       1.0  T
  41    -13.0452969  0.595127E-01  0.271E+00    0.16       1.0  T
  42    -12.2053350  0.839962E+00  0.956E+00    0.00       1.0  T
  43    -13.0075388 -0.802204E+00  0.467E+00    0.22       1.0  T
  44    -13.0294807 -0.219419E-01  0.325E+00    0.20       1.0  T
  45    -13.0896019 -0.601212E-01  0.153E+00    0.06       1.0  T
  46    -13.0437737  0.458282E-01  0.303E+00    0.16       1.0  T
  47    -13.1115716 -0.677980E-01  0.758E-01    0.10       1.0  T
  48    -13.0437217  0.678500E-01  0.275E+00    0.16       1.0  T
  49    -12.2059937  0.837728E+00  0.954E+00    0.00       1.0  T
  50    -13.0056815 -0.799688E+00  0.456E+00    0.23       1.0  T
  51    -13.0312501 -0.255686E-01  0.315E+00    0.19       1.0  T
  52    -12.6710358  0.360214E+00  0.663E+00    0.00       1.0  T
  53    -13.0327134 -0.361678E+00  0.369E+00    0.19       1.0  T
  54    -13.0381197 -0.540629E-02  0.295E+00    0.18       1.0  T
  55    -12.6385217  0.399598E+00  0.687E+00    0.00       1.0  T
  56    -13.0317993 -0.393278E+00  0.369E+00    0.19       1.0  T
  57    -13.0362092 -0.440985E-02  0.299E+00    0.18       1.0  T
  58    -12.9958811  0.403281E-01  0.342E+00    0.04       1.0  T
  59    -13.0388757 -0.429946E-01  0.326E+00    0.18       1.0  T
  60    -13.0336269  0.524882E-02  0.302E+00    0.19       1.0  T
  61    -12.2092089  0.824418E+00  0.949E+00    0.00       1.0  T
  62    -13.0170271 -0.807818E+00  0.426E+00    0.21       1.0  T
  63    -13.0335984 -0.165712E-01  0.307E+00    0.19       1.0  T
  64    -13.1130057 -0.794074E-01  0.584E-01    0.10       1.0  T
  65    -13.0460946  0.669111E-01  0.270E+00    0.16       1.0  T
  66    -12.3750224  0.671072E+00  0.856E+00    0.00       1.0  T
  67    -13.0227179 -0.647696E+00  0.391E+00    0.21       1.0  T
  68    -13.0350248 -0.123069E-01  0.300E+00    0.19       1.0  T
  69    -12.8832967  0.151728E+00  0.478E+00    0.02       1.0  T
  70    -13.0366604 -0.153364E+00  0.339E+00    0.18       1.0  T
  71    -13.0356900  0.970392E-03  0.297E+00    0.18       1.0  T
  72    -12.5150185  0.520672E+00  0.771E+00    0.00       1.0  T
  73    -13.0286017 -0.513583E+00  0.372E+00    0.20       1.0  T
  74    -13.0360582 -0.745648E-02  0.297E+00    0.18       1.0  T
  75    -13.0945800 -0.585218E-01  0.138E+00    0.07       1.0  T
  76    -13.0434629  0.511170E-01  0.293E+00    0.16       1.0  T
  77    -13.0675380 -0.240750E-01  0.235E+00    0.16       1.0  T
  78    -12.2126683  0.854870E+00  0.948E+00    0.00       1.0  T
  79    -13.0217973 -0.809129E+00  0.413E+00    0.21       1.0  T
  80    -13.0343211 -0.125238E-01  0.304E+00    0.19       1.0  T
  81    -13.1101102 -0.757891E-01  0.661E-01    0.08       1.0  T
  82    -13.0452138  0.648965E-01  0.281E+00    0.16       1.0  T
  83    -13.0833960 -0.381822E-01  0.173E+00    0.06       1.0  T
  84    -13.0409004  0.424956E-01  0.300E+00    0.17       1.0  T
  85    -13.1043464 -0.634460E-01  0.993E-01    0.07       1.0  T
  86    -13.0416791  0.626673E-01  0.290E+00    0.17       1.0  T
  87    -12.4968779  0.544801E+00  0.783E+00    0.00       1.0  T
  88    -13.0233054 -0.526427E+00  0.375E+00    0.21       1.0  T
  89    -13.0395135 -0.162081E-01  0.289E+00    0.19       1.0  T
  90    -12.2061441  0.833369E+00  0.953E+00    0.00       1.0  T
  91    -13.0148876 -0.808743E+00  0.431E+00    0.22       1.0  T
  92    -13.0350134 -0.201258E-01  0.301E+00    0.19       1.0  T
  93    -13.0560851 -0.210718E-01  0.239E+00    0.05       1.0  T
  94    -13.0439301  0.121550E-01  0.300E+00    0.16       1.0  T
  95    -13.0400375  0.389257E-02  0.285E+00    0.18       1.0  T
  96    -12.2061997  0.833838E+00  0.953E+00    0.00       1.0  T
  97    -13.0132338 -0.807034E+00  0.430E+00    0.22       1.0  T
  98    -13.0344865 -0.212527E-01  0.302E+00    0.19       1.0  T
  99    -13.0521351 -0.176487E-01  0.247E+00    0.05       1.0  T
 100    -13.0434356  0.869949E-02  0.300E+00    0.16       1.0  T
 101    -13.0479061 -0.447049E-02  0.270E+00    0.18       1.0  T
 102    -12.2057919  0.842114E+00  0.954E+00    0.00       1.0  T
 103    -13.0138975 -0.808106E+00  0.431E+00    0.22       1.0  T
 104    -13.0347221 -0.208246E-01  0.302E+00    0.19       1.0  T
 105    -13.1061251 -0.714030E-01  0.896E-01    0.08       1.0  T
 106    -13.0461058  0.600193E-01  0.279E+00    0.16       1.0  T
 107    -13.0168112  0.292946E-01  0.310E+00    0.04       1.0  T
 108    -13.0384505 -0.216393E-01  0.314E+00    0.18       1.0  T
 109    -13.0749470 -0.364966E-01  0.214E+00    0.15       1.0  T
 110    -12.2189264  0.856021E+00  0.944E+00    0.00       1.0  T
 111    -13.0215943 -0.802668E+00  0.399E+00    0.21       1.0  T
 112    -13.0367031 -0.151088E-01  0.295E+00    0.18       1.0  T
 113    -12.9048623  0.131841E+00  0.456E+00    0.02       1.0  T
 114    -13.0375527 -0.132690E+00  0.326E+00    0.18       1.0  T
 115    -13.0392125 -0.165977E-02  0.286E+00    0.18       1.0  T
 116    -12.2166814  0.822531E+00  0.944E+00    0.00       1.0  T
 117    -13.0186123 -0.801931E+00  0.399E+00    0.21       1.0  T
 118    -13.0368508 -0.182385E-01  0.295E+00    0.18       1.0  T
 119    -13.1140288 -0.771781E-01  0.409E-01    0.10       1.0  T
 120    -13.0474143  0.666145E-01  0.264E+00    0.15       1.0  T
 121    -12.2991895  0.748225E+00  0.899E+00    0.00       1.0  T
 122    -13.0190613 -0.719872E+00  0.385E+00    0.22       1.0  T
 123    -13.0360424 -0.169810E-01  0.296E+00    0.18       1.0  T
 124    -13.0515284 -0.154860E-01  0.249E+00    0.05       1.0  T
 125    -13.0424206  0.910781E-02  0.300E+00    0.17       1.0  T
 126    -13.0473330 -0.491243E-02  0.271E+00    0.18       1.0  T
 127    -12.2065688  0.840764E+00  0.952E+00    0.00       1.0  T
 128    -13.0143631 -0.807794E+00  0.420E+00    0.22       1.0  T
 129    -13.0355599 -0.211968E-01  0.299E+00    0.19       1.0  T
 130    -13.1134165 -0.778566E-01  0.502E-01    0.10       1.0  T
 131    -13.0475772  0.658393E-01  0.262E+00    0.15       1.0  T
 132    -12.2178550  0.829722E+00  0.944E+00    0.00       1.0  T
 133    -13.0145731 -0.796718E+00  0.404E+00    0.22       1.0  T
 134    -13.0354687 -0.208956E-01  0.298E+00    0.19       1.0  T
 135    -13.0846300 -0.491613E-01  0.170E+00    0.06       1.0  T
 136    -13.0443515  0.402784E-01  0.288E+00    0.16       1.0  T
 137    -13.0890559 -0.447044E-01  0.172E+00    0.14       1.0  T
 138    -12.6038389  0.485217E+00  0.716E+00    0.00       1.0  T
 139    -13.0328923 -0.429053E+00  0.349E+00    0.19       1.0  T
 140    -13.0380763 -0.518399E-02  0.289E+00    0.18       1.0  T
 141    -12.4321772  0.605899E+00  0.823E+00    0.00       1.0  T
 142    -13.0241113 -0.591934E+00  0.364E+00    0.21       1.0  T
 143    -13.0379516 -0.138402E-01  0.291E+00    0.18       1.0  T
 144    -13.1126668 -0.747152E-01  0.451E-01    0.08       1.0  T
 145    -13.0463868  0.662800E-01  0.271E+00    0.16       1.0  T
 146    -13.0121242  0.342626E-01  0.318E+00    0.04       1.0  T
 147    -13.0373301 -0.252059E-01  0.315E+00    0.18       1.0  T
 148    -13.0616425 -0.243124E-01  0.244E+00    0.17       1.0  T
 149    -12.2070803  0.854562E+00  0.952E+00    0.00       1.0  T
 150    -13.0152211 -0.808141E+00  0.416E+00    0.22       1.0  T
 151    -13.0362919 -0.210709E-01  0.295E+00    0.18       1.0  T
 152    -12.7763879  0.259904E+00  0.580E+00    0.01       1.0  T
 153    -13.0340097 -0.257622E+00  0.335E+00    0.19       1.0  T
 154    -13.0404486 -0.643896E-02  0.282E+00    0.18       1.0  T
 155    -12.3475956  0.692853E+00  0.872E+00    0.00       1.0  T
 156    -13.0240770 -0.676481E+00  0.368E+00    0.21       1.0  T
 157    -13.0390272 -0.149502E-01  0.288E+00    0.18       1.0  T
 158    -13.1131624 -0.741352E-01  0.517E-01    0.10       1.0  T
 159    -13.0477471  0.654153E-01  0.260E+00    0.15       1.0  T
 160    -12.3069043  0.740843E+00  0.895E+00    0.00       1.0  T
 161    -13.0184178 -0.711513E+00  0.380E+00    0.22       1.0  T
 162    -13.0363186 -0.179008E-01  0.295E+00    0.18       1.0  T
 163    -13.0862185 -0.498999E-01  0.166E+00    0.06       1.0  T
 164    -13.0440934  0.421251E-01  0.287E+00    0.16       1.0  T
 165    -13.0654120 -0.213186E-01  0.233E+00    0.17       1.0  T
 166    -12.2080492  0.857363E+00  0.951E+00    0.00       1.0  T
 167    -13.0162222 -0.808173E+00  0.411E+00    0.22       1.0  T
 168    -13.0367078 -0.204856E-01  0.294E+00    0.18       1.0  T
 169    -13.0397770 -0.306919E-02  0.272E+00    0.05       1.0  T
 170    -13.0421385 -0.236142E-02  0.299E+00    0.17       1.0  T
 171    -13.0503718 -0.823332E-02  0.263E+00    0.18       1.0  T
 172    -12.2062482  0.844124E+00  0.953E+00    0.00       1.0  T
 173    -13.0131553 -0.806907E+00  0.421E+00    0.22       1.0  T
 174    -13.0363430 -0.231877E-01  0.295E+00    0.18       1.0  T
 175    -13.0890943 -0.527513E-01  0.157E+00    0.06       1.0  T
 176    -13.0449482  0.441461E-01  0.284E+00    0.16       1.0  T
 177    -13.1066965 -0.617483E-01  0.100E+00    0.11       1.0  T
 178    -13.0743940  0.323025E-01  0.200E+00    0.15       1.0  T
 179    -12.2050232  0.869371E+00  0.957E+00    0.00       1.0  T
 180    -13.0075058 -0.802483E+00  0.446E+00    0.23       1.0  T
 181    -13.0353602 -0.278544E-01  0.298E+00    0.19       1.0  T
 182    -12.2689179  0.766442E+00  0.915E+00    0.00       1.0  T
 183    -13.0213891 -0.752471E+00  0.373E+00    0.21       1.0  T
 184    -13.0391422 -0.177531E-01  0.288E+00    0.18       1.0  T
 185    -13.1100246 -0.708824E-01  0.789E-01    0.11       1.0  T
 186    -13.0490917  0.609329E-01  0.253E+00    0.15       1.0  T
 187    -12.2074491  0.841643E+00  0.951E+00    0.00       1.0  T
 188    -13.0111755 -0.803726E+00  0.417E+00    0.23       1.0  T
 189    -13.0353916 -0.242161E-01  0.298E+00    0.19       1.0  T
 190    -13.1100507 -0.746590E-01  0.667E-01    0.08       1.0  T
 191    -13.0460622  0.639884E-01  0.273E+00    0.16       1.0  T
 192    -13.1142791 -0.682169E-01  0.266E-01    0.09       1.0  T
 193    -13.0455449  0.687342E-01  0.269E+00    0.16       1.0  T
 194    -12.4661226  0.579422E+00  0.802E+00    0.00       1.0  T
 195    -13.0202243 -0.554102E+00  0.365E+00    0.21       1.0  T
 196    -13.0365273 -0.163030E-01  0.294E+00    0.19       1.0  T
 197    -12.4066385  0.629889E+00  0.838E+00    0.00       1.0  T
 198    -13.0238300 -0.617192E+00  0.359E+00    0.21       1.0  T
 199    -13.0392341 -0.154041E-01  0.287E+00    0.18       1.0  T
 200    -13.1029609 -0.637268E-01  0.106E+00    0.07       1.0  T
 201    -13.0460505  0.569104E-01  0.276E+00    0.16       1.0  T
 202    -13.0888582 -0.428077E-01  0.171E+00    0.14       1.0  T
 203    -12.3349129  0.753945E+00  0.881E+00    0.00       1.0  T
 204    -13.0245858 -0.689673E+00  0.368E+00    0.21       1.0  T
 205    -13.0390540 -0.144682E-01  0.286E+00    0.18       1.0  T
 206    -12.5271580  0.511896E+00  0.764E+00    0.00       1.0  T
 207    -13.0266179 -0.499460E+00  0.351E+00    0.20       1.0  T
 208    -13.0394819 -0.128639E-01  0.286E+00    0.18       1.0  T
 209    -13.1133732 -0.738914E-01  0.484E-01    0.10       1.0  T
 210    -13.0477834  0.655898E-01  0.259E+00    0.15       1.0  T
 211    -12.3960946  0.651689E+00  0.844E+00    0.00       1.0  T
 212    -13.0201961 -0.624101E+00  0.368E+00    0.22       1.0  T
 213    -13.0370969 -0.169008E-01  0.292E+00    0.18       1.0  T
 214    -12.9404826  0.966143E-01  0.416E+00    0.03       1.0  T
 215    -13.0375567 -0.970741E-01  0.315E+00    0.18       1.0  T
 216    -13.0410481 -0.349140E-02  0.280E+00    0.17       1.0  T
 217    -12.2994744  0.741574E+00  0.899E+00    0.00       1.0  T
 218    -13.0203892 -0.720915E+00  0.371E+00    0.21       1.0  T
 219    -13.0385172 -0.181280E-01  0.289E+00    0.18       1.0  T
 220    -13.1114195 -0.729023E-01  0.567E-01    0.08       1.0  T
 221    -13.0467347  0.646848E-01  0.269E+00    0.15       1.0  T
 222    -13.0985961 -0.518613E-01  0.137E+00    0.13       1.0  T
 223    -12.8791452  0.219451E+00  0.489E+00    0.02       1.0  T
 224    -13.0384600 -0.159315E+00  0.321E+00    0.18       1.0  T
 225    -13.0469649 -0.850488E-02  0.271E+00    0.18       1.0  T
 226    -12.2066674  0.840297E+00  0.952E+00    0.00       1.0  T
 227    -13.0103386 -0.803671E+00  0.419E+00    0.23       1.0  T
 228    -13.0369776 -0.266390E-01  0.293E+00    0.19       1.0  T
 229    -12.3950814  0.641896E+00  0.844E+00    0.00       1.0  T
 230    -13.0242321 -0.629151E+00  0.358E+00    0.21       1.0  T
 231    -13.0400024 -0.157703E-01  0.284E+00    0.18       1.0  T
 232    -13.1124482 -0.724458E-01  0.582E-01    0.10       1.0  T
 233    -13.0484879  0.639603E-01  0.256E+00    0.15       1.0  T
 234    -12.3319949  0.716493E+00  0.881E+00    0.00       1.0  T
 235    -13.0189479 -0.686953E+00  0.372E+00    0.22       1.0  T
 236    -13.0372075 -0.182596E-01  0.292E+00    0.18       1.0  T
 237    -13.0764557 -0.392482E-01  0.194E+00    0.06       1.0  T
 238    -13.0434865  0.329692E-01  0.288E+00    0.16       1.0  T
 239    -13.0479983 -0.451178E-02  0.266E+00    0.18       1.0  T
 240    -12.2071369  0.840861E+00  0.952E+00    0.00       1.0  T
 241    -13.0119855 -0.804849E+00  0.414E+00    0.22       1.0  T
 242    -13.0374717 -0.254862E-01  0.291E+00    0.18       1.0  T
 243    -12.8281078  0.209364E+00  0.534E+00    0.02       1.0  T
 244    -13.0348739 -0.206766E+00  0.326E+00    0.19       1.0  T
 245    -13.0415280 -0.665411E-02  0.279E+00    0.17       1.0  T
 246    -12.6015199  0.440008E+00  0.715E+00    0.00       1.0  T
 247    -13.0285048 -0.426985E+00  0.345E+00    0.20       1.0  T
 248    -13.0400447 -0.115399E-01  0.284E+00    0.18       1.0  T
 249    -13.0987871 -0.587425E-01  0.124E+00    0.07       1.0  T
 250    -13.0451989  0.535883E-01  0.278E+00    0.16       1.0  T
     SCC iter.                  ...        0 min,  0.109 sec
     gradient                   ...        0 min,  0.001 sec
 * total energy  :   -12.5703834 Eh     change       -0.5892538E+01 Eh
   gradient norm :     4.1678495 Eh/α   predicted    -0.8139182E+01 (  38.13%)
   displ. norm   :     0.4738137 α      lambda       -0.1971570E+01
   maximum displ.:     0.4655764 α      in ANC's #12, #11, #3, ...

[...]
........................................................................
   1    -13.1125015 -0.131125E+02  0.814E-01    0.11       0.0  T
   2    -12.1993747  0.913127E+00  0.989E+00    0.00       1.0  T
   3    -13.0414158 -0.842041E+00  0.371E+00    0.06       1.0  T
   4    -12.9630232  0.783927E-01  0.402E+00    0.03       1.0  T
   5    -13.0353781 -0.723549E-01  0.316E+00    0.17       1.0  T
   6    -13.0128611  0.225170E-01  0.367E+00    0.19       1.0  T
   7    -12.6232547  0.389606E+00  0.715E+00    0.00       1.0  T
   8    -12.6103630  0.128916E-01  0.724E+00    0.00       1.0  T
   9    -13.0402310 -0.429868E+00  0.294E+00    0.16       1.0  T
  10    -13.0597310 -0.195000E-01  0.245E+00    0.14       1.0  T
  11    -13.0898300 -0.300990E-01  0.176E+00    0.14       1.0  T
  12    -13.1089911 -0.191611E-01  0.104E+00    0.11       1.0  T
  13    -13.1134148 -0.442375E-02  0.741E-01    0.11       1.0  T
  14    -13.1178654 -0.445059E-02  0.189E-01    0.09       1.0  T
  15    -13.1174883  0.377123E-03  0.268E-01    0.10       1.0  T
  16    -13.1181811 -0.692776E-03  0.594E-02    0.09       1.0  T
  17    -13.1179865  0.194519E-03  0.145E-01    0.09       1.0  T
  18    -13.1181974 -0.210880E-03  0.288E-02    0.09       1.4  T
  19    -13.1181618  0.356080E-04  0.619E-02    0.09       1.0  T
  20    -13.1182011 -0.392330E-04  0.129E-02    0.09       3.2  T
  21    -13.1181979  0.313097E-05  0.194E-02    0.09       2.1  T
  22    -13.1181975  0.468502E-06  0.221E-02    0.09       1.8  T
  23    -13.1182000 -0.255689E-05  0.143E-02    0.09       2.9  T
  24    -13.1182002 -0.228452E-06  0.132E-02    0.09       3.1  T
  25    -13.1182019 -0.164575E-05  0.242E-03    0.09      16.8  T
  26    -13.1182019 -0.577156E-07  0.633E-04    0.09      64.5  T
     SCC iter.                  ...        0 min,  0.002 sec
     gradient                   ...        0 min,  0.001 sec
 * total energy  :   -13.0595323 Eh     change       -0.2087260E-04 Eh
   gradient norm :     0.0305563 Eh/α   predicted    -0.4494888E-04 ( 115.35%)
   displ. norm   :     0.0060599 α      lambda       -0.2768100E-04
   maximum displ.:     0.0044804 α      in ANC's #5, #8, #2, ...

........................................................................
.............................. CYCLE   28 ..............................
........................................................................
   1    -13.1184455 -0.131184E+02  0.244E-01    0.09       0.0  T
   2    -12.9662031  0.152242E+00  0.470E+00    0.27       1.0  T
   3    -13.0923769 -0.126174E+00  0.158E+00    0.13       1.0  T
   4    -13.1184075 -0.260306E-01  0.274E-01    0.09       1.0  T
   5    -13.1165121  0.189541E-02  0.533E-01    0.08       1.0  T
   6    -13.1187750 -0.226297E-02  0.120E-01    0.09       1.0  T
   7    -13.1188635 -0.884714E-04  0.674E-02    0.09       1.0  T
   8    -13.1186954  0.168104E-03  0.148E-01    0.09       1.0  T
   9    -13.1187602 -0.648459E-04  0.123E-01    0.09       1.0  T
  10    -13.1189049 -0.144643E-03  0.166E-02    0.09       2.5  T
  11    -13.1189001  0.481748E-05  0.280E-02    0.09       1.5  T
  12    -13.1189069 -0.679332E-05  0.107E-03    0.09      38.1  T
  13    -13.1189065  0.384268E-06  0.655E-03    0.09       6.2  T
  14    -13.1189069 -0.382871E-06  0.104E-03    0.09      39.3  T
  15    -13.1189069 -0.656904E-08  0.538E-04    0.09      75.9  T
     SCC iter.                  ...        0 min,  0.001 sec
     gradient                   ...        0 min,  0.000 sec
 * total energy  :   -13.0595489 Eh     change       -0.1658439E-04 Eh
   gradient norm :     0.0036416 Eh/α   predicted    -0.1383921E-04 ( -16.55%)
   displ. norm   :     0.0078273 α      lambda       -0.4952190E-05
   maximum displ.:     0.0067153 α      in ANC's #5, #8, #4, ...

........................................................................
.............................. CYCLE   29 ..............................
........................................................................
   1    -13.1191652 -0.131192E+02  0.448E-02    0.09       0.0  T
   2    -13.1164529  0.271230E-02  0.619E-01    0.08       1.0  T
   3    -13.1138035  0.264942E-02  0.792E-01    0.11       1.0  T
   4    -13.1190084 -0.520493E-02  0.132E-01    0.09       1.0  T
   5    -13.1191603 -0.151881E-03  0.557E-02    0.09       1.0  T
   6    -13.1191619 -0.157484E-05  0.390E-02    0.09       1.0  T
   7    -13.1191755 -0.136575E-04  0.610E-03    0.09       6.7  T
   8    -13.1191759 -0.354990E-06  0.192E-03    0.09      21.3  T
   9    -13.1191759 -0.255391E-07  0.699E-04    0.09      58.4  T
  10    -13.1191759 -0.325400E-08  0.410E-04    0.09      99.6  T
     SCC iter.                  ...        0 min,  0.001 sec
     gradient                   ...        0 min,  0.000 sec
 * total energy  :   -13.0595523 Eh     change       -0.3340751E-05 Eh
   gradient norm :     0.0018778 Eh/α   predicted    -0.2477400E-05 ( -25.84%)
   displ. norm   :     0.0110098 α      lambda       -0.1616351E-05
   maximum displ.:     0.0100893 α      in ANC's #5, #8, #4, ...

........................................................................
.............................. CYCLE   30 ..............................
........................................................................
   1    -13.1192974 -0.131193E+02  0.654E-02    0.09       0.0  T
   2    -12.8478872  0.271410E+00  0.526E+00    0.02       1.0  T
   3    -13.1163289 -0.268442E+00  0.597E-01    0.08       1.0  T
   4    -13.1192409 -0.291201E-02  0.136E-01    0.09       1.0  T
   5    -13.1192133  0.275993E-04  0.109E-01    0.09       1.0  T
   6    -13.1193286 -0.115279E-03  0.384E-02    0.09       1.1  T
   7    -13.1193397 -0.111825E-04  0.932E-03    0.09       4.4  T
   8    -13.1193403 -0.560626E-06  0.299E-03    0.09      13.7  T
   9    -13.1193403 -0.295136E-07  0.166E-03    0.09      24.6  T
  10    -13.1193404 -0.248652E-07  0.399E-04    0.09     102.4  T
  11    -13.1193404 -0.505349E-09  0.338E-04    0.09     120.8  T
     SCC iter.                  ...        0 min,  0.001 sec
     gradient                   ...        0 min,  0.000 sec
 * total energy  :   -13.0595530 Eh     change       -0.7799845E-06 Eh
   gradient norm :     0.0006536 Eh/α   predicted    -0.8076796E-06 (   3.55%)
   displ. norm   :     0.0027249 α      lambda       -0.1693915E-06
   maximum displ.:     0.0023614 α      in ANC's #5, #8, #1, ...

   *** GEOMETRY OPTIMIZATION CONVERGED AFTER 30 ITERATIONS ***

------------------------------------------------------------------------
 total energy gain   :        -6.3920183 Eh    -4011.0520 kcal/mol
 total RMSD          :         0.2958026 a0        0.1565 Å
 total power (kW/mol):      -559.4080567 (step)-8449.5746 (real)
------------------------------------------------------------------------

 ANCopt (total)                0 d,  0 h,  0 min,  1.986 sec
 optimizer setup                ...        0 min,  0.000 sec (  0.002%)
 model hessian                  ...        0 min,  0.000 sec (  0.006%)
 ANC generation                 ...        0 min,  0.000 sec (  0.006%)
 coordinate transformation      ...        0 min,  0.000 sec (  0.007%)
 single point calculation       ...        0 min,  1.983 sec ( 99.842%)
 optimization log               ...        0 min,  0.001 sec (  0.040%)
 hessian update                 ...        0 min,  0.000 sec (  0.006%)
 rational function              ...        0 min,  0.001 sec (  0.047%)

================
 final structure:
================
6
 xtb: 6.2.3 (830e466)
F        -4.62390754332670   -0.27453169246505    0.08120556898849
Cl        2.94990176269381    0.16606401824320   -0.05431781883989
C        -0.62675390133769   -0.03340263528530    0.01314568824411
H        -0.59953568948866   -0.61514535978692   -0.88190457053894
H        -0.56985816039095   -0.51495384649279    0.96452226288137
H        -0.67278646815172    1.03187951578695   -0.04395113073875
 
 Bond Distances (Angstroems)
 ---------------------------
C3-H4=1.0678         C3-H5=1.0678         C3-H6=1.0678         H4-C3=1.0678         H5-C3=1.0678         H6-C3=1.0678         
 C  H  Rav=1.0678 sigma=0.0000  Rmin=1.0678  Rmax=1.0678     3
 
 selected bond angles (degree)
 --------------------
H5-C3-H4=119.98                H6-C3-H4=119.99                H6-C3-H5=119.99                
 
 selected dihedral angles (degree)
 ---------------------------------

 
 CMA Distance (Angstroems)
 ---------------------------
R(CMA):  6.5217
           -------------------------------------------------
          |                Final Singlepoint                |
           -------------------------------------------------

          ...................................................
          :                      SETUP                      :
          :.................................................:
          :  # basis functions                  21          :
          :  # atomic orbitals                  20          :
          :  # shells                           10          :
          :  # electrons                        22          :
          :  max. iterations                   250          :
          :  Hamiltonian                  GFN2-xTB          :
          :  restarted?                      false          :
          :  GBSA solvation                  false          :
          :  PC potential                    false          :
          :  electronic temp.          300.0000000     K    :
          :  accuracy                    1.0000000          :
          :  -> integral cutoff          0.2500000E+02      :
          :  -> integral neglect         0.1000000E-07      :
          :  -> SCF convergence          0.1000000E-05 Eh   :
          :  -> wf. convergence          0.1000000E-03 e    :
          :  Broyden damping             0.4000000          :
          ...................................................

 iter      E             dE          RMSdq      gap      omega  full diag
   1    -13.1193404 -0.131193E+02  0.321E-04    0.09       0.0  T
   2    -13.1193389  0.141627E-05  0.124E-02    0.09       3.3  T
   3    -13.1193400 -0.102667E-05  0.665E-03    0.09       6.1  T
   4    -13.1193402 -0.179953E-06  0.457E-03    0.09       8.9  T
   5    -13.1193403 -0.197148E-06  0.128E-03    0.09      31.8  T
   6    -13.1193404 -0.128124E-07  0.101E-05    0.09    4048.4  T
   7    -13.1193404 -0.468958E-12  0.364E-06    0.09   11208.5  T

   *** convergence criteria satisfied after 7 iterations ***

         #    Occupation            Energy/Eh            Energy/eV
      -------------------------------------------------------------
         1        2.0000           -0.8657555             -23.5584
       ...           ...                  ...                  ...
         5        2.0000           -0.3805301             -10.3547
         6        1.9995           -0.2495119              -6.7896
         7        1.9695           -0.2455787              -6.6825
         8        1.9695           -0.2455787              -6.6825
         9        1.8515           -0.2440160              -6.6400
        10        1.8428           -0.2439574              -6.6384
        11        1.8427           -0.2439572              -6.6384 (HOMO)
        12        0.5245           -0.2406366              -6.5481 (LUMO)
        13                          0.2242989               6.1035
        14                          0.2388531               6.4995
        15                          0.2390868               6.5059
        16                          0.2390868               6.5059
       ...                                ...                  ...
        20                          0.3928811              10.6908
      -------------------------------------------------------------
                  HL-Gap            0.0033205 Eh            0.0904 eV
             Fermi-level           -0.2416191 Eh           -6.5748 eV

 SCC (total)                   0 d,  0 h,  0 min,  0.002 sec
 SCC setup                      ...        0 min,  0.000 sec (  2.484%)
 Dispersion                     ...        0 min,  0.000 sec (  0.396%)
 integral evaluation            ...        0 min,  0.001 sec ( 34.981%)
 zeroth order Hamiltonian       ...        0 min,  0.000 sec (  0.608%)
 iterations                     ...        0 min,  0.001 sec ( 30.765%)
 molecular gradient             ...        0 min,  0.000 sec ( 26.920%)
 printout                       ...        0 min,  0.000 sec (  2.709%)

         :::::::::::::::::::::::::::::::::::::::::::::::::::::
         ::                     SUMMARY                     ::
         :::::::::::::::::::::::::::::::::::::::::::::::::::::
         :: total energy             -13.059553051922 Eh    ::
         :: gradient norm              0.000653813823 Eh/a0 ::
         :: HOMO-LUMO gap              0.090356472945 eV    ::
         ::.................................................::
         :: SCC energy               -13.119340362296 Eh    ::
         :: -> isotropic ES            0.153949023925 Eh    ::
         :: -> anisotropic ES         -0.000732396216 Eh    ::
         :: -> anisotropic XC          0.006742467848 Eh    ::
         :: -> dispersion             -0.001344370101 Eh    ::
         :: repulsion energy           0.059790159676 Eh    ::
         :: add. restraining           0.000000818765 Eh    ::
         :::::::::::::::::::::::::::::::::::::::::::::::::::::

           -------------------------------------------------
          |                Property Printout                |
           -------------------------------------------------

    * Orbital Energies and Occupations

         #    Occupation            Energy/Eh            Energy/eV
      -------------------------------------------------------------
         1        2.0000           -0.8657555             -23.5584
         2        2.0000           -0.5308754             -14.4459
         3        2.0000           -0.4786715             -13.0253
         4        2.0000           -0.3805604             -10.3556
         5        2.0000           -0.3805301             -10.3547
         6        1.9995           -0.2495119              -6.7896
         7        1.9695           -0.2455787              -6.6825
         8        1.9695           -0.2455787              -6.6825
         9        1.8515           -0.2440160              -6.6400
        10        1.8428           -0.2439574              -6.6384
        11        1.8427           -0.2439572              -6.6384 (HOMO)
        12        0.5245           -0.2406366              -6.5481 (LUMO)
        13                          0.2242989               6.1035
        14                          0.2388531               6.4995
        15                          0.2390868               6.5059
        16                          0.2390868               6.5059
        17                          0.2402429               6.5373
        18                          0.2402429               6.5373
        19                          0.3928357              10.6896
        20                          0.3928811              10.6908
      -------------------------------------------------------------
                  HL-Gap            0.0033205 Eh            0.0904 eV
             Fermi-level           -0.2416191 Eh           -6.5748 eV

     #   Z        covCN         q      C6AA      α(0)
     1   9 F      0.000    -0.532    15.791     4.628
     2  17 Cl     0.000    -0.620   112.426    16.137
     3   6 C      2.780    -0.090    30.247     9.008
     4   1 H      0.927     0.081     1.969     2.194
     5   1 H      0.927     0.081     1.969     2.195
     6   1 H      0.927     0.081     1.970     2.195

 Mol. C6AA /au·bohr⁶  :        583.151838
 Mol. C8AA /au·bohr⁸  :      16526.243912
 Mol. α(0) /au        :         36.356990


Wiberg/Mayer (AO) data.
largest (>0.10) Wiberg bond orders for each atom
          total WBO             WBO to atom ...
     1  F   0.005
     2  Cl  0.366        C    3 0.366
     3  C   3.347        H    6 0.992    H    5 0.992    H    4 0.992    Cl   2 0.366
     4  H   0.993        C    3 0.992
     5  H   0.993        C    3 0.992
     6  H   0.993        C    3 0.992

molecular dipole:
                 x           y           z       tot (Debye)
 q only:        1.015       0.072      -0.014
   full:        1.033       0.073      -0.015       2.632
molecular quadrupole (traceless):
                xx          xy          yy          xz          yz          zz
 q only:      -60.073      -5.269      29.897       1.610       0.094      30.176
  q+dip:      -60.927      -5.339      30.322       1.634       0.095      30.605
   full:      -59.950      -5.259      29.836       1.606       0.094      30.115

           -------------------------------------------------
          |                Geometry Summary                 |
           -------------------------------------------------

      molecular mass/u    :       69.4858989
   center of mass at/Å    :        0.1057947       0.0024696      -0.0026781
  moments of inertia/u·Å² :        0.3448371E+01   0.7241654E+03   0.7241664E+03
rotational constants/cm⁻¹ :        0.4888579E+01   0.2327870E-01   0.2327867E-01

 * 3 selected distances

     #   Z        #   Z                                     value/Å
     3   6 C      4   1 H                                 1.0678391 (max)
     3   6 C      5   1 H                                 1.0678231
     3   6 C      6   1 H                                 1.0678039 (min)

 * 1 distinct bonds (by element types)

   Z      Z             #   av. dist./Å        max./Å        min./Å
   1 H    6 C           3     1.0678220     1.0678391     1.0678039


optimized geometry written to: xtbopt.xyz


           -------------------------------------------------
          | TOTAL ENERGY              -13.059553051922 Eh   |
          | GRADIENT NORM               0.000653813823 Eh/α |
          | HOMO-LUMO GAP               0.090356472945 eV   |
           -------------------------------------------------
########################################################################
[WARNING] Runtime exception occurred
-17- scf: Self consistent charge iterator did not converge
-16- scf: Self consistent charge iterator did not converge
-15- scf: Self consistent charge iterator did not converge
-14- scf: Self consistent charge iterator did not converge
-13- scf: Self consistent charge iterator did not converge
-12- scf: Self consistent charge iterator did not converge
-11- scf: Self consistent charge iterator did not converge
-10- scf: Self consistent charge iterator did not converge
-9- scf: Self consistent charge iterator did not converge
-8- scf: Self consistent charge iterator did not converge
-7- scf: Self consistent charge iterator did not converge
-6- scf: Self consistent charge iterator did not converge
-5- scf: Self consistent charge iterator did not converge
-4- scf: Self consistent charge iterator did not converge
-3- scf: Self consistent charge iterator did not converge
-2- scf: Self consistent charge iterator did not converge
-1- scf: Self consistent charge iterator did not converge
########################################################################

------------------------------------------------------------------------
 * finished run on 2020/04/08 at 23:04:46.465     
------------------------------------------------------------------------
 total:
 * wall-time:     0 d,  0 h,  0 min,  2.170 sec
 *  cpu-time:     0 d,  0 h,  0 min,  2.147 sec
 * ratio c/w:     0.989 speedup
 SCF:
 * wall-time:     0 d,  0 h,  0 min,  0.144 sec
 *  cpu-time:     0 d,  0 h,  0 min,  0.140 sec
 * ratio c/w:     0.975 speedup
 ANC optimizer:
 * wall-time:     0 d,  0 h,  0 min,  1.988 sec
 *  cpu-time:     0 d,  0 h,  0 min,  1.988 sec
 * ratio c/w:     1.000 speedup

