      -----------------------------------------------------------      
     |                   =====================                   |     
     |                           x T B                           |     
     |                   =====================                   |     
     |                         S. Grimme                         |     
     |          Mulliken Center for Theoretical Chemistry        |     
     |                    University of Bonn                     |     
      -----------------------------------------------------------      

   * xtb version 6.2.3 (830e466) compiled by 'ehlert@majestix' on 2020-03-16

   xtb is free software: you can redistribute it and/or modify it under
   the terms of the GNU Lesser General Public License as published by
   the Free Software Foundation, either version 3 of the License, or
   (at your option) any later version.
   
   xtb is distributed in the hope that it will be useful,
   but WITHOUT ANY WARRANTY; without even the implied warranty of
   MERCHANTABILITY or FITNESS FOR A PARTICULAR PURPOSE.  See the
   GNU Lesser General Public License for more details.
   
   Cite this work as:
   * S. Grimme, C. Bannwarth, P. Shushkov, J. Chem. Theory Comput., 2017,
     13, 1989-2009. DOI: 10.1021/acs.jctc.7b00118
   * C. Bannwarth, S. Ehlert and S. Grimme., J. Chem. Theory Comput., 2019,
     15, 1652-1671. DOI: 10.1021/acs.jctc.8b01176
   * P. Pracht, E. Caldeweyher, S. Ehlert, S. Grimme, ChemRxiv, 2019, preprint.
     DOI: 10.26434/chemrxiv.8326202.v1
   
   for DFT-D4:
   * E. Caldeweyher, C. Bannwarth and S. Grimme, J. Chem. Phys., 2017,
     147, 034112. DOI: 10.1063/1.4993215
   * E. Caldeweyher, S. Ehlert, A. Hansen, H. Neugebauer, S. Spicher,
     C. Bannwarth and S. Grimme, J. Chem. Phys., 2019, 150, 154122.
     DOI: 10.1063/1.5090222
   
   for sTDA-xTB:
   * S. Grimme and C. Bannwarth, J. Chem. Phys., 2016, 145, 054103.
     DOI: 10.1063/1.4959605
   
   in the mass-spec context:
   * V. Asgeirsson, C. Bauer and S. Grimme, Chem. Sci., 2017, 8, 4879.
     DOI: 10.1039/c7sc00601b
   
   for metadynamics refer to:
   * S. Grimme, J. Chem. Theory Comput., 2019, 155, 2847-2862
     DOI: 10.1021/acs.jctc.9b00143
   
   with help from (in alphabetical order)
   C. Bannwarth, F. Bohle, G. Brandenburg, E. Caldeweyher, M. Checinski,
   S. Dohm, S. Ehlert, S. Ehrlich, F. März, H. Neugebauer, J. Pisarek,
   P. Pracht, P. Shushkov, and S. Spicher.
   
 * started run on 2020/04/08 at 23:04:05.517     

           -------------------------------------------------
          |                Calculation Setup                |
           -------------------------------------------------

          program call               : /home/tom/.local/bin/xtb SN2_PES_scan_4-2_xtb.xyz --chrg -1 --opt --input xcontrol_SN2_PES_scan_4-2
          coordinate file            : SN2_PES_scan_4-2_xtb.xyz
          omp threads                :                     1
          number of atoms            :                     6
          number of electrons        :                    22
          charge                     :                    -1
          spin                       :                   0.0
          first test random number   :      0.69016330161312

constraining bond 1 3 to    2.0000000 Å, actual value:    2.4995388 Å
constraining bond 2 3 to    2.6680000 Å, actual value:    2.2232524 Å

molecular fragmentation (1/2 indicates fragments):
122222
# atoms in fragment 1/2:     1     5
 fragment masses (1/2) :       19.00       50.49
CMA distance (Bohr)    :   7.653
constraining FC (au)   : 10.0000
########################################################################
[WARNING] Please study the warnings concerning your input carefully
-2- prog_main: XTBPATH is not set, using XTBHOME instead
-1- prog_main: XTBHOME is not set, using HOME instead
########################################################################
           ------------------------------------------------- 
          |                 G F N 2 - x T B                 |
          | Geometry, Frequencies, Noncovalent interactions |
          |            JCTC 2019 parametrisation            |
           ------------------------------------------------- 
             k(s)              :                1.8500
             k(p)              :                2.2300
             k(d)              :                2.2300
             k(f)              :                2.0000
             kEN (H0ij)        :               -2.0000
             D4 a1             :                0.5200
             D4 a2             :                5.0000
             D4 s6             :                1.0000
             D4 s8             :                2.7000
             D4 s9             :                5.0000
             alphaj            :                2.0000

  Z AO/shell   Hii/eV     exponent
  1     Wed Apr 25 08:07:45 CEST 2018   EN: 2.200 GM2: 0.406  GM3: 0.0800  RAES: 1.40
     1s    -10.707211    1.230000
  6     Wed Apr 25 08:07:45 CEST 2018   EN: 2.550 GM2: 0.538  GM3: 0.1500  RAES: 3.00
     2s    -13.970922    2.096432
     2p    -10.063292    1.800000
  9     Mon Apr 23 13:58:50 CEST 2018   EN: 3.980 GM2: 0.532  GM3: 0.1426  RAES: 2.40
     2s    -23.458179    2.416361
     2p    -15.746583    2.308399
 17     Mon Apr 23 14:09:22 CEST 2018   EN: 3.160 GM2: 0.249  GM3: 0.1495  RAES: 2.50
     3s    -29.278781    2.485265
     3p    -12.673758    2.199650
     3d     -0.240338    2.476089

           ------------------------------------------------- 
          |        Self-Consistent Charge Iterations        |
           ------------------------------------------------- 

          ...................................................
          :                      SETUP                      :
          :.................................................:
          :  # basis functions                  21          :
          :  # atomic orbitals                  20          :
          :  # shells                           10          :
          :  # electrons                        22          :
          :  max. iterations                   250          :
          :  Hamiltonian                  GFN2-xTB          :
          :  restarted?                      false          :
          :  GBSA solvation                  false          :
          :  PC potential                    false          :
          :  electronic temp.          300.0000000     K    :
          :  accuracy                    1.0000000          :
          :  -> integral cutoff          0.2500000E+02      :
          :  -> integral neglect         0.1000000E-07      :
          :  -> SCF convergence          0.1000000E-05 Eh   :
          :  -> wf. convergence          0.1000000E-03 e    :
          :  Broyden damping             0.4000000          :
          ...................................................

 iter      E             dE          RMSdq      gap      omega  full diag
   1    -13.0685804 -0.130686E+02  0.706E+00    2.49       0.0  T
   2    -12.4660243  0.602556E+00  0.904E+00    0.19       1.0  T
   3    -13.1549454 -0.688921E+00  0.356E+00    3.54       1.0  T
   4    -13.1652603 -0.103149E-01  0.262E+00    2.96       1.0  T
   5    -13.1874163 -0.221560E-01  0.824E-01    1.40       1.0  T
   6    -13.1894605 -0.204420E-02  0.575E-01    1.29       1.0  T
   7    -13.1732730  0.161874E-01  0.156E+00    0.76       1.0  T
   8    -13.1885034 -0.152304E-01  0.634E-01    0.93       1.0  T
   9    -13.1911299 -0.262651E-02  0.146E-01    1.05       1.0  T
  10    -13.1911265  0.341103E-05  0.148E-01    1.04       1.0  T
  11    -13.1912165 -0.899948E-04  0.962E-02    1.06       1.0  T
  12    -13.1912296 -0.131229E-04  0.858E-02    1.06       1.0  T
  13    -13.1912697 -0.400892E-04  0.402E-02    1.08       1.0  T
  14    -13.1912805 -0.107561E-04  0.871E-03    1.09       4.7  T
  15    -13.1912810 -0.491446E-06  0.264E-03    1.09      15.5  T
  16    -13.1912810 -0.456329E-07  0.398E-04    1.09     102.6  T
  17    -13.1912810 -0.812344E-09  0.209E-04    1.09     195.2  T

   *** convergence criteria satisfied after 17 iterations ***

         #    Occupation            Energy/Eh            Energy/eV
      -------------------------------------------------------------
         1        2.0000           -0.8767171             -23.8567
       ...           ...                  ...                  ...
         5        2.0000           -0.3350132              -9.1162
         6        2.0000           -0.2868372              -7.8052
         7        2.0000           -0.2503177              -6.8115
         8        2.0000           -0.2503172              -6.8115
         9        2.0000           -0.1623176              -4.4169
        10        2.0000           -0.1578270              -4.2947
        11        2.0000           -0.1578268              -4.2947 (HOMO)
        12                         -0.1178037              -3.2056 (LUMO)
        13                          0.2191558               5.9635
        14                          0.2191563               5.9635
        15                          0.2199721               5.9857
        16                          0.2199724               5.9858
       ...                                ...                  ...
        20                          0.4230585              11.5120
      -------------------------------------------------------------
                  HL-Gap            0.0400231 Eh            1.0891 eV
             Fermi-level           -0.1374968 Eh           -3.7415 eV

 SCC (total)                   0 d,  0 h,  0 min,  0.003 sec
 SCC setup                      ...        0 min,  0.000 sec (  4.138%)
 Dispersion                     ...        0 min,  0.000 sec (  0.433%)
 integral evaluation            ...        0 min,  0.001 sec ( 21.225%)
 zeroth order Hamiltonian       ...        0 min,  0.000 sec (  0.465%)
 iterations                     ...        0 min,  0.001 sec ( 49.062%)
 molecular gradient             ...        0 min,  0.001 sec ( 22.249%)
 printout                       ...        0 min,  0.000 sec (  1.750%)

         :::::::::::::::::::::::::::::::::::::::::::::::::::::
         ::                     SUMMARY                     ::
         :::::::::::::::::::::::::::::::::::::::::::::::::::::
         :: total energy               2.842430231423 Eh    ::
         :: gradient norm             43.722705693347 Eh/a0 ::
         :: HOMO-LUMO gap              1.089085141287 eV    ::
         ::.................................................::
         :: SCC energy               -13.191281006628 Eh    ::
         :: -> isotropic ES            0.191983261249 Eh    ::
         :: -> anisotropic ES          0.001508162687 Eh    ::
         :: -> anisotropic XC          0.004859950563 Eh    ::
         :: -> dispersion             -0.001981634858 Eh    ::
         :: repulsion energy           0.058936590492 Eh    ::
         :: add. restraining          15.974775120372 Eh    ::
         :::::::::::::::::::::::::::::::::::::::::::::::::::::

      ----------------------------------------------------------- 
     |                   =====================                   |
     |                        A N C O P T                        |
     |                   =====================                   |
     |               Approximate Normal Coordinate               |
     |                Rational Function Optimizer                |
      ----------------------------------------------------------- 

          ...................................................
          :                      SETUP                      :
          :.................................................:
          :   optimization level            normal          :
          :   max. optcycles                   200          :
          :   ANC micro-cycles                  20          :
          :   degrees of freedom                12          :
          :.................................................:
          :   RF solver                   davidson          :
          :   write xtbopt.log                true          :
          :   linear?                        false          :
          :   energy convergence         0.5000000E-05 Eh   :
          :   grad. convergence          0.1000000E-02 Eh/α :
          :   maximium RF displ.         1.0000000          :
          :   Hlow (freq-cutoff)         0.1000000E-01      :
          :   Hmax (freq-cutoff)         5.0000000          :
          :   S6 in model hess.         20.0000000          :
          ...................................................

generating ANC from model Hessian ...
Using Lindh-Hessian (1995)
 Shifting diagonal of input Hessian by    2.52497133048387     
 Lowest  eigenvalues of input Hessian
    0.010000    0.010067   -0.000000    0.000000    0.000000    0.000000
    0.000000    0.000000    2.563330    2.665089    2.665114    2.975315
    3.156720    3.156786    5.253415    5.253523   22.563235   62.706980
 Highest eigenvalues
    3.156720    3.156786    5.253415    5.253523   22.563235   62.706980
 

........................................................................
.............................. CYCLE    1 ..............................
........................................................................
   1    -13.1912810 -0.131913E+02  0.368E-05    1.09       0.0  T
   2    -13.1912810  0.289511E-10  0.742E-05    1.09     550.0  T
   3    -13.1912810 -0.382698E-10  0.307E-06    1.09   13300.6  T
     SCC iter.                  ...        0 min,  0.000 sec
     gradient                   ...        0 min,  0.001 sec
 * total energy  :     2.8424302 Eh     change        0.6989787E-10 Eh
   gradient norm :    43.7227007 Eh/α   predicted     0.0000000E+00 (-100.00%)
   displ. norm   :     0.9444550 α      lambda       -0.4129412E+02
   maximum displ.:     0.9438514 α      in ANC's #9, #12, #6, ...

........................................................................
.............................. CYCLE    2 ..............................
........................................................................
   1    -13.1258823 -0.131259E+02  0.494E+00    2.58       0.0  T
   2    -13.1701944 -0.443121E-01  0.319E+00    3.48       1.0  T
   3    -13.2006191 -0.304247E-01  0.130E+00    2.36       1.0  T
   4    -13.2022510 -0.163189E-02  0.525E-01    1.80       1.0  T
   5    -13.2023258 -0.747792E-04  0.394E-01    2.06       1.0  T
   6    -13.2024552 -0.129363E-03  0.318E-01    1.79       1.0  T
   7    -13.2026313 -0.176176E-03  0.168E-01    2.03       1.0  T
   8    -13.2026695 -0.381613E-04  0.113E-01    2.00       1.0  T
   9    -13.2027003 -0.308025E-04  0.203E-02    1.94       2.0  T
  10    -13.2027013 -0.961707E-06  0.487E-03    1.95       8.4  T
  11    -13.2027013 -0.601036E-07  0.198E-04    1.95     205.9  T
     SCC iter.                  ...        0 min,  0.001 sec
     gradient                   ...        0 min,  0.001 sec
 * total energy  :   -11.7387359 Eh     change       -0.1458117E+02 Eh
   gradient norm :    12.9076090 Eh/α   predicted    -0.3906414E+02 ( 167.91%)
   displ. norm   :     0.2411261 α      lambda       -0.2766345E+01
   maximum displ.:     0.2066112 α      in ANC's #9, #12, #3, ...

........................................................................
.............................. CYCLE    3 ..............................
........................................................................
   1    -13.1980545 -0.131981E+02  0.155E+00    1.70       0.0  T
   2    -13.2061129 -0.805839E-02  0.384E-01    2.42       1.0  T
   3    -13.2064145 -0.301610E-03  0.194E-01    2.26       1.0  T
   4    -13.2063986  0.159567E-04  0.847E-02    2.26       1.0  T
   5    -13.2064303 -0.316938E-04  0.376E-02    2.25       1.1  T
   6    -13.2064326 -0.234088E-05  0.250E-02    2.26       1.6  T
   7    -13.2064339 -0.131857E-05  0.108E-02    2.25       3.8  T
   8    -13.2064341 -0.215497E-06  0.366E-03    2.25      11.2  T
   9    -13.2064342 -0.264894E-07  0.213E-03    2.25      19.2  T
     SCC iter.                  ...        0 min,  0.001 sec
     gradient                   ...        0 min,  0.001 sec
 * total energy  :   -13.0718908 Eh     change       -0.1333155E+01 Eh
   gradient norm :     1.7076872 Eh/α   predicted    -0.1463592E+01 (   9.78%)
   displ. norm   :     0.2688913 α      lambda       -0.4555712E+00
   maximum displ.:     0.2649380 α      in ANC's #12, #9, #6, ...

........................................................................
.............................. CYCLE    4 ..............................
........................................................................
   1    -13.1911290 -0.131911E+02  0.996E-01    1.44       0.0  T
   2    -13.1935688 -0.243989E-02  0.511E-01    1.96       1.0  T
   3    -13.1942927 -0.723824E-03  0.222E-01    1.76       1.0  T
   4    -13.1943485 -0.558615E-04  0.112E-01    1.77       1.0  T
   5    -13.1943657 -0.171959E-04  0.344E-02    1.75       1.2  T
   6    -13.1943678 -0.205586E-05  0.263E-02    1.77       1.5  T
   7    -13.1943692 -0.145897E-05  0.744E-03    1.76       5.5  T
   8    -13.1943693 -0.217186E-07  0.558E-03    1.77       7.3  T
   9    -13.1943694 -0.897925E-07  0.247E-03    1.77      16.5  T
     SCC iter.                  ...        0 min,  0.001 sec
     gradient                   ...        0 min,  0.001 sec
 * total energy  :   -12.7616049 Eh     change        0.3102859E+00 Eh
   gradient norm :     4.3103274 Eh/α   predicted    -0.2442549E+00 (-178.72%)
   displ. norm   :     0.1807111 α      lambda       -0.7330381E+00
   maximum displ.:     0.1768451 α      in ANC's #12, #9, #6, ...

........................................................................
.............................. CYCLE    5 ..............................
........................................................................
   1    -13.2015355 -0.132015E+02  0.487E-01    2.31       0.0  T
   2    -13.2021933 -0.657745E-03  0.161E-01    2.05       1.0  T
   3    -13.2022058 -0.124990E-04  0.103E-01    2.08       1.0  T
   4    -13.2021918  0.140143E-04  0.694E-02    2.05       1.0  T
   5    -13.2022116 -0.198997E-04  0.176E-02    2.06       2.3  T
   6    -13.2022118 -0.196037E-06  0.713E-03    2.07       5.7  T
   7    -13.2022119 -0.103281E-06  0.286E-03    2.06      14.3  T
   8    -13.2022120 -0.873722E-08  0.200E-03    2.06      20.4  T
     SCC iter.                  ...        0 min,  0.001 sec
     gradient                   ...        0 min,  0.001 sec
 * total energy  :   -13.1401623 Eh     change       -0.3785574E+00 Eh
   gradient norm :     0.1331926 Eh/α   predicted    -0.3784885E+00 (  -0.02%)
   displ. norm   :     0.0073157 α      lambda       -0.8855345E-03
   maximum displ.:     0.0065232 α      in ANC's #12, #6, #2, ...

........................................................................
.............................. CYCLE    6 ..............................
........................................................................
   1    -13.2021977 -0.132022E+02  0.178E-02    2.08       0.0  T
   2    -13.2021981 -0.424794E-06  0.824E-03    2.08       5.0  T
   3    -13.2021983 -0.229034E-06  0.620E-03    2.08       6.6  T
   4    -13.2021984 -0.670337E-07  0.235E-03    2.08      17.4  T
   5    -13.2021984 -0.350252E-08  0.101E-03    2.08      40.4  T
     SCC iter.                  ...        0 min,  0.000 sec
     gradient                   ...        0 min,  0.001 sec
 * total energy  :   -13.1406154 Eh     change       -0.4531209E-03 Eh
   gradient norm :     0.0076311 Eh/α   predicted    -0.4427923E-03 (  -2.28%)
   displ. norm   :     0.0315487 α      lambda       -0.3065718E-04
   maximum displ.:     0.0226544 α      in ANC's #2, #1, #6, ...

........................................................................
.............................. CYCLE    7 ..............................
........................................................................
   1    -13.2018986 -0.132019E+02  0.452E-02    2.08       0.0  T
   2    -13.2018991 -0.451482E-06  0.283E-02    2.08       1.4  T
   3    -13.2018984  0.713954E-06  0.164E-02    2.08       2.5  T
   4    -13.2018993 -0.965395E-06  0.380E-03    2.08      10.7  T
   5    -13.2018993 -0.102633E-07  0.534E-04    2.08      76.5  T
   6    -13.2018993 -0.343773E-09  0.260E-04    2.08     157.1  T
     SCC iter.                  ...        0 min,  0.000 sec
     gradient                   ...        0 min,  0.001 sec
 * total energy  :   -13.1405471 Eh     change        0.6839335E-04 Eh
   gradient norm :     0.0142763 Eh/α   predicted    -0.1534255E-04 (-122.43%)
   displ. norm   :     0.0280052 α      lambda       -0.2011184E-03
   maximum displ.:     0.0197873 α      in ANC's #2, #1, #6, ...

........................................................................
.............................. CYCLE    8 ..............................
........................................................................
   1    -13.2013802 -0.132014E+02  0.407E-02    2.08       0.0  T
   2    -13.2013806 -0.381327E-06  0.261E-02    2.08       1.6  T
   3    -13.2013801  0.435356E-06  0.194E-02    2.08       2.1  T
   4    -13.2013811 -0.983167E-06  0.328E-03    2.08      12.4  T
   5    -13.2013811 -0.544482E-08  0.500E-04    2.08      81.6  T
   6    -13.2013811 -0.186025E-09  0.369E-04    2.08     110.6  T
     SCC iter.                  ...        0 min,  0.000 sec
     gradient                   ...        0 min,  0.001 sec
 * total energy  :   -13.1406691 Eh     change       -0.1220348E-03 Eh
   gradient norm :     0.0108743 Eh/α   predicted    -0.1006383E-03 ( -17.53%)
   displ. norm   :     0.0103501 α      lambda       -0.4992214E-04
   maximum displ.:     0.0074717 α      in ANC's #6, #1, #3, ...

........................................................................
.............................. CYCLE    9 ..............................
........................................................................
   1    -13.2006351 -0.132006E+02  0.186E-02    2.08       0.0  T
   2    -13.2006352 -0.118593E-06  0.144E-02    2.08       2.8  T
   3    -13.2006360 -0.802342E-06  0.622E-03    2.08       6.6  T
   4    -13.2006360 -0.254874E-07  0.113E-03    2.08      36.1  T
   5    -13.2006360 -0.100061E-08  0.620E-04    2.08      65.8  T
     SCC iter.                  ...        0 min,  0.000 sec
     gradient                   ...        0 min,  0.001 sec
 * total energy  :   -13.1407078 Eh     change       -0.3869384E-04 Eh
   gradient norm :     0.0078625 Eh/α   predicted    -0.2496280E-04 ( -35.49%)
   displ. norm   :     0.0760843 α      lambda       -0.1210480E-03
   maximum displ.:     0.0553518 α      in ANC's #2, #1, #6, ...

........................................................................
.............................. CYCLE   10 ..............................
........................................................................
   1    -13.1981917 -0.131982E+02  0.125E-01    2.08       0.0  T
   2    -13.1981950 -0.321132E-05  0.833E-02    2.07       1.0  T
   3    -13.1981970 -0.207566E-05  0.607E-02    2.09       1.0  T
   4    -13.1982041 -0.706257E-05  0.884E-03    2.08       4.6  T
   5    -13.1982041 -0.413298E-07  0.265E-03    2.08      15.4  T
   6    -13.1982041 -0.648384E-08  0.127E-03    2.08      32.3  T
     SCC iter.                  ...        0 min,  0.000 sec
     gradient                   ...        0 min,  0.001 sec
 * total energy  :   -13.1402717 Eh     change        0.4361310E-03 Eh
   gradient norm :     0.0316673 Eh/α   predicted    -0.6087436E-04 (-113.96%)
   displ. norm   :     0.0727161 α      lambda       -0.9887165E-03
   maximum displ.:     0.0544102 α      in ANC's #2, #1, #6, ...

........................................................................
.............................. CYCLE   11 ..............................
........................................................................
   1    -13.1980436 -0.131980E+02  0.116E-01    2.08       0.0  T
   2    -13.1980460 -0.242039E-05  0.728E-02    2.08       1.0  T
   3    -13.1980427  0.329650E-05  0.336E-02    2.09       1.2  T
   4    -13.1980471 -0.435455E-05  0.886E-03    2.08       4.6  T
   5    -13.1980472 -0.753602E-07  0.132E-03    2.08      30.9  T
   6    -13.1980472 -0.159708E-08  0.807E-04    2.08      50.6  T
     SCC iter.                  ...        0 min,  0.000 sec
     gradient                   ...        0 min,  0.001 sec
 * total energy  :   -13.1407434 Eh     change       -0.4717034E-03 Eh
   gradient norm :     0.0074758 Eh/α   predicted    -0.4969744E-03 (   5.36%)
   displ. norm   :     0.0160864 α      lambda       -0.4722561E-04
   maximum displ.:     0.0143036 α      in ANC's #6, #3, #1, ...

........................................................................
.............................. CYCLE   12 ..............................
........................................................................
   1    -13.1995898 -0.131996E+02  0.325E-02    2.08       0.0  T
   2    -13.1995901 -0.305254E-06  0.252E-02    2.09       1.6  T
   3    -13.1995930 -0.295005E-05  0.910E-03    2.08       4.5  T
   4    -13.1995931 -0.579332E-07  0.157E-03    2.08      26.0  T
   5    -13.1995931 -0.315649E-08  0.871E-04    2.08      46.9  T
     SCC iter.                  ...        0 min,  0.000 sec
     gradient                   ...        0 min,  0.001 sec
 * total energy  :   -13.1407607 Eh     change       -0.1730594E-04 Eh
   gradient norm :     0.0038832 Eh/α   predicted    -0.2361914E-04 (  36.48%)
   displ. norm   :     0.0057989 α      lambda       -0.1347488E-04
   maximum displ.:     0.0040708 α      in ANC's #6, #3, #2, ...

........................................................................
.............................. CYCLE   13 ..............................
........................................................................
   1    -13.1992996 -0.131993E+02  0.105E-02    2.08       0.0  T
   2    -13.1992997 -0.741610E-07  0.878E-03    2.08       4.7  T
   3    -13.1993000 -0.294096E-06  0.319E-03    2.08      12.8  T
   4    -13.1993000 -0.336367E-08  0.910E-04    2.08      44.9  T
   5    -13.1993000 -0.305308E-09  0.133E-04    2.08     307.6  T
     SCC iter.                  ...        0 min,  0.000 sec
     gradient                   ...        0 min,  0.001 sec
 * total energy  :   -13.1407721 Eh     change       -0.1143455E-04 Eh
   gradient norm :     0.0039958 Eh/α   predicted    -0.6736250E-05 ( -41.09%)
   displ. norm   :     0.0188132 α      lambda       -0.4698627E-04
   maximum displ.:     0.0156008 α      in ANC's #3, #6, #1, ...

........................................................................
.............................. CYCLE   14 ..............................
........................................................................
   1    -13.1989094 -0.131989E+02  0.307E-02    2.08       0.0  T
   2    -13.1989105 -0.112252E-05  0.257E-02    2.08       1.6  T
   3    -13.1989126 -0.207359E-05  0.101E-02    2.09       4.0  T
   4    -13.1989126 -0.266037E-07  0.434E-03    2.08       9.4  T
   5    -13.1989126 -0.123523E-07  0.465E-04    2.08      87.9  T
   6    -13.1989126 -0.250342E-09  0.250E-04    2.08     163.1  T
     SCC iter.                  ...        0 min,  0.000 sec
     gradient                   ...        0 min,  0.001 sec
 * total energy  :   -13.1408058 Eh     change       -0.3371589E-04 Eh
   gradient norm :     0.0053662 Eh/α   predicted    -0.2350177E-04 ( -30.29%)
   displ. norm   :     0.0191338 α      lambda       -0.4085758E-04
   maximum displ.:     0.0180904 α      in ANC's #3, #6, #1, ...

........................................................................
.............................. CYCLE   15 ..............................
........................................................................
   1    -13.1991236 -0.131991E+02  0.293E-02    2.08       0.0  T
   2    -13.1991251 -0.150699E-05  0.220E-02    2.09       1.9  T
   3    -13.1991261 -0.102123E-05  0.101E-02    2.09       4.1  T
   4    -13.1991262 -0.489293E-07  0.584E-03    2.09       7.0  T
   5    -13.1991262 -0.405967E-07  0.379E-04    2.09     107.7  T
   6    -13.1991262 -0.132976E-09  0.129E-04    2.09     316.5  T
     SCC iter.                  ...        0 min,  0.000 sec
     gradient                   ...        0 min,  0.001 sec
 * total energy  :   -13.1408351 Eh     change       -0.2932613E-04 Eh
   gradient norm :     0.0052165 Eh/α   predicted    -0.2043724E-04 ( -30.31%)
   displ. norm   :     0.0146533 α      lambda       -0.2929275E-04
   maximum displ.:     0.0145544 α      in ANC's #3, #2, #1, ...

........................................................................
.............................. CYCLE   16 ..............................
........................................................................
   1    -13.1998565 -0.131999E+02  0.225E-02    2.08       0.0  T
   2    -13.1998575 -0.104075E-05  0.127E-02    2.09       3.2  T
   3    -13.1998576 -0.628287E-07  0.665E-03    2.09       6.1  T
   4    -13.1998576  0.629884E-08  0.556E-03    2.09       7.3  T
   5    -13.1998577 -0.702233E-07  0.437E-04    2.09      93.4  T
   6    -13.1998577 -0.141274E-09  0.109E-04    2.09     373.3  T
     SCC iter.                  ...        0 min,  0.000 sec
     gradient                   ...        0 min,  0.001 sec
 * total energy  :   -13.1408537 Eh     change       -0.1851324E-04 Eh
   gradient norm :     0.0026784 Eh/α   predicted    -0.1464886E-04 ( -20.87%)
   displ. norm   :     0.0039137 α      lambda       -0.5662091E-05
   maximum displ.:     0.0025983 α      in ANC's #6, #3, #1, ...

........................................................................
.............................. CYCLE   17 ..............................
........................................................................
   1    -13.2003167 -0.132003E+02  0.756E-03    2.09       0.0  T
   2    -13.2003168 -0.416410E-07  0.383E-03    2.09      10.7  T
   3    -13.2003168 -0.507778E-07  0.312E-03    2.09      13.1  T
   4    -13.2003169 -0.150359E-07  0.945E-04    2.09      43.2  T
   5    -13.2003169 -0.285409E-09  0.277E-04    2.09     147.6  T
     SCC iter.                  ...        0 min,  0.000 sec
     gradient                   ...        0 min,  0.001 sec
 * total energy  :   -13.1408569 Eh     change       -0.3245316E-05 Eh
   gradient norm :     0.0006090 Eh/α   predicted    -0.2831714E-05 ( -12.74%)
   displ. norm   :     0.0021093 α      lambda       -0.2971028E-06
   maximum displ.:     0.0014202 α      in ANC's #6, #3, #1, ...

   *** GEOMETRY OPTIMIZATION CONVERGED AFTER 17 ITERATIONS ***

------------------------------------------------------------------------
 total energy gain   :       -15.9832871 Eh   -10029.6641 kcal/mol
 total RMSD          :         0.3014935 a0        0.1595 Å
 total power (kW/mol):     -2468.4773299 (step)********** (real)
------------------------------------------------------------------------

 ANCopt (total)                0 d,  0 h,  0 min,  0.032 sec
 optimizer setup                ...        0 min,  0.000 sec (  0.165%)
 model hessian                  ...        0 min,  0.000 sec (  0.253%)
 ANC generation                 ...        0 min,  0.000 sec (  0.200%)
 coordinate transformation      ...        0 min,  0.000 sec (  0.222%)
 single point calculation       ...        0 min,  0.030 sec ( 94.920%)
 optimization log               ...        0 min,  0.000 sec (  1.177%)
 hessian update                 ...        0 min,  0.000 sec (  0.160%)
 rational function              ...        0 min,  0.000 sec (  1.378%)

================
 final structure:
================
6
 xtb: 6.2.3 (830e466)
F        -2.84520854615382   -0.16664851688053    0.05084662193688
Cl        1.81244024598169    0.10817898650960   -0.02924549663937
C        -0.85010054595714   -0.04970284482077    0.01566445841842
H        -0.73424163541361   -0.62425719127052   -0.87820584441166
H        -0.70890358087049   -0.52463930003751    0.96240950589335
H        -0.81691593758662    1.01698886649972   -0.04275924519761
 
 Bond Distances (Angstroems)
 ---------------------------
C3-H4=1.0689         C3-H5=1.0686         C3-H6=1.0688         H4-C3=1.0689         H5-C3=1.0686         H6-C3=1.0688         
 C  H  Rav=1.0688 sigma=0.0001  Rmin=1.0686  Rmax=1.0689     3
 
 selected bond angles (degree)
 --------------------
H5-C3-H4=119.19                H6-C3-H4=119.17                H6-C3-H5=119.20                
 
 selected dihedral angles (degree)
 ---------------------------------

 
 CMA Distance (Angstroems)
 ---------------------------
R(CMA):  3.8779
           -------------------------------------------------
          |                Final Singlepoint                |
           -------------------------------------------------

          ...................................................
          :                      SETUP                      :
          :.................................................:
          :  # basis functions                  21          :
          :  # atomic orbitals                  20          :
          :  # shells                           10          :
          :  # electrons                        22          :
          :  max. iterations                   250          :
          :  Hamiltonian                  GFN2-xTB          :
          :  restarted?                      false          :
          :  GBSA solvation                  false          :
          :  PC potential                    false          :
          :  electronic temp.          300.0000000     K    :
          :  accuracy                    1.0000000          :
          :  -> integral cutoff          0.2500000E+02      :
          :  -> integral neglect         0.1000000E-07      :
          :  -> SCF convergence          0.1000000E-05 Eh   :
          :  -> wf. convergence          0.1000000E-03 e    :
          :  Broyden damping             0.4000000          :
          ...................................................

 iter      E             dE          RMSdq      gap      omega  full diag
   1    -13.2003169 -0.132003E+02  0.141E-04    2.09       0.0  T
   2    -13.2003169 -0.109122E-10  0.105E-04    2.09     388.2  T
   3    -13.2003169 -0.335554E-11  0.959E-05    2.09     425.9  T

   *** convergence criteria satisfied after 3 iterations ***

         #    Occupation            Energy/Eh            Energy/eV
      -------------------------------------------------------------
         1        2.0000           -0.8259876             -22.4763
       ...           ...                  ...                  ...
         5        2.0000           -0.3471937              -9.4476
         6        2.0000           -0.2807001              -7.6382
         7        2.0000           -0.2483929              -6.7591
         8        2.0000           -0.2483919              -6.7591
         9        2.0000           -0.2173740              -5.9150
        10        2.0000           -0.2129851              -5.7956
        11        2.0000           -0.2129848              -5.7956 (HOMO)
        12                         -0.1362877              -3.7086 (LUMO)
        13                          0.2670845               7.2677
        14                          0.2873948               7.8204
        15                          0.2873955               7.8204
        16                          0.2885790               7.8526
       ...                                ...                  ...
        20                          0.4237865              11.5318
      -------------------------------------------------------------
                  HL-Gap            0.0766972 Eh            2.0870 eV
             Fermi-level           -0.1746363 Eh           -4.7521 eV

 SCC (total)                   0 d,  0 h,  0 min,  0.002 sec
 SCC setup                      ...        0 min,  0.000 sec (  2.894%)
 Dispersion                     ...        0 min,  0.000 sec (  0.415%)
 integral evaluation            ...        0 min,  0.001 sec ( 37.400%)
 zeroth order Hamiltonian       ...        0 min,  0.000 sec (  0.748%)
 iterations                     ...        0 min,  0.000 sec ( 14.802%)
 molecular gradient             ...        0 min,  0.001 sec ( 39.767%)
 printout                       ...        0 min,  0.000 sec (  2.852%)

         :::::::::::::::::::::::::::::::::::::::::::::::::::::
         ::                     SUMMARY                     ::
         :::::::::::::::::::::::::::::::::::::::::::::::::::::
         :: total energy             -13.140856896000 Eh    ::
         :: gradient norm              0.000609672812 Eh/a0 ::
         :: HOMO-LUMO gap              2.087035946452 eV    ::
         ::.................................................::
         :: SCC energy               -13.200316851123 Eh    ::
         :: -> isotropic ES            0.168064919217 Eh    ::
         :: -> anisotropic ES         -0.000162457198 Eh    ::
         :: -> anisotropic XC          0.005090897658 Eh    ::
         :: -> dispersion             -0.001944687525 Eh    ::
         :: repulsion energy           0.059406621678 Eh    ::
         :: add. restraining           0.000053708881 Eh    ::
         :::::::::::::::::::::::::::::::::::::::::::::::::::::

           -------------------------------------------------
          |                Property Printout                |
           -------------------------------------------------

    * Orbital Energies and Occupations

         #    Occupation            Energy/Eh            Energy/eV
      -------------------------------------------------------------
         1        2.0000           -0.8259876             -22.4763
         2        2.0000           -0.5396577             -14.6848
         3        2.0000           -0.4404552             -11.9854
         4        2.0000           -0.3472231              -9.4484
         5        2.0000           -0.3471937              -9.4476
         6        2.0000           -0.2807001              -7.6382
         7        2.0000           -0.2483929              -6.7591
         8        2.0000           -0.2483919              -6.7591
         9        2.0000           -0.2173740              -5.9150
        10        2.0000           -0.2129851              -5.7956
        11        2.0000           -0.2129848              -5.7956 (HOMO)
        12                         -0.1362877              -3.7086 (LUMO)
        13                          0.2670845               7.2677
        14                          0.2873948               7.8204
        15                          0.2873955               7.8204
        16                          0.2885790               7.8526
        17                          0.2885792               7.8526
        18                          0.2888649               7.8604
        19                          0.4232260              11.5166
        20                          0.4237865              11.5318
      -------------------------------------------------------------
                  HL-Gap            0.0766972 Eh            2.0870 eV
             Fermi-level           -0.1746363 Eh           -4.7521 eV

     #   Z        covCN         q      C6AA      α(0)
     1   9 F      0.159    -0.516    15.532     4.593
     2  17 Cl     0.050    -0.788   118.644    16.577
     3   6 C      2.989     0.014    27.698     8.633
     4   1 H      0.927     0.097     1.815     2.107
     5   1 H      0.927     0.097     1.814     2.106
     6   1 H      0.927     0.097     1.814     2.106

 Mol. C6AA /au·bohr⁶  :        576.047601
 Mol. C8AA /au·bohr⁸  :      16495.081128
 Mol. α(0) /au        :         36.122804


Wiberg/Mayer (AO) data.
largest (>0.10) Wiberg bond orders for each atom
          total WBO             WBO to atom ...
     1  F   0.734        C    3 0.629    Cl   2 0.103
     2  Cl  0.378        C    3 0.275    F    1 0.103
     3  C   3.870        H    4 0.989    H    6 0.989    H    5 0.989    F    1 0.629    Cl   2 0.275
     4  H   0.991        C    3 0.989
     5  H   0.991        C    3 0.989
     6  H   0.991        C    3 0.989

molecular dipole:
                 x           y           z       tot (Debye)
 q only:       -0.364      -0.024       0.002
   full:       -0.208      -0.015      -0.001       0.530
molecular quadrupole (traceless):
                xx          xy          yy          xz          yz          zz
 q only:      -24.069      -2.135      11.977       0.621       0.036      12.092
  q+dip:      -25.336      -2.246      12.608       0.654       0.038      12.729
   full:      -24.544      -2.176      12.213       0.634       0.037      12.331

           -------------------------------------------------
          |                Geometry Summary                 |
           -------------------------------------------------

      molecular mass/u    :       69.4858989
   center of mass at/Å    :       -0.0329049      -0.0008738       0.0022894
  moments of inertia/u·Å² :        0.3425527E+01   0.2833508E+03   0.2833510E+03
rotational constants/cm⁻¹ :        0.4921179E+01   0.5949385E-01   0.5949382E-01

 * 3 selected distances

     #   Z        #   Z                                     value/Å
     3   6 C      4   1 H                                 1.0688967 (max)
     3   6 C      5   1 H                                 1.0685632 (min)
     3   6 C      6   1 H                                 1.0688058

 * 1 distinct bonds (by element types)

   Z      Z             #   av. dist./Å        max./Å        min./Å
   1 H    6 C           3     1.0687552     1.0688967     1.0685632


optimized geometry written to: xtbopt.xyz


           -------------------------------------------------
          | TOTAL ENERGY              -13.140856896000 Eh   |
          | GRADIENT NORM               0.000609672812 Eh/α |
          | HOMO-LUMO GAP               2.087035946452 eV   |
           -------------------------------------------------

------------------------------------------------------------------------
 * finished run on 2020/04/08 at 23:04:05.561     
------------------------------------------------------------------------
 total:
 * wall-time:     0 d,  0 h,  0 min,  0.043 sec
 *  cpu-time:     0 d,  0 h,  0 min,  0.043 sec
 * ratio c/w:     0.999 speedup
 SCF:
 * wall-time:     0 d,  0 h,  0 min,  0.003 sec
 *  cpu-time:     0 d,  0 h,  0 min,  0.003 sec
 * ratio c/w:     0.999 speedup
 ANC optimizer:
 * wall-time:     0 d,  0 h,  0 min,  0.034 sec
 *  cpu-time:     0 d,  0 h,  0 min,  0.034 sec
 * ratio c/w:     1.000 speedup

