      -----------------------------------------------------------      
     |                   =====================                   |     
     |                           x T B                           |     
     |                   =====================                   |     
     |                         S. Grimme                         |     
     |          Mulliken Center for Theoretical Chemistry        |     
     |                    University of Bonn                     |     
      -----------------------------------------------------------      

   * xtb version 6.2.3 (830e466) compiled by 'ehlert@majestix' on 2020-03-16

   xtb is free software: you can redistribute it and/or modify it under
   the terms of the GNU Lesser General Public License as published by
   the Free Software Foundation, either version 3 of the License, or
   (at your option) any later version.
   
   xtb is distributed in the hope that it will be useful,
   but WITHOUT ANY WARRANTY; without even the implied warranty of
   MERCHANTABILITY or FITNESS FOR A PARTICULAR PURPOSE.  See the
   GNU Lesser General Public License for more details.
   
   Cite this work as:
   * S. Grimme, C. Bannwarth, P. Shushkov, J. Chem. Theory Comput., 2017,
     13, 1989-2009. DOI: 10.1021/acs.jctc.7b00118
   * C. Bannwarth, S. Ehlert and S. Grimme., J. Chem. Theory Comput., 2019,
     15, 1652-1671. DOI: 10.1021/acs.jctc.8b01176
   * P. Pracht, E. Caldeweyher, S. Ehlert, S. Grimme, ChemRxiv, 2019, preprint.
     DOI: 10.26434/chemrxiv.8326202.v1
   
   for DFT-D4:
   * E. Caldeweyher, C. Bannwarth and S. Grimme, J. Chem. Phys., 2017,
     147, 034112. DOI: 10.1063/1.4993215
   * E. Caldeweyher, S. Ehlert, A. Hansen, H. Neugebauer, S. Spicher,
     C. Bannwarth and S. Grimme, J. Chem. Phys., 2019, 150, 154122.
     DOI: 10.1063/1.5090222
   
   for sTDA-xTB:
   * S. Grimme and C. Bannwarth, J. Chem. Phys., 2016, 145, 054103.
     DOI: 10.1063/1.4959605
   
   in the mass-spec context:
   * V. Asgeirsson, C. Bauer and S. Grimme, Chem. Sci., 2017, 8, 4879.
     DOI: 10.1039/c7sc00601b
   
   for metadynamics refer to:
   * S. Grimme, J. Chem. Theory Comput., 2019, 155, 2847-2862
     DOI: 10.1021/acs.jctc.9b00143
   
   with help from (in alphabetical order)
   C. Bannwarth, F. Bohle, G. Brandenburg, E. Caldeweyher, M. Checinski,
   S. Dohm, S. Ehlert, S. Ehrlich, F. März, H. Neugebauer, J. Pisarek,
   P. Pracht, P. Shushkov, and S. Spicher.
   
 * started run on 2020/04/08 at 23:04:52.094     

           -------------------------------------------------
          |                Calculation Setup                |
           -------------------------------------------------

          program call               : /home/tom/.local/bin/xtb SN2_PES_scan_6-4_xtb.xyz --chrg -1 --opt --input xcontrol_SN2_PES_scan_6-4
          coordinate file            : SN2_PES_scan_6-4_xtb.xyz
          omp threads                :                     1
          number of atoms            :                     6
          number of electrons        :                    22
          charge                     :                    -1
          spin                       :                   0.0
          first test random number   :      0.17292187954223

constraining bond 1 3 to    2.2050000 Å, actual value:    1.4988313 Å
constraining bond 2 3 to    2.9830000 Å, actual value:    3.1119636 Å

molecular fragmentation (1/2 indicates fragments):
121111
# atoms in fragment 1/2:     5     1
 fragment masses (1/2) :       34.03       35.45
CMA distance (Bohr)    :   7.410
constraining FC (au)   : 10.0000
########################################################################
[WARNING] Please study the warnings concerning your input carefully
-2- prog_main: XTBPATH is not set, using XTBHOME instead
-1- prog_main: XTBHOME is not set, using HOME instead
########################################################################
           ------------------------------------------------- 
          |                 G F N 2 - x T B                 |
          | Geometry, Frequencies, Noncovalent interactions |
          |            JCTC 2019 parametrisation            |
           ------------------------------------------------- 
             k(s)              :                1.8500
             k(p)              :                2.2300
             k(d)              :                2.2300
             k(f)              :                2.0000
             kEN (H0ij)        :               -2.0000
             D4 a1             :                0.5200
             D4 a2             :                5.0000
             D4 s6             :                1.0000
             D4 s8             :                2.7000
             D4 s9             :                5.0000
             alphaj            :                2.0000

  Z AO/shell   Hii/eV     exponent
  1     Wed Apr 25 08:07:45 CEST 2018   EN: 2.200 GM2: 0.406  GM3: 0.0800  RAES: 1.40
     1s    -10.707211    1.230000
  6     Wed Apr 25 08:07:45 CEST 2018   EN: 2.550 GM2: 0.538  GM3: 0.1500  RAES: 3.00
     2s    -13.970922    2.096432
     2p    -10.063292    1.800000
  9     Mon Apr 23 13:58:50 CEST 2018   EN: 3.980 GM2: 0.532  GM3: 0.1426  RAES: 2.40
     2s    -23.458179    2.416361
     2p    -15.746583    2.308399
 17     Mon Apr 23 14:09:22 CEST 2018   EN: 3.160 GM2: 0.249  GM3: 0.1495  RAES: 2.50
     3s    -29.278781    2.485265
     3p    -12.673758    2.199650
     3d     -0.240338    2.476089

           ------------------------------------------------- 
          |        Self-Consistent Charge Iterations        |
           ------------------------------------------------- 

          ...................................................
          :                      SETUP                      :
          :.................................................:
          :  # basis functions                  21          :
          :  # atomic orbitals                  20          :
          :  # shells                           10          :
          :  # electrons                        22          :
          :  max. iterations                   250          :
          :  Hamiltonian                  GFN2-xTB          :
          :  restarted?                      false          :
          :  GBSA solvation                  false          :
          :  PC potential                    false          :
          :  electronic temp.          300.0000000     K    :
          :  accuracy                    1.0000000          :
          :  -> integral cutoff          0.2500000E+02      :
          :  -> integral neglect         0.1000000E-07      :
          :  -> SCF convergence          0.1000000E-05 Eh   :
          :  -> wf. convergence          0.1000000E-03 e    :
          :  Broyden damping             0.4000000          :
          ...................................................

 iter      E             dE          RMSdq      gap      omega  full diag
   1    -13.1791197 -0.131791E+02  0.559E+00   10.66       0.0  T
   2    -13.2412508 -0.621310E-01  0.272E+00    7.71       1.0  T
   3    -13.2429790 -0.172822E-02  0.160E+00    6.88       1.0  T
   4    -13.2431886 -0.209575E-03  0.235E-01    5.92       1.0  T
   5    -13.2432862 -0.976135E-04  0.103E-01    6.14       1.0  T
   6    -13.2432856  0.557930E-06  0.751E-02    6.13       1.0  T
   7    -13.2433070 -0.213998E-04  0.255E-02    6.15       1.6  T
   8    -13.2433072 -0.180508E-06  0.128E-02    6.15       3.2  T
   9    -13.2433079 -0.703628E-06  0.722E-04    6.16      56.5  T
  10    -13.2433079 -0.299512E-09  0.761E-05    6.16     536.3  T

   *** convergence criteria satisfied after 10 iterations ***

         #    Occupation            Energy/Eh            Energy/eV
      -------------------------------------------------------------
         1        2.0000           -0.7824547             -21.2917
       ...           ...                  ...                  ...
         5        2.0000           -0.3853324             -10.4854
         6        2.0000           -0.3852968             -10.4845
         7        2.0000           -0.3231523              -8.7934
         8        2.0000           -0.3231438              -8.7932
         9        2.0000           -0.1862894              -5.0692
        10        2.0000           -0.1850295              -5.0349
        11        2.0000           -0.1850280              -5.0349 (HOMO)
        12                          0.0412692               1.1230 (LUMO)
        13                          0.2793783               7.6023
        14                          0.3427275               9.3261
        15                          0.3427552               9.3268
        16                          0.3449919               9.3877
       ...                                ...                  ...
        20                          0.3595288               9.7833
      -------------------------------------------------------------
                  HL-Gap            0.2262972 Eh            6.1579 eV
             Fermi-level           -0.0718794 Eh           -1.9559 eV

 SCC (total)                   0 d,  0 h,  0 min,  0.002 sec
 SCC setup                      ...        0 min,  0.000 sec (  2.587%)
 Dispersion                     ...        0 min,  0.000 sec (  0.578%)
 integral evaluation            ...        0 min,  0.001 sec ( 26.428%)
 zeroth order Hamiltonian       ...        0 min,  0.000 sec (  0.696%)
 iterations                     ...        0 min,  0.001 sec ( 40.363%)
 molecular gradient             ...        0 min,  0.001 sec ( 26.017%)
 printout                       ...        0 min,  0.000 sec (  2.430%)

         :::::::::::::::::::::::::::::::::::::::::::::::::::::
         ::                     SUMMARY                     ::
         :::::::::::::::::::::::::::::::::::::::::::::::::::::
         :: total energy               5.215499193432 Eh    ::
         :: gradient norm             41.560457695150 Eh/a0 ::
         :: HOMO-LUMO gap              6.157861221432 eV    ::
         ::.................................................::
         :: SCC energy               -13.243307906845 Eh    ::
         :: -> isotropic ES            0.168479280124 Eh    ::
         :: -> anisotropic ES         -0.001110957677 Eh    ::
         :: -> anisotropic XC          0.000965906719 Eh    ::
         :: -> dispersion             -0.001781801525 Eh    ::
         :: repulsion energy           0.056905770249 Eh    ::
         :: add. restraining          18.401901551975 Eh    ::
         :::::::::::::::::::::::::::::::::::::::::::::::::::::

      ----------------------------------------------------------- 
     |                   =====================                   |
     |                        A N C O P T                        |
     |                   =====================                   |
     |               Approximate Normal Coordinate               |
     |                Rational Function Optimizer                |
      ----------------------------------------------------------- 

          ...................................................
          :                      SETUP                      :
          :.................................................:
          :   optimization level            normal          :
          :   max. optcycles                   200          :
          :   ANC micro-cycles                  20          :
          :   degrees of freedom                12          :
          :.................................................:
          :   RF solver                   davidson          :
          :   write xtbopt.log                true          :
          :   linear?                        false          :
          :   energy convergence         0.5000000E-05 Eh   :
          :   grad. convergence          0.1000000E-02 Eh/α :
          :   maximium RF displ.         1.0000000          :
          :   Hlow (freq-cutoff)         0.1000000E-01      :
          :   Hmax (freq-cutoff)         5.0000000          :
          :   S6 in model hess.         20.0000000          :
          ...................................................

generating ANC from model Hessian ...
Using Lindh-Hessian (1995)
 Shifting diagonal of input Hessian by    15.9011591629652     
 Lowest  eigenvalues of input Hessian
    0.010000    0.010343   -0.000000   -0.000000   -0.000000    0.000000
    0.000000    0.000000   15.996108   15.996190   16.020686   16.084169
   16.084203   16.371750   16.732528   16.732855   36.111832   76.735464
 Highest eigenvalues
   16.084203   16.371750   16.732528   16.732855   36.111832   76.735464
 

........................................................................
.............................. CYCLE    1 ..............................
........................................................................
   1    -13.2433079 -0.132433E+02  0.957E-06    6.16       0.0  T
   2    -13.2433079 -0.133227E-12  0.410E-06    6.16    9954.4  T
   3    -13.2433079  0.177636E-14  0.238E-06    6.16   17136.5  T
     SCC iter.                  ...        0 min,  0.000 sec
     gradient                   ...        0 min,  0.001 sec
 * total energy  :     5.2154992 Eh     change        0.4879315E-08 Eh
   gradient norm :    41.5604578 Eh/α   predicted     0.0000000E+00 (-100.00%)
   displ. norm   :     0.9416543 α      lambda       -0.3913558E+02
   maximum displ.:     0.8778072 α      in ANC's #3, #12, #6, ...

........................................................................
.............................. CYCLE    2 ..............................
........................................................................
   1    -12.7822603 -0.127823E+02  0.120E+01    0.44       0.0  T
   2    -13.0044913 -0.222231E+00  0.723E+00    3.78       1.0  T
   3    -13.1614879 -0.156997E+00  0.365E+00    1.41       1.0  T
   4    -13.1795771 -0.180893E-01  0.265E+00    2.21       1.0  T
   5    -13.1943850 -0.148079E-01  0.117E+00    1.70       1.0  T
   6    -13.1954327 -0.104772E-02  0.475E-01    1.72       1.0  T
   7    -13.1964555 -0.102278E-02  0.250E-01    1.69       1.0  T
   8    -13.1964566 -0.111112E-05  0.255E-01    1.83       1.0  T
   9    -13.1964669 -0.102807E-04  0.215E-01    1.81       1.0  T
  10    -13.1966145 -0.147632E-03  0.329E-02    1.76       1.2  T
  11    -13.1966125  0.206073E-05  0.486E-02    1.78       1.0  T
  12    -13.1966186 -0.610766E-05  0.440E-03    1.77       9.3  T
  13    -13.1966186 -0.508715E-07  0.858E-04    1.77      47.6  T
  14    -13.1966186 -0.281600E-08  0.941E-05    1.77     433.7  T
     SCC iter.                  ...        0 min,  0.001 sec
     gradient                   ...        0 min,  0.001 sec
 * total energy  :    -9.7443315 Eh     change       -0.1495983E+02 Eh
   gradient norm :    16.1975991 Eh/α   predicted    -0.3691880E+02 ( 146.79%)
   displ. norm   :     0.7281683 α      lambda       -0.9381879E+01
   maximum displ.:     0.6802720 α      in ANC's #12, #3, #1, ...

........................................................................
.............................. CYCLE    3 ..............................
........................................................................
   1    -13.1438713 -0.131439E+02  0.261E+00    1.02       0.0  T
   2    -13.1227162  0.211551E-01  0.341E+00    0.80       1.0  T
   3    -13.1527468 -0.300306E-01  0.260E+00    0.40       1.0  T
   4    -13.1754830 -0.227362E-01  0.720E-01    0.73       1.0  T
   5    -13.1773931 -0.191014E-02  0.419E-01    0.73       1.0  T
   6    -13.1776637 -0.270545E-03  0.254E-01    0.65       1.0  T
   7    -13.1779148 -0.251098E-03  0.113E-01    0.70       1.0  T
   8    -13.1779540 -0.392142E-04  0.819E-02    0.70       1.0  T
   9    -13.1779784 -0.244305E-04  0.327E-02    0.69       1.2  T
  10    -13.1779829 -0.445966E-05  0.676E-03    0.69       6.0  T
  11    -13.1779831 -0.210886E-06  0.290E-03    0.69      14.1  T
  12    -13.1779831 -0.316813E-07  0.387E-04    0.69     105.4  T
     SCC iter.                  ...        0 min,  0.001 sec
     gradient                   ...        0 min,  0.001 sec
 * total energy  :   -12.4130757 Eh     change       -0.2668744E+01 Eh
   gradient norm :     5.5548253 Eh/α   predicted    -0.7178216E+01 ( 168.97%)
   displ. norm   :     0.2611758 α      lambda       -0.1375414E+01
   maximum displ.:     0.2607042 α      in ANC's #12, #3, #6, ...

........................................................................
.............................. CYCLE    4 ..............................
........................................................................
   1    -13.1857457 -0.131857E+02  0.647E-01    1.09       0.0  T
   2    -13.1836294  0.211632E-02  0.917E-01    0.78       1.0  T
   3    -13.1867520 -0.312255E-02  0.226E-01    0.97       1.0  T
   4    -13.1868815 -0.129582E-03  0.834E-02    0.96       1.0  T
   5    -13.1868924 -0.108658E-04  0.398E-02    0.93       1.0  T
   6    -13.1868964 -0.404135E-05  0.856E-03    0.94       4.8  T
   7    -13.1868966 -0.147476E-06  0.239E-03    0.94      17.1  T
   8    -13.1868966 -0.138007E-07  0.983E-04    0.94      41.5  T
     SCC iter.                  ...        0 min,  0.001 sec
     gradient                   ...        0 min,  0.001 sec
 * total energy  :   -13.1017044 Eh     change       -0.6886287E+00 Eh
   gradient norm :     1.1026839 Eh/α   predicted    -0.7346178E+00 (   6.68%)
   displ. norm   :     0.0350338 α      lambda       -0.2778989E-01
   maximum displ.:     0.0247394 α      in ANC's #3, #1, #6, ...

........................................................................
.............................. CYCLE    5 ..............................
........................................................................
   1    -13.1846804 -0.131847E+02  0.265E-01    0.90       0.0  T
   2    -13.1846813 -0.967879E-06  0.256E-01    1.02       1.0  T
   3    -13.1849362 -0.254806E-03  0.297E-02    0.96       1.4  T
   4    -13.1849301  0.603783E-05  0.426E-02    0.95       1.0  T
   5    -13.1849371 -0.699060E-05  0.761E-03    0.95       5.4  T
   6    -13.1849371 -0.352190E-07  0.667E-03    0.96       6.1  T
   7    -13.1849373 -0.121412E-06  0.150E-03    0.96      27.3  T
   8    -13.1849373 -0.552321E-08  0.502E-04    0.96      81.3  T
     SCC iter.                  ...        0 min,  0.001 sec
     gradient                   ...        0 min,  0.001 sec
 * total energy  :   -13.1108930 Eh     change       -0.9188644E-02 Eh
   gradient norm :     0.3846966 Eh/α   predicted    -0.1391200E-01 (  51.40%)
   displ. norm   :     0.4241647 α      lambda       -0.5410991E-02
   maximum displ.:     0.4233223 α      in ANC's #1, #2, #6, ...

........................................................................
.............................. CYCLE    6 ..............................
........................................................................
   1    -13.1737711 -0.131738E+02  0.764E-01    0.89       0.0  T
   2    -13.1738535 -0.823892E-04  0.498E-01    0.93       1.0  T
   3    -13.1728912  0.962256E-03  0.519E-01    0.91       1.0  T
   4    -13.1739488 -0.105757E-02  0.203E-01    0.88       1.0  T
   5    -13.1740371 -0.882601E-04  0.123E-01    0.94       1.0  T
   6    -13.1740706 -0.334903E-04  0.255E-02    0.92       1.6  T
   7    -13.1740720 -0.147087E-05  0.151E-02    0.92       2.7  T
   8    -13.1740730 -0.956350E-06  0.586E-03    0.92       7.0  T
   9    -13.1740731 -0.966634E-07  0.101E-03    0.92      40.5  T
     SCC iter.                  ...        0 min,  0.001 sec
     gradient                   ...        0 min,  0.001 sec
 * total energy  :   -13.0725122 Eh     change        0.3838081E-01 Eh
   gradient norm :     1.0225028 Eh/α   predicted    -0.3192275E-02 (-108.32%)
   displ. norm   :     0.3106899 α      lambda       -0.9596743E-01
   maximum displ.:     0.3099265 α      in ANC's #1, #3, #6, ...

........................................................................
.............................. CYCLE    7 ..............................
........................................................................
   1    -13.1825748 -0.131826E+02  0.654E-01    1.04       0.0  T
   2    -13.1825122  0.625581E-04  0.523E-01    0.86       1.0  T
   3    -13.1828720 -0.359777E-03  0.338E-01    1.00       1.0  T
   4    -13.1827223  0.149660E-03  0.270E-01    0.94       1.0  T
   5    -13.1830596 -0.337315E-03  0.482E-02    0.95       1.0  T
   6    -13.1830613 -0.162164E-05  0.104E-02    0.95       3.9  T
   7    -13.1830614 -0.169547E-06  0.643E-03    0.95       6.4  T
   8    -13.1830615 -0.808005E-07  0.241E-03    0.95      16.9  T
   9    -13.1830615 -0.361375E-08  0.129E-03    0.95      31.8  T
     SCC iter.                  ...        0 min,  0.001 sec
     gradient                   ...        0 min,  0.001 sec
 * total energy  :   -13.1070636 Eh     change       -0.3455142E-01 Eh
   gradient norm :     0.6979513 Eh/α   predicted    -0.5261543E-01 (  52.28%)
   displ. norm   :     0.1779493 α      lambda       -0.2066698E-01
   maximum displ.:     0.1399227 α      in ANC's #1, #2, #3, ...

........................................................................
.............................. CYCLE    8 ..............................
........................................................................
   1    -13.1819766 -0.131820E+02  0.430E-01    0.90       0.0  T
   2    -13.1820037 -0.271261E-04  0.341E-01    1.04       1.0  T
   3    -13.1822956 -0.291916E-03  0.160E-01    0.95       1.0  T
   4    -13.1823007 -0.505212E-05  0.544E-02    0.96       1.0  T
   5    -13.1823031 -0.244330E-05  0.414E-02    0.96       1.0  T
   6    -13.1823095 -0.641627E-05  0.964E-03    0.96       4.2  T
   7    -13.1823097 -0.205655E-06  0.518E-03    0.96       7.9  T
   8    -13.1823098 -0.569175E-07  0.210E-03    0.96      19.4  T
     SCC iter.                  ...        0 min,  0.001 sec
     gradient                   ...        0 min,  0.001 sec
 * total energy  :   -13.1057402 Eh     change        0.1323421E-02 Eh
   gradient norm :     0.7602708 Eh/α   predicted    -0.1066071E-01 (-905.54%)
   displ. norm   :     0.4955587 α      lambda       -0.2218884E-01
   maximum displ.:     0.4954085 α      in ANC's #2, #1, #6, ...

........................................................................
.............................. CYCLE    9 ..............................
........................................................................
   1    -13.1713599 -0.131714E+02  0.972E-01    0.90       0.0  T
   2    -13.1713900 -0.301669E-04  0.648E-01    0.93       1.0  T
   3    -13.1690065  0.238354E-02  0.777E-01    0.95       1.0  T
   4    -13.1715827 -0.257623E-02  0.229E-01    0.88       1.0  T
   5    -13.1717024 -0.119698E-03  0.135E-01    0.95       1.0  T
   6    -13.1717391 -0.366855E-04  0.378E-02    0.93       1.1  T
   7    -13.1717434 -0.431408E-05  0.205E-02    0.92       2.0  T
   8    -13.1717452 -0.179353E-05  0.694E-03    0.93       5.9  T
   9    -13.1717454 -0.141629E-06  0.189E-03    0.93      21.6  T
  10    -13.1717454 -0.501750E-08  0.109E-03    0.93      37.6  T
     SCC iter.                  ...        0 min,  0.001 sec
     gradient                   ...        0 min,  0.001 sec
 * total energy  :   -13.0595431 Eh     change        0.4619712E-01 Eh
   gradient norm :     1.3651124 Eh/α   predicted    -0.1381907E-01 (-129.91%)
   displ. norm   :     0.4160364 α      lambda       -0.1762221E+00
   maximum displ.:     0.3025399 α      in ANC's #2, #1, #3, ...

........................................................................
.............................. CYCLE   10 ..............................
........................................................................
   1    -13.1738029 -0.131738E+02  0.108E+00    1.14       0.0  T
   2    -13.1734737  0.329271E-03  0.928E-01    0.76       1.0  T
   3    -13.1750849 -0.161128E-02  0.546E-01    1.00       1.0  T
   4    -13.1746076  0.477306E-03  0.452E-01    0.91       1.0  T
   5    -13.1755624 -0.954770E-03  0.716E-02    0.91       1.0  T
   6    -13.1755679 -0.545594E-05  0.325E-02    0.93       1.3  T
   7    -13.1755712 -0.330484E-05  0.114E-02    0.92       3.6  T
   8    -13.1755714 -0.250257E-06  0.475E-03    0.92       8.6  T
   9    -13.1755714 -0.955704E-08  0.362E-03    0.92      11.3  T
     SCC iter.                  ...        0 min,  0.001 sec
     gradient                   ...        0 min,  0.001 sec
 * total energy  :   -13.0421260 Eh     change        0.1741706E-01 Eh
   gradient norm :     2.6876439 Eh/α   predicted    -0.1033619E+00 (-693.45%)
   displ. norm   :     0.2993513 α      lambda       -0.1613985E+00
   maximum displ.:     0.2149217 α      in ANC's #2, #1, #3, ...

........................................................................
.............................. CYCLE   11 ..............................
........................................................................
   1    -13.1785056 -0.131785E+02  0.871E-01    0.84       0.0  T
   2    -13.1788197 -0.314120E-03  0.687E-01    1.16       1.0  T
   3    -13.1801364 -0.131668E-02  0.274E-01    0.97       1.0  T
   4    -13.1801299  0.646337E-05  0.897E-02    0.97       1.0  T
   5    -13.1801287  0.122070E-05  0.787E-02    0.97       1.0  T
   6    -13.1801482 -0.194407E-04  0.480E-02    0.99       1.0  T
   7    -13.1801554 -0.723815E-05  0.885E-03    0.98       4.6  T
   8    -13.1801555 -0.133489E-06  0.438E-03    0.98       9.3  T
   9    -13.1801556 -0.453176E-07  0.142E-03    0.98      28.8  T
     SCC iter.                  ...        0 min,  0.001 sec
     gradient                   ...        0 min,  0.001 sec
 * total energy  :   -13.1038325 Eh     change       -0.6170649E-01 Eh
   gradient norm :     0.7697378 Eh/α   predicted    -0.8793077E-01 (  42.50%)
   displ. norm   :     0.0838018 α      lambda       -0.1578009E-01
   maximum displ.:     0.0807323 α      in ANC's #2, #3, #12, ...

........................................................................
.............................. CYCLE   12 ..............................
........................................................................
   1    -13.1795244 -0.131795E+02  0.217E-01    0.99       0.0  T
   2    -13.1795291 -0.472220E-05  0.166E-01    0.93       1.0  T
   3    -13.1795836 -0.544116E-04  0.962E-02    0.97       1.0  T
   4    -13.1795698  0.137244E-04  0.699E-02    0.96       1.0  T
   5    -13.1795921 -0.222237E-04  0.134E-02    0.96       3.0  T
   6    -13.1795923 -0.197348E-06  0.292E-03    0.96      14.0  T
   7    -13.1795923 -0.103858E-07  0.189E-03    0.96      21.6  T
     SCC iter.                  ...        0 min,  0.000 sec
     gradient                   ...        0 min,  0.001 sec
 * total energy  :   -13.1124547 Eh     change       -0.8622154E-02 Eh
   gradient norm :     0.1592678 Eh/α   predicted    -0.7945454E-02 (  -7.85%)
   displ. norm   :     0.0419486 α      lambda       -0.1747043E-02
   maximum displ.:     0.0373328 α      in ANC's #1, #2, #12, ...

........................................................................
.............................. CYCLE   13 ..............................
........................................................................
   1    -13.1788486 -0.131788E+02  0.884E-02    0.95       0.0  T
   2    -13.1788502 -0.168340E-05  0.570E-02    0.96       1.0  T
   3    -13.1788470  0.323302E-05  0.437E-02    0.94       1.0  T
   4    -13.1788512 -0.423521E-05  0.137E-02    0.95       3.0  T
   5    -13.1788514 -0.141127E-06  0.101E-02    0.95       4.1  T
   6    -13.1788518 -0.425915E-06  0.144E-03    0.95      28.3  T
   7    -13.1788518 -0.288303E-08  0.679E-04    0.95      60.1  T
     SCC iter.                  ...        0 min,  0.001 sec
     gradient                   ...        0 min,  0.001 sec
 * total energy  :   -13.1132712 Eh     change       -0.8165547E-03 Eh
   gradient norm :     0.0643129 Eh/α   predicted    -0.8750584E-03 (   7.16%)
   displ. norm   :     0.0200638 α      lambda       -0.3036848E-03
   maximum displ.:     0.0169842 α      in ANC's #2, #1, #6, ...

........................................................................
.............................. CYCLE   14 ..............................
........................................................................
   1    -13.1783215 -0.131783E+02  0.417E-02    0.96       0.0  T
   2    -13.1783199  0.160604E-05  0.345E-02    0.95       1.2  T
   3    -13.1783207 -0.749942E-06  0.294E-02    0.96       1.4  T
   4    -13.1783227 -0.205698E-05  0.666E-03    0.96       6.1  T
   5    -13.1783228 -0.110794E-06  0.356E-03    0.95      11.5  T
   6    -13.1783229 -0.311255E-07  0.654E-04    0.95      62.5  T
     SCC iter.                  ...        0 min,  0.000 sec
     gradient                   ...        0 min,  0.001 sec
 * total energy  :   -13.1134763 Eh     change       -0.2050853E-03 Eh
   gradient norm :     0.0411596 Eh/α   predicted    -0.1519054E-03 ( -25.93%)
   displ. norm   :     0.0113993 α      lambda       -0.1357191E-03
   maximum displ.:     0.0080440 α      in ANC's #2, #6, #1, ...

........................................................................
.............................. CYCLE   15 ..............................
........................................................................
   1    -13.1774586 -0.131775E+02  0.269E-02    0.96       0.0  T
   2    -13.1774556  0.300813E-05  0.320E-02    0.95       1.3  T
   3    -13.1774595 -0.394912E-05  0.142E-02    0.96       2.9  T
   4    -13.1774598 -0.337990E-06  0.298E-03    0.96      13.7  T
   5    -13.1774598  0.109330E-08  0.210E-03    0.96      19.4  T
     SCC iter.                  ...        0 min,  0.000 sec
     gradient                   ...        0 min,  0.001 sec
 * total energy  :   -13.1135709 Eh     change       -0.9453495E-04 Eh
   gradient norm :     0.0133228 Eh/α   predicted    -0.6786795E-04 ( -28.21%)
   displ. norm   :     0.0098290 α      lambda       -0.1005982E-03
   maximum displ.:     0.0087660 α      in ANC's #6, #1, #2, ...

........................................................................
.............................. CYCLE   16 ..............................
........................................................................
   1    -13.1762839 -0.131763E+02  0.281E-02    0.96       0.0  T
   2    -13.1762786  0.531404E-05  0.410E-02    0.95       1.0  T
   3    -13.1762858 -0.726251E-05  0.103E-02    0.96       4.0  T
   4    -13.1762860 -0.147601E-06  0.524E-03    0.96       7.8  T
   5    -13.1762861 -0.659356E-07  0.163E-03    0.96      25.1  T
   6    -13.1762861 -0.517336E-08  0.355E-04    0.96     115.0  T
     SCC iter.                  ...        0 min,  0.000 sec
     gradient                   ...        0 min,  0.001 sec
 * total energy  :   -13.1136479 Eh     change       -0.7702557E-04 Eh
   gradient norm :     0.0270657 Eh/α   predicted    -0.5030431E-04 ( -34.69%)
   displ. norm   :     0.0149539 α      lambda       -0.1308569E-03
   maximum displ.:     0.0145122 α      in ANC's #6, #2, #1, ...

........................................................................
.............................. CYCLE   17 ..............................
........................................................................
   1    -13.1743722 -0.131744E+02  0.464E-02    0.97       0.0  T
   2    -13.1743584  0.137314E-04  0.671E-02    0.95       1.0  T
   3    -13.1743775 -0.190416E-04  0.170E-02    0.96       2.4  T
   4    -13.1743781 -0.592054E-06  0.890E-03    0.96       4.6  T
   5    -13.1743782 -0.102905E-06  0.218E-03    0.96      18.8  T
   6    -13.1743782 -0.975485E-08  0.461E-04    0.96      88.5  T
     SCC iter.                  ...        0 min,  0.000 sec
     gradient                   ...        0 min,  0.001 sec
 * total energy  :   -13.1137370 Eh     change       -0.8911420E-04 Eh
   gradient norm :     0.0350499 Eh/α   predicted    -0.6544225E-04 ( -26.56%)
   displ. norm   :     0.0108089 α      lambda       -0.6313418E-04
   maximum displ.:     0.0093529 α      in ANC's #6, #2, #1, ...

........................................................................
.............................. CYCLE   18 ..............................
........................................................................
   1    -13.1731997 -0.131732E+02  0.321E-02    0.96       0.0  T
   2    -13.1731947  0.495935E-05  0.431E-02    0.95       1.0  T
   3    -13.1732019 -0.720354E-05  0.130E-02    0.96       3.1  T
   4    -13.1732023 -0.339627E-06  0.635E-03    0.96       6.4  T
   5    -13.1732023 -0.604827E-07  0.160E-03    0.96      25.6  T
   6    -13.1732023 -0.465573E-08  0.314E-04    0.96     130.2  T
     SCC iter.                  ...        0 min,  0.000 sec
     gradient                   ...        0 min,  0.001 sec
 * total energy  :   -13.1137789 Eh     change       -0.4194735E-04 Eh
   gradient norm :     0.0217215 Eh/α   predicted    -0.3157116E-04 ( -24.74%)
   displ. norm   :     0.0060499 α      lambda       -0.2272052E-04
   maximum displ.:     0.0040249 α      in ANC's #1, #6, #2, ...

........................................................................
.............................. CYCLE   19 ..............................
........................................................................
   1    -13.1728476 -0.131728E+02  0.149E-02    0.96       0.0  T
   2    -13.1728473  0.352440E-06  0.155E-02    0.95       2.6  T
   3    -13.1728480 -0.692045E-06  0.709E-03    0.96       5.8  T
   4    -13.1728480 -0.808372E-08  0.462E-03    0.96       8.8  T
   5    -13.1728481 -0.898585E-07  0.915E-04    0.96      44.6  T
     SCC iter.                  ...        0 min,  0.000 sec
     gradient                   ...        0 min,  0.001 sec
 * total energy  :   -13.1137939 Eh     change       -0.1493696E-04 Eh
   gradient norm :     0.0071302 Eh/α   predicted    -0.1136005E-04 ( -23.95%)
   displ. norm   :     0.0033837 α      lambda       -0.8809493E-05
   maximum displ.:     0.0028246 α      in ANC's #1, #9, #2, ...

........................................................................
.............................. CYCLE   20 ..............................
........................................................................
   1    -13.1728552 -0.131729E+02  0.692E-03    0.96       0.0  T
   2    -13.1728552  0.418158E-08  0.555E-03    0.96       7.3  T
   3    -13.1728552 -0.756454E-07  0.313E-03    0.96      13.0  T
   4    -13.1728552  0.299183E-07  0.348E-03    0.96      11.7  T
   5    -13.1728553 -0.460682E-07  0.444E-04    0.96      91.8  T
   6    -13.1728553 -0.109045E-09  0.115E-04    0.96     354.2  T
     SCC iter.                  ...        0 min,  0.000 sec
     gradient                   ...        0 min,  0.001 sec
 * total energy  :   -13.1138005 Eh     change       -0.6596211E-05 Eh
   gradient norm :     0.0058418 Eh/α   predicted    -0.4403660E-05 ( -33.24%)
   displ. norm   :     0.0045904 α      lambda       -0.1134066E-04
   maximum displ.:     0.0032709 α      in ANC's #1, #9, #6, ...
 * RMSD in coord.:     0.4119993 α      energy gain  -0.1832930E+02 Eh

generating ANC from model Hessian ...
Using Lindh-Hessian (1995)
 Shifting diagonal of input Hessian by   2.091090809008811E-002
 Lowest  eigenvalues of input Hessian
    0.010000    0.010006   -0.000000   -0.000000    0.000000    0.000000
    0.000000    0.000000    0.025481    0.025548    0.030856    0.187136
    0.188593    0.457491    1.275665    1.280892   20.038569   60.077580
 Highest eigenvalues
    0.188593    0.457491    1.275665    1.280892   20.038569   60.077580
 

........................................................................
.............................. CYCLE   21 ..............................
........................................................................
   1    -13.1729445 -0.131729E+02  0.924E-03    0.96       0.0  T
   2    -13.1729444  0.160474E-06  0.926E-03    0.96       4.4  T
   3    -13.1729447 -0.324691E-06  0.481E-03    0.96       8.5  T
   4    -13.1729447 -0.245641E-07  0.345E-03    0.96      11.8  T
   5    -13.1729447 -0.271810E-07  0.448E-04    0.96      91.2  T
   6    -13.1729447 -0.114200E-09  0.119E-04    0.96     343.9  T
     SCC iter.                  ...        0 min,  0.000 sec
     gradient                   ...        0 min,  0.001 sec
 * total energy  :   -13.1138094 Eh     change       -0.8930183E-05 Eh
   gradient norm :     0.0126507 Eh/α   predicted     0.0000000E+00 (-100.00%)
   displ. norm   :     0.1107394 α      lambda       -0.4185538E-03
   maximum displ.:     0.1093743 α      in ANC's #5, #2, #4, ...

........................................................................
.............................. CYCLE   22 ..............................
........................................................................
   1    -13.1729030 -0.131729E+02  0.195E-01    0.97       0.0  T
   2    -13.1727420  0.160967E-03  0.251E-01    0.95       1.0  T
   3    -13.1730318 -0.289803E-03  0.850E-02    0.94       1.0  T
   4    -13.1730401 -0.828641E-05  0.544E-02    0.96       1.0  T
   5    -13.1730445 -0.441458E-05  0.825E-03    0.96       4.9  T
   6    -13.1730446 -0.717236E-07  0.384E-03    0.95      10.6  T
   7    -13.1730446 -0.434203E-07  0.122E-03    0.95      33.5  T
   8    -13.1730446 -0.256021E-08  0.687E-04    0.95      59.4  T
     SCC iter.                  ...        0 min,  0.001 sec
     gradient                   ...        0 min,  0.001 sec
 * total energy  :   -13.1137932 Eh     change        0.1619176E-04 Eh
   gradient norm :     0.1246506 Eh/α   predicted    -0.2118455E-03 (*******%)
   displ. norm   :     0.1320479 α      lambda       -0.8405526E-03
   maximum displ.:     0.1300814 α      in ANC's #5, #4, #2, ...

........................................................................
.............................. CYCLE   23 ..............................
........................................................................
   1    -13.1711580 -0.131712E+02  0.291E-01    0.98       0.0  T
   2    -13.1708789  0.279068E-03  0.383E-01    0.91       1.0  T
   3    -13.1715282 -0.649287E-03  0.108E-01    0.92       1.0  T
   4    -13.1715326 -0.445621E-05  0.910E-02    0.95       1.0  T
   5    -13.1715497 -0.171179E-04  0.112E-02    0.94       3.7  T
   6    -13.1715500 -0.234810E-06  0.672E-03    0.94       6.1  T
   7    -13.1715501 -0.162328E-06  0.164E-03    0.94      24.8  T
   8    -13.1715501 -0.328971E-08  0.113E-03    0.94      36.1  T
     SCC iter.                  ...        0 min,  0.001 sec
     gradient                   ...        0 min,  0.001 sec
 * total energy  :   -13.1121307 Eh     change        0.1662517E-02 Eh
   gradient norm :     0.3761349 Eh/α   predicted    -0.4276070E-03 (-125.72%)
   displ. norm   :     0.1682783 α      lambda       -0.3630363E-02
   maximum displ.:     0.1675718 α      in ANC's #5, #4, #11, ...

........................................................................
.............................. CYCLE   24 ..............................
........................................................................
   1    -13.1733251 -0.131733E+02  0.327E-01    0.92       0.0  T
   2    -13.1728828  0.442353E-03  0.443E-01    0.98       1.0  T
   3    -13.1737525 -0.869727E-03  0.134E-01    0.98       1.0  T
   4    -13.1737622 -0.969953E-05  0.117E-01    0.94       1.0  T
   5    -13.1737868 -0.245825E-04  0.278E-02    0.95       1.5  T
   6    -13.1737895 -0.275194E-05  0.515E-03    0.95       7.9  T
   7    -13.1737896 -0.624128E-07  0.156E-03    0.96      26.2  T
     SCC iter.                  ...        0 min,  0.000 sec
     gradient                   ...        0 min,  0.001 sec
 * total energy  :   -13.1139373 Eh     change       -0.1806593E-02 Eh
   gradient norm :     0.0259217 Eh/α   predicted    -0.1866582E-02 (   3.32%)
   displ. norm   :     0.0064430 α      lambda       -0.9236161E-04
   maximum displ.:     0.0044788 α      in ANC's #2, #12, #8, ...

........................................................................
.............................. CYCLE   25 ..............................
........................................................................
   1    -13.1733917 -0.131734E+02  0.127E-02    0.95       0.0  T
   2    -13.1733916  0.622655E-07  0.131E-02    0.95       3.1  T
   3    -13.1733922 -0.549096E-06  0.326E-03    0.95      12.5  T
   4    -13.1733922  0.117474E-07  0.280E-03    0.95      14.6  T
     SCC iter.                  ...        0 min,  0.000 sec
     gradient                   ...        0 min,  0.001 sec
 * total energy  :   -13.1138565 Eh     change        0.8077025E-04 Eh
   gradient norm :     0.0617605 Eh/α   predicted    -0.4618270E-04 (-157.18%)
   displ. norm   :     0.0120607 α      lambda       -0.1905649E-03
   maximum displ.:     0.0092932 α      in ANC's #2, #5, #12, ...

........................................................................
.............................. CYCLE   26 ..............................
........................................................................
   1    -13.1734971 -0.131735E+02  0.183E-02    0.96       0.0  T
   2    -13.1734971  0.211037E-07  0.179E-02    0.95       2.3  T
   3    -13.1734983 -0.115733E-05  0.489E-03    0.95       8.4  T
   4    -13.1734981  0.159099E-06  0.634E-03    0.95       6.4  T
   5    -13.1734983 -0.170899E-06  0.319E-04    0.95     128.0  T
     SCC iter.                  ...        0 min,  0.000 sec
     gradient                   ...        0 min,  0.001 sec
 * total energy  :   -13.1139509 Eh     change       -0.9441630E-04 Eh
   gradient norm :     0.0042028 Eh/α   predicted    -0.9529761E-04 (   0.93%)
   displ. norm   :     0.0031989 α      lambda       -0.7312607E-06
   maximum displ.:     0.0031248 α      in ANC's #5, #4, #1, ...

........................................................................
.............................. CYCLE   27 ..............................
........................................................................
   1    -13.1735225 -0.131735E+02  0.513E-03    0.95       0.0  T
   2    -13.1735224  0.105658E-06  0.657E-03    0.95       6.2  T
   3    -13.1735226 -0.190708E-06  0.226E-03    0.95      18.1  T
   4    -13.1735226 -0.291283E-08  0.173E-03    0.95      23.6  T
     SCC iter.                  ...        0 min,  0.000 sec
     gradient                   ...        0 min,  0.001 sec
 * total energy  :   -13.1139511 Eh     change       -0.1960026E-06 Eh
   gradient norm :     0.0016931 Eh/α   predicted    -0.3658561E-06 (  86.66%)
   displ. norm   :     0.0016433 α      lambda       -0.9943344E-07
   maximum displ.:     0.0014556 α      in ANC's #5, #2, #4, ...

........................................................................
.............................. CYCLE   28 ..............................
........................................................................
   1    -13.1735004 -0.131735E+02  0.251E-03    0.95       0.0  T
   2    -13.1735004  0.234347E-07  0.325E-03    0.95      12.6  T
   3    -13.1735004 -0.430981E-07  0.942E-04    0.95      43.3  T
   4    -13.1735004  0.170976E-08  0.123E-03    0.95      33.3  T
   5    -13.1735004 -0.319864E-08  0.163E-04    0.95     250.2  T
     SCC iter.                  ...        0 min,  0.000 sec
     gradient                   ...        0 min,  0.001 sec
 * total energy  :   -13.1139512 Eh     change       -0.6428170E-07 Eh
   gradient norm :     0.0008345 Eh/α   predicted    -0.5028931E-07 ( -21.77%)
   displ. norm   :     0.0007497 α      lambda       -0.1605287E-07
   maximum displ.:     0.0004891 α      in ANC's #2, #5, #4, ...

   *** GEOMETRY OPTIMIZATION CONVERGED AFTER 28 ITERATIONS ***

------------------------------------------------------------------------
 total energy gain   :       -18.3294504 Eh   -11501.9038 kcal/mol
 total RMSD          :         0.4138557 a0        0.2190 Å
 total power (kW/mol):     -1718.7130509 (step)********** (real)
------------------------------------------------------------------------

 ANCopt (total)                0 d,  0 h,  0 min,  0.051 sec
 optimizer setup                ...        0 min,  0.000 sec (  0.099%)
 model hessian                  ...        0 min,  0.000 sec (  0.261%)
 ANC generation                 ...        0 min,  0.000 sec (  0.237%)
 coordinate transformation      ...        0 min,  0.000 sec (  0.226%)
 single point calculation       ...        0 min,  0.049 sec ( 95.164%)
 optimization log               ...        0 min,  0.001 sec (  1.160%)
 hessian update                 ...        0 min,  0.000 sec (  0.173%)
 rational function              ...        0 min,  0.001 sec (  1.295%)

================
 final structure:
================
6
 xtb: 6.2.3 (830e466)
F        -3.05793166252677   -0.17989823293870    0.05358926379648
Cl        2.11873533076657    0.12670707197232   -0.03373201532991
C        -0.85818927106464   -0.05008375754050    0.01569909203730
H        -0.76298075865209   -0.62668851288929   -0.87881986095554
H        -0.73706468994006   -0.52686156511835    0.96420454516041
H        -0.84549894858300    1.01674499651452   -0.04224102470875
 
 Bond Distances (Angstroems)
 ---------------------------
C3-H4=1.0685         C3-H5=1.0685         C3-H6=1.0685         H4-C3=1.0685         H5-C3=1.0685         H6-C3=1.0685         
 C  H  Rav=1.0685 sigma=0.0000  Rmin=1.0685  Rmax=1.0685     3
 
 selected bond angles (degree)
 --------------------
H5-C3-H4=119.49                H6-C3-H4=119.50                H6-C3-H5=119.49                
 
 selected dihedral angles (degree)
 ---------------------------------

 
 CMA Distance (Angstroems)
 ---------------------------
R(CMA):  4.2061
           -------------------------------------------------
          |                Final Singlepoint                |
           -------------------------------------------------

          ...................................................
          :                      SETUP                      :
          :.................................................:
          :  # basis functions                  21          :
          :  # atomic orbitals                  20          :
          :  # shells                           10          :
          :  # electrons                        22          :
          :  max. iterations                   250          :
          :  Hamiltonian                  GFN2-xTB          :
          :  restarted?                      false          :
          :  GBSA solvation                  false          :
          :  PC potential                    false          :
          :  electronic temp.          300.0000000     K    :
          :  accuracy                    1.0000000          :
          :  -> integral cutoff          0.2500000E+02      :
          :  -> integral neglect         0.1000000E-07      :
          :  -> SCF convergence          0.1000000E-05 Eh   :
          :  -> wf. convergence          0.1000000E-03 e    :
          :  Broyden damping             0.4000000          :
          ...................................................

 iter      E             dE          RMSdq      gap      omega  full diag
   1    -13.1735004 -0.131735E+02  0.899E-05    0.95       0.0  T
   2    -13.1735004  0.124167E-11  0.401E-05    0.95    1017.5  T
   3    -13.1735004  0.179821E-10  0.823E-05    0.95     496.3  T

   *** convergence criteria satisfied after 3 iterations ***

         #    Occupation            Energy/Eh            Energy/eV
      -------------------------------------------------------------
         1        2.0000           -0.8303834             -22.5959
       ...           ...                  ...                  ...
         5        2.0000           -0.3588709              -9.7654
         6        2.0000           -0.2708186              -7.3694
         7        2.0000           -0.2490951              -6.7782
         8        2.0000           -0.2490950              -6.7782
         9        2.0000           -0.2212866              -6.0215
        10        2.0000           -0.2165707              -5.8932
        11        2.0000           -0.2165706              -5.8932 (HOMO)
        12                         -0.1815056              -4.9390 (LUMO)
        13                          0.2530872               6.8869
        14                          0.2825617               7.6889
        15                          0.2825623               7.6889
        16                          0.2827306               7.6935
       ...                                ...                  ...
        20                          0.4131962              11.2436
      -------------------------------------------------------------
                  HL-Gap            0.0350650 Eh            0.9542 eV
             Fermi-level           -0.1987072 Eh           -5.4071 eV

 SCC (total)                   0 d,  0 h,  0 min,  0.002 sec
 SCC setup                      ...        0 min,  0.000 sec (  2.834%)
 Dispersion                     ...        0 min,  0.000 sec (  0.375%)
 integral evaluation            ...        0 min,  0.001 sec ( 38.357%)
 zeroth order Hamiltonian       ...        0 min,  0.000 sec (  0.765%)
 iterations                     ...        0 min,  0.000 sec ( 16.989%)
 molecular gradient             ...        0 min,  0.001 sec ( 36.422%)
 printout                       ...        0 min,  0.000 sec (  2.969%)

         :::::::::::::::::::::::::::::::::::::::::::::::::::::
         ::                     SUMMARY                     ::
         :::::::::::::::::::::::::::::::::::::::::::::::::::::
         :: total energy             -13.113951200764 Eh    ::
         :: gradient norm              0.000834052009 Eh/a0 ::
         :: HOMO-LUMO gap              0.954167834303 eV    ::
         ::.................................................::
         :: SCC energy               -13.173500396728 Eh    ::
         :: -> isotropic ES            0.167731480864 Eh    ::
         :: -> anisotropic ES         -0.000353273461 Eh    ::
         :: -> anisotropic XC          0.005445405568 Eh    ::
         :: -> dispersion             -0.001826151959 Eh    ::
         :: repulsion energy           0.059500233489 Eh    ::
         :: add. restraining           0.000049912037 Eh    ::
         :::::::::::::::::::::::::::::::::::::::::::::::::::::

           -------------------------------------------------
          |                Property Printout                |
           -------------------------------------------------

    * Orbital Energies and Occupations

         #    Occupation            Energy/Eh            Energy/eV
      -------------------------------------------------------------
         1        2.0000           -0.8303834             -22.5959
         2        2.0000           -0.5376727             -14.6308
         3        2.0000           -0.4542195             -12.3599
         4        2.0000           -0.3588788              -9.7656
         5        2.0000           -0.3588709              -9.7654
         6        2.0000           -0.2708186              -7.3694
         7        2.0000           -0.2490951              -6.7782
         8        2.0000           -0.2490950              -6.7782
         9        2.0000           -0.2212866              -6.0215
        10        2.0000           -0.2165707              -5.8932
        11        2.0000           -0.2165706              -5.8932 (HOMO)
        12                         -0.1815056              -4.9390 (LUMO)
        13                          0.2530872               6.8869
        14                          0.2825617               7.6889
        15                          0.2825623               7.6889
        16                          0.2827306               7.6935
        17                          0.2836854               7.7195
        18                          0.2836854               7.7195
        19                          0.4131375              11.2420
        20                          0.4131962              11.2436
      -------------------------------------------------------------
                  HL-Gap            0.0350650 Eh            0.9542 eV
             Fermi-level           -0.1987072 Eh           -5.4071 eV

     #   Z        covCN         q      C6AA      α(0)
     1   9 F      0.018    -0.522    15.641     4.607
     2  17 Cl     0.001    -0.766   117.773    16.516
     3   6 C      2.799    -0.010    28.251     8.707
     4   1 H      0.927     0.099     1.792     2.093
     5   1 H      0.927     0.099     1.791     2.093
     6   1 H      0.927     0.099     1.791     2.093

 Mol. C6AA /au·bohr⁶  :        576.026561
 Mol. C8AA /au·bohr⁸  :      16491.726992
 Mol. α(0) /au        :         36.108704


Wiberg/Mayer (AO) data.
largest (>0.10) Wiberg bond orders for each atom
          total WBO             WBO to atom ...
     1  F   0.728        C    3 0.615    Cl   2 0.112
     2  Cl  0.413        C    3 0.300    F    1 0.112
     3  C   3.880        H    4 0.988    H    5 0.988    H    6 0.988    F    1 0.615    Cl   2 0.300
     4  H   0.990        C    3 0.988
     5  H   0.990        C    3 0.988
     6  H   0.990        C    3 0.988

molecular dipole:
                 x           y           z       tot (Debye)
 q only:       -0.477      -0.031       0.004
   full:       -0.330      -0.022       0.001       0.841
molecular quadrupole (traceless):
                xx          xy          yy          xz          yz          zz
 q only:      -29.625      -2.638      14.741       0.749       0.044      14.884
  q+dip:      -30.344      -2.701      15.099       0.769       0.045      15.245
   full:      -29.528      -2.628      14.692       0.748       0.044      14.835

           -------------------------------------------------
          |                Geometry Summary                 |
           -------------------------------------------------

      molecular mass/u    :       69.4858989
   center of mass at/Å    :        0.0625727       0.0048200       0.0007808
  moments of inertia/u·Å² :        0.3434512E+01   0.3502593E+03   0.3502594E+03
rotational constants/cm⁻¹ :        0.4908305E+01   0.4812901E-01   0.4812899E-01

 * 3 selected distances

     #   Z        #   Z                                     value/Å
     3   6 C      4   1 H                                 1.0685045 (max)
     3   6 C      5   1 H                                 1.0684806
     3   6 C      6   1 H                                 1.0684763 (min)

 * 1 distinct bonds (by element types)

   Z      Z             #   av. dist./Å        max./Å        min./Å
   1 H    6 C           3     1.0684872     1.0685045     1.0684763


optimized geometry written to: xtbopt.xyz


           -------------------------------------------------
          | TOTAL ENERGY              -13.113951200764 Eh   |
          | GRADIENT NORM               0.000834052009 Eh/α |
          | HOMO-LUMO GAP               0.954167834303 eV   |
           -------------------------------------------------

------------------------------------------------------------------------
 * finished run on 2020/04/08 at 23:04:52.157     
------------------------------------------------------------------------
 total:
 * wall-time:     0 d,  0 h,  0 min,  0.062 sec
 *  cpu-time:     0 d,  0 h,  0 min,  0.062 sec
 * ratio c/w:     1.000 speedup
 SCF:
 * wall-time:     0 d,  0 h,  0 min,  0.003 sec
 *  cpu-time:     0 d,  0 h,  0 min,  0.003 sec
 * ratio c/w:     0.999 speedup
 ANC optimizer:
 * wall-time:     0 d,  0 h,  0 min,  0.053 sec
 *  cpu-time:     0 d,  0 h,  0 min,  0.053 sec
 * ratio c/w:     1.000 speedup

