      -----------------------------------------------------------      
     |                   =====================                   |     
     |                           x T B                           |     
     |                   =====================                   |     
     |                         S. Grimme                         |     
     |          Mulliken Center for Theoretical Chemistry        |     
     |                    University of Bonn                     |     
      -----------------------------------------------------------      

   * xtb version 6.2.3 (830e466) compiled by 'ehlert@majestix' on 2020-03-16

   xtb is free software: you can redistribute it and/or modify it under
   the terms of the GNU Lesser General Public License as published by
   the Free Software Foundation, either version 3 of the License, or
   (at your option) any later version.
   
   xtb is distributed in the hope that it will be useful,
   but WITHOUT ANY WARRANTY; without even the implied warranty of
   MERCHANTABILITY or FITNESS FOR A PARTICULAR PURPOSE.  See the
   GNU Lesser General Public License for more details.
   
   Cite this work as:
   * S. Grimme, C. Bannwarth, P. Shushkov, J. Chem. Theory Comput., 2017,
     13, 1989-2009. DOI: 10.1021/acs.jctc.7b00118
   * C. Bannwarth, S. Ehlert and S. Grimme., J. Chem. Theory Comput., 2019,
     15, 1652-1671. DOI: 10.1021/acs.jctc.8b01176
   * P. Pracht, E. Caldeweyher, S. Ehlert, S. Grimme, ChemRxiv, 2019, preprint.
     DOI: 10.26434/chemrxiv.8326202.v1
   
   for DFT-D4:
   * E. Caldeweyher, C. Bannwarth and S. Grimme, J. Chem. Phys., 2017,
     147, 034112. DOI: 10.1063/1.4993215
   * E. Caldeweyher, S. Ehlert, A. Hansen, H. Neugebauer, S. Spicher,
     C. Bannwarth and S. Grimme, J. Chem. Phys., 2019, 150, 154122.
     DOI: 10.1063/1.5090222
   
   for sTDA-xTB:
   * S. Grimme and C. Bannwarth, J. Chem. Phys., 2016, 145, 054103.
     DOI: 10.1063/1.4959605
   
   in the mass-spec context:
   * V. Asgeirsson, C. Bauer and S. Grimme, Chem. Sci., 2017, 8, 4879.
     DOI: 10.1039/c7sc00601b
   
   for metadynamics refer to:
   * S. Grimme, J. Chem. Theory Comput., 2019, 155, 2847-2862
     DOI: 10.1021/acs.jctc.9b00143
   
   with help from (in alphabetical order)
   C. Bannwarth, F. Bohle, G. Brandenburg, E. Caldeweyher, M. Checinski,
   S. Dohm, S. Ehlert, S. Ehrlich, F. März, H. Neugebauer, J. Pisarek,
   P. Pracht, P. Shushkov, and S. Spicher.
   
 * started run on 2020/04/08 at 23:04:06.350     

           -------------------------------------------------
          |                Calculation Setup                |
           -------------------------------------------------

          program call               : /home/tom/.local/bin/xtb SN2_PES_scan_3-5_xtb.xyz --chrg -1 --opt --input xcontrol_SN2_PES_scan_3-5
          coordinate file            : SN2_PES_scan_3-5_xtb.xyz
          omp threads                :                     1
          number of atoms            :                     6
          number of electrons        :                    22
          charge                     :                    -1
          spin                       :                   0.0
          first test random number   :      0.47540114187128

constraining bond 1 3 to    2.5000000 Å, actual value:    2.9997405 Å
constraining bond 2 3 to    4.0000000 Å, actual value:    3.5558586 Å

molecular fragmentation (1/2 indicates fragments):
122222
# atoms in fragment 1/2:     1     5
 fragment masses (1/2) :       19.00       50.49
CMA distance (Bohr)    :  10.387
constraining FC (au)   : 10.0000
########################################################################
[WARNING] Please study the warnings concerning your input carefully
-2- prog_main: XTBPATH is not set, using XTBHOME instead
-1- prog_main: XTBHOME is not set, using HOME instead
########################################################################
           ------------------------------------------------- 
          |                 G F N 2 - x T B                 |
          | Geometry, Frequencies, Noncovalent interactions |
          |            JCTC 2019 parametrisation            |
           ------------------------------------------------- 
             k(s)              :                1.8500
             k(p)              :                2.2300
             k(d)              :                2.2300
             k(f)              :                2.0000
             kEN (H0ij)        :               -2.0000
             D4 a1             :                0.5200
             D4 a2             :                5.0000
             D4 s6             :                1.0000
             D4 s8             :                2.7000
             D4 s9             :                5.0000
             alphaj            :                2.0000

  Z AO/shell   Hii/eV     exponent
  1     Wed Apr 25 08:07:45 CEST 2018   EN: 2.200 GM2: 0.406  GM3: 0.0800  RAES: 1.40
     1s    -10.707211    1.230000
  6     Wed Apr 25 08:07:45 CEST 2018   EN: 2.550 GM2: 0.538  GM3: 0.1500  RAES: 3.00
     2s    -13.970922    2.096432
     2p    -10.063292    1.800000
  9     Mon Apr 23 13:58:50 CEST 2018   EN: 3.980 GM2: 0.532  GM3: 0.1426  RAES: 2.40
     2s    -23.458179    2.416361
     2p    -15.746583    2.308399
 17     Mon Apr 23 14:09:22 CEST 2018   EN: 3.160 GM2: 0.249  GM3: 0.1495  RAES: 2.50
     3s    -29.278781    2.485265
     3p    -12.673758    2.199650
     3d     -0.240338    2.476089

           ------------------------------------------------- 
          |        Self-Consistent Charge Iterations        |
           ------------------------------------------------- 

          ...................................................
          :                      SETUP                      :
          :.................................................:
          :  # basis functions                  21          :
          :  # atomic orbitals                  20          :
          :  # shells                           10          :
          :  # electrons                        22          :
          :  max. iterations                   250          :
          :  Hamiltonian                  GFN2-xTB          :
          :  restarted?                      false          :
          :  GBSA solvation                  false          :
          :  PC potential                    false          :
          :  electronic temp.          300.0000000     K    :
          :  accuracy                    1.0000000          :
          :  -> integral cutoff          0.2500000E+02      :
          :  -> integral neglect         0.1000000E-07      :
          :  -> SCF convergence          0.1000000E-05 Eh   :
          :  -> wf. convergence          0.1000000E-03 e    :
          :  Broyden damping             0.4000000          :
          ...................................................

 iter      E             dE          RMSdq      gap      omega  full diag
   1    -12.8487292 -0.128487E+02  0.102E+01    1.30       0.0  T
   2    -12.1586781  0.690051E+00  0.105E+01    0.00       1.0  T
   3    -13.0493756 -0.890698E+00  0.478E+00    0.13       1.0  T
   4    -12.9082828  0.141093E+00  0.731E+00    1.02       1.0  T
   5    -12.4111660  0.497117E+00  0.113E+01    0.00       1.0  T
   6    -12.4128822 -0.171621E-02  0.112E+01    0.00       1.0  T
   7    -12.4524908 -0.396086E-01  0.911E+00    0.05       1.0  T
   8    -12.7764247 -0.323934E+00  0.692E+00    0.09       1.0  T
   9    -12.9373628 -0.160938E+00  0.572E+00    0.73       1.0  T
  10    -12.9438586 -0.649576E-02  0.556E+00    0.71       1.0  T
  11    -12.9683839 -0.245253E-01  0.502E+00    0.71       1.0  T
  12    -12.9763583 -0.797440E-02  0.488E+00    0.71       1.0  T
  13    -12.9697210  0.663723E-02  0.499E+00    0.72       1.0  T
  14    -13.0091163 -0.393953E-01  0.433E+00    0.50       1.0  T
  15    -13.0151437 -0.602743E-02  0.416E+00    0.52       1.0  T
  16    -13.0700297 -0.548860E-01  0.307E+00    0.33       1.0  T
  17    -13.0029369  0.670928E-01  0.427E+00    0.40       1.0  T
  18    -13.0129608 -0.100239E-01  0.407E+00    0.38       1.0  T
  19    -12.9954411  0.175198E-01  0.445E+00    0.48       1.0  T
  20    -12.9967577 -0.131661E-02  0.448E+00    0.60       1.0  T
  21    -12.9960361  0.721647E-03  0.451E+00    0.60       1.0  T
  22    -12.9965828 -0.546717E-03  0.449E+00    0.60       1.0  T
  23    -13.0154274 -0.188446E-01  0.416E+00    0.52       1.0  T
  24    -13.0728604 -0.574330E-01  0.311E+00    0.11       1.0  T
  25    -12.4961279  0.576732E+00  0.852E+00    0.09       1.0  T
  26    -12.9260239 -0.429896E+00  0.617E+00    1.26       1.0  T
  27    -12.6370435  0.288980E+00  0.872E+00    0.01       1.0  T
  28    -13.0138961 -0.376853E+00  0.473E+00    0.44       1.0  T
  29    -13.0018302  0.120660E-01  0.466E+00    0.58       1.0  T
  30    -12.7459669  0.255863E+00  0.674E+00    0.11       1.0  T
  31    -12.9370949 -0.191128E+00  0.594E+00    0.91       1.0  T
  32    -13.0707482 -0.133653E+00  0.273E+00    0.13       1.0  T
  33    -13.1167522 -0.460040E-01  0.113E+00    0.25       1.0  T
  34    -13.0881837  0.285685E-01  0.227E+00    0.13       1.0  T
  35    -13.0199872  0.681965E-01  0.364E+00    0.16       1.0  T
  36    -13.0124663  0.752094E-02  0.451E+00    0.38       1.0  T
  37    -12.7114501  0.301016E+00  0.793E+00    0.02       1.0  T
  38    -12.4092603  0.302190E+00  0.920E+00    0.07       1.0  T
  39    -12.9397471 -0.530487E+00  0.561E+00    1.02       1.0  T
  40    -13.0071227 -0.673756E-01  0.435E+00    0.35       1.0  T
  41    -13.0988995 -0.917768E-01  0.201E+00    0.12       1.0  T
  42    -13.1093935 -0.104940E-01  0.156E+00    0.25       1.0  T
  43    -13.1093781  0.153773E-04  0.157E+00    0.20       1.0  T
  44    -13.0793293  0.300488E-01  0.286E+00    0.11       1.0  T
  45    -13.1029504 -0.236210E-01  0.187E+00    0.25       1.0  T
  46    -13.1026613  0.289081E-03  0.194E+00    0.24       1.0  T
  47    -13.0572264  0.454350E-01  0.342E+00    0.09       1.0  T
  48    -13.0990363 -0.418099E-01  0.194E+00    0.23       1.0  T
  49    -13.0858989  0.131374E-01  0.262E+00    0.28       1.0  T
  50    -13.0844378  0.146109E-02  0.278E+00    0.12       1.0  T
  51    -13.0953600 -0.109222E-01  0.240E+00    0.31       1.0  T
  52    -13.1205319 -0.251720E-01  0.947E-01    0.16       1.0  T
  53    -13.1153640  0.516794E-02  0.129E+00    0.22       1.0  T
  54    -13.0652885  0.500755E-01  0.308E+00    0.10       1.0  T
  55    -13.1015033 -0.362148E-01  0.179E+00    0.23       1.0  T
  56    -13.0975996  0.390377E-02  0.217E+00    0.24       1.0  T
  57    -13.1004029 -0.280334E-02  0.215E+00    0.12       1.0  T
  58    -13.1093927 -0.898981E-02  0.168E+00    0.28       1.0  T
  59    -13.1208577 -0.114650E-01  0.818E-01    0.15       1.0  T
  60    -13.1239335 -0.307582E-02  0.333E-01    0.19       1.0  T
  61    -13.1181069  0.582658E-02  0.102E+00    0.14       1.0  T
  62    -13.1238550 -0.574808E-02  0.313E-01    0.20       1.0  T
  63    -13.1219029  0.195207E-02  0.636E-01    0.16       1.0  T
  64    -13.1244647 -0.256174E-02  0.104E-01    0.18       1.0  T
  65    -13.1242502  0.214497E-03  0.196E-01    0.17       1.0  T
  66    -13.1242133  0.369156E-04  0.225E-01    0.17       1.0  T
  67    -13.1244953 -0.281991E-03  0.344E-02    0.18       1.2  T
  68    -13.1243630  0.132242E-03  0.152E-01    0.17       1.0  T
  69    -13.1245015 -0.138508E-03  0.121E-02    0.18       3.4  T
  70    -13.1244768  0.247612E-04  0.641E-02    0.18       1.0  T
  71    -13.1244973 -0.205532E-04  0.290E-02    0.18       1.4  T
  72    -13.1245003 -0.296920E-05  0.171E-02    0.18       2.4  T
  73    -13.1245007 -0.409405E-06  0.156E-02    0.18       2.6  T
  74    -13.1245021 -0.137027E-05  0.169E-03    0.18      24.2  T
  75    -13.1245020  0.437975E-07  0.325E-03    0.18      12.6  T
  76    -13.1245021 -0.561819E-07  0.756E-04    0.18      54.0  T
  77    -13.1245021 -0.108067E-08  0.679E-04    0.18      60.1  T

   *** convergence criteria satisfied after 77 iterations ***

         #    Occupation            Energy/Eh            Energy/eV
      -------------------------------------------------------------
         1        2.0000           -0.8552410             -23.2723
       ...           ...                  ...                  ...
         5        2.0000           -0.3734088             -10.1610
         6        2.0000           -0.2432415              -6.6189
         7        1.9986           -0.2394953              -6.5170
         8        1.9986           -0.2394942              -6.5170
         9        1.9939           -0.2381171              -6.4795
        10        1.9604           -0.2363291              -6.4308
        11        1.9604           -0.2363290              -6.4308 (HOMO)
        12        0.0883           -0.2297003              -6.2505 (LUMO)
        13                          0.2325607               6.3283
        14                          0.2514541               6.8424
        15                          0.2516354               6.8473
        16                          0.2516356               6.8474
       ...                                ...                  ...
        20                          0.4008138              10.9067
      -------------------------------------------------------------
                  HL-Gap            0.0066287 Eh            0.1804 eV
             Fermi-level           -0.2326221 Eh           -6.3300 eV

 SCC (total)                   0 d,  0 h,  0 min,  0.020 sec
 SCC setup                      ...        0 min,  0.000 sec (  0.770%)
 Dispersion                     ...        0 min,  0.000 sec (  0.150%)
 integral evaluation            ...        0 min,  0.002 sec (  8.419%)
 zeroth order Hamiltonian       ...        0 min,  0.000 sec (  0.165%)
 iterations                     ...        0 min,  0.017 sec ( 85.093%)
 molecular gradient             ...        0 min,  0.001 sec (  4.696%)
 printout                       ...        0 min,  0.000 sec (  0.470%)

         :::::::::::::::::::::::::::::::::::::::::::::::::::::
         ::                     SUMMARY                     ::
         :::::::::::::::::::::::::::::::::::::::::::::::::::::
         :: total energy               2.897942680784 Eh    ::
         :: gradient norm             43.722385924391 Eh/a0 ::
         :: HOMO-LUMO gap              0.180375584422 eV    ::
         ::.................................................::
         :: SCC energy               -13.124502078435 Eh    ::
         :: -> isotropic ES            0.160994114957 Eh    ::
         :: -> anisotropic ES         -0.000878294501 Eh    ::
         :: -> anisotropic XC          0.006283739574 Eh    ::
         :: -> dispersion             -0.001546951555 Eh    ::
         :: repulsion energy           0.059715953677 Eh    ::
         :: add. restraining          15.962733231763 Eh    ::
         :::::::::::::::::::::::::::::::::::::::::::::::::::::

      ----------------------------------------------------------- 
     |                   =====================                   |
     |                        A N C O P T                        |
     |                   =====================                   |
     |               Approximate Normal Coordinate               |
     |                Rational Function Optimizer                |
      ----------------------------------------------------------- 

          ...................................................
          :                      SETUP                      :
          :.................................................:
          :   optimization level            normal          :
          :   max. optcycles                   200          :
          :   ANC micro-cycles                  20          :
          :   degrees of freedom                12          :
          :.................................................:
          :   RF solver                   davidson          :
          :   write xtbopt.log                true          :
          :   linear?                        false          :
          :   energy convergence         0.5000000E-05 Eh   :
          :   grad. convergence          0.1000000E-02 Eh/α :
          :   maximium RF displ.         1.0000000          :
          :   Hlow (freq-cutoff)         0.1000000E-01      :
          :   Hmax (freq-cutoff)         5.0000000          :
          :   S6 in model hess.         20.0000000          :
          ...................................................

generating ANC from model Hessian ...
Using Lindh-Hessian (1995)
 Shifting diagonal of input Hessian by   0.655377945723404     
 Lowest  eigenvalues of input Hessian
    0.010000    0.010366   -0.000000   -0.000000   -0.000000    0.000000
    0.000000    0.000000    0.655984    0.808283    0.808340    1.093019
    1.327905    1.328110    3.656942    3.657465   20.657107   60.657678
 Highest eigenvalues
    1.327905    1.328110    3.656942    3.657465   20.657107   60.657678
 

........................................................................
.............................. CYCLE    1 ..............................
........................................................................
   1    -13.1245021 -0.131245E+02  0.126E-04    0.18       0.0  T
   2    -13.1245021  0.297272E-07  0.221E-03    0.18      18.5  T
   3    -13.1245021 -0.297833E-07  0.761E-05    0.18     536.7  T
   4    -13.1245021 -0.325961E-11  0.774E-05    0.18     527.4  T
     SCC iter.                  ...        0 min,  0.000 sec
     gradient                   ...        0 min,  0.001 sec
 * total energy  :     2.8979427 Eh     change        0.1334428E-07 Eh
   gradient norm :    43.7223841 Eh/α   predicted     0.0000000E+00 (-100.00%)
   displ. norm   :     0.9444544 α      lambda       -0.4129380E+02
   maximum displ.:     0.9439008 α      in ANC's #11, #12, #10, ...

........................................................................
.............................. CYCLE    2 ..............................
........................................................................
   1    -13.0352809 -0.130353E+02  0.348E+00    0.76       0.0  T
   2    -12.3419934  0.693287E+00  0.978E+00    0.00       1.0  T
   3    -12.9093747 -0.567381E+00  0.619E+00    1.02       1.0  T
   4    -13.0452244 -0.135850E+00  0.322E+00    0.29       1.0  T
   5    -12.3109508  0.734274E+00  0.925E+00    0.00       1.0  T
   6    -13.0291166 -0.718166E+00  0.322E+00    0.44       1.0  T
   7    -13.0691209 -0.400043E-01  0.222E+00    0.21       1.0  T
   8    -13.0948807 -0.257598E-01  0.840E-01    0.15       1.0  T
   9    -13.0977528 -0.287219E-02  0.611E-01    0.12       1.0  T
  10    -13.0979550 -0.202151E-03  0.591E-01    0.12       1.0  T
  11    -13.0979258  0.291965E-04  0.590E-01    0.12       1.0  T
  12    -13.0953845  0.254133E-02  0.748E-01    0.16       1.0  T
  13    -13.0951898  0.194621E-03  0.753E-01    0.16       1.0  T
  14    -13.0990794 -0.388959E-02  0.319E-01    0.14       1.0  T
  15    -13.0995706 -0.491214E-03  0.196E-01    0.13       1.0  T
  16    -13.0998449 -0.274223E-03  0.788E-02    0.13       1.0  T
  17    -13.0998837 -0.388173E-04  0.407E-02    0.12       1.0  T
  18    -13.0998930 -0.930773E-05  0.249E-02    0.12       1.6  T
  19    -13.0998969 -0.395250E-05  0.131E-02    0.12       3.1  T
  20    -13.0998947  0.223709E-05  0.201E-02    0.12       2.0  T
  21    -13.0998982 -0.353325E-05  0.282E-04    0.12     144.7  T
  22    -13.0998982  0.171805E-07  0.143E-03    0.12      28.6  T
     SCC iter.                  ...        0 min,  0.002 sec
     gradient                   ...        0 min,  0.001 sec
 * total energy  :   -11.6524938 Eh     change       -0.1455044E+02 Eh
   gradient norm :    12.9909709 Eh/α   predicted    -0.3906381E+02 ( 168.47%)
   displ. norm   :     0.2423268 α      lambda       -0.2796440E+01
   maximum displ.:     0.2073413 α      in ANC's #11, #12, #3, ...

........................................................................
.............................. CYCLE    3 ..............................
........................................................................
   1    -12.9472281 -0.129472E+02  0.452E+00    0.05       0.0  T
   2    -12.9467535  0.474644E-03  0.554E+00    1.55       1.0  T
   3    -12.8440972  0.102656E+00  0.670E+00    0.40       1.0  T
   4    -13.0860866 -0.241989E+00  0.251E+00    0.90       1.0  T
   5    -13.0918384 -0.575183E-02  0.204E+00    0.88       1.0  T
   6    -13.0952628 -0.342434E-02  0.170E+00    0.30       1.0  T
   7    -13.1141017 -0.188389E-01  0.480E-01    0.15       1.0  T
   8    -13.1108278  0.327384E-02  0.856E-01    0.17       1.0  T
   9    -13.0932233  0.176046E-01  0.186E+00    0.47       1.0  T
  10    -13.0944509 -0.122765E-02  0.177E+00    0.37       1.0  T
  11    -13.0944629 -0.120032E-04  0.176E+00    0.37       1.0  T
  12    -13.1042518 -0.978888E-02  0.126E+00    0.21       1.0  T
  13    -12.5651426  0.539109E+00  0.805E+00    0.00       1.0  T
  14    -12.3637657  0.201377E+00  0.940E+00    0.00       1.0  T
  15    -13.0926173 -0.728852E+00  0.190E+00    0.42       1.0  T
  16    -12.4886331  0.603984E+00  0.864E+00    0.00       1.0  T
  17    -13.0983221 -0.609689E+00  0.166E+00    0.25       1.0  T
  18    -12.3431976  0.755124E+00  0.100E+01    0.00       1.0  T
  19    -12.3394974  0.370020E-02  0.104E+01    0.00       1.0  T
  20    -13.0893136 -0.749816E+00  0.221E+00    0.93       1.0  T
  21    -13.0887814  0.532206E-03  0.230E+00    0.92       1.0  T
  22    -13.0892573 -0.475937E-03  0.224E+00    0.92       1.0  T
  23    -13.0888354  0.421961E-03  0.229E+00    0.92       1.0  T
  24    -13.0864295  0.240581E-02  0.255E+00    0.93       1.0  T
  25    -13.0883253 -0.189571E-02  0.234E+00    0.93       1.0  T
  26    -13.0901934 -0.186818E-02  0.212E+00    0.91       1.0  T
  27    -13.0919206 -0.172711E-02  0.194E+00    0.61       1.0  T
  28    -13.0952323 -0.331170E-02  0.170E+00    0.34       1.0  T
  29    -12.7771047  0.318128E+00  0.634E+00    0.02       1.0  T
  30    -13.0878122 -0.310707E+00  0.235E+00    0.94       1.0  T
  31    -13.0914692 -0.365698E-02  0.199E+00    0.69       1.0  T
  32    -13.0996542 -0.818504E-02  0.148E+00    0.25       1.0  T
  33    -12.3971146  0.702540E+00  0.912E+00    0.00       1.0  T
  34    -13.0784561 -0.681342E+00  0.320E+00    0.94       1.0  T
  35    -13.0880810 -0.962495E-02  0.236E+00    0.93       1.0  T
  36    -13.0909292 -0.284816E-02  0.204E+00    0.78       1.0  T
  37    -13.1133077 -0.223785E-01  0.582E-01    0.16       1.0  T
  38    -12.6340511  0.479257E+00  0.751E+00    0.01       1.0  T
  39    -13.0795291 -0.445478E+00  0.311E+00    0.94       1.0  T
  40    -13.0889800 -0.945094E-02  0.226E+00    0.93       1.0  T
  41    -13.0924371 -0.345713E-02  0.189E+00    0.54       1.0  T
  42    -12.5300049  0.562432E+00  0.825E+00    0.00       1.0  T
  43    -13.0745956 -0.544591E+00  0.348E+00    0.94       1.0  T
  44    -13.0879776 -0.133820E-01  0.237E+00    0.93       1.0  T
  45    -13.0913867 -0.340908E-02  0.200E+00    0.70       1.0  T
  46    -12.8530683  0.238318E+00  0.561E+00    0.03       1.0  T
  47    -13.0808331 -0.227765E+00  0.302E+00    0.94       1.0  T
  48    -13.0901921 -0.935901E-02  0.213E+00    0.93       1.0  T
  49    -13.1082831 -0.180910E-01  0.100E+00    0.18       1.0  T
  50    -12.3612685  0.747015E+00  0.939E+00    0.00       1.0  T
  51    -13.0627788 -0.701510E+00  0.426E+00    0.94       1.0  T
  52    -13.0878660 -0.250871E-01  0.240E+00    0.92       1.0  T
  53    -13.0906892 -0.282326E-02  0.208E+00    0.83       1.0  T
  54    -12.6921595  0.398530E+00  0.706E+00    0.02       1.0  T
  55    -13.0742670 -0.382107E+00  0.351E+00    0.94       1.0  T
  56    -13.0881293 -0.138623E-01  0.236E+00    0.93       1.0  T
  57    -13.0937095 -0.558016E-02  0.180E+00    0.41       1.0  T
  58    -12.3483252  0.745384E+00  0.955E+00    0.00       1.0  T
  59    -13.0535278 -0.705203E+00  0.479E+00    0.95       1.0  T
  60    -13.0868633 -0.333355E-01  0.251E+00    0.92       1.0  T
  61    -13.0910758 -0.421247E-02  0.204E+00    0.75       1.0  T
  62    -12.3619208  0.729155E+00  0.936E+00    0.00       1.0  T
  63    -13.0564175 -0.694497E+00  0.459E+00    0.95       1.0  T
  64    -13.0849327 -0.285152E-01  0.270E+00    0.92       1.0  T
  65    -13.0907874 -0.585470E-02  0.207E+00    0.81       1.0  T
  66    -12.3617198  0.729068E+00  0.936E+00    0.00       1.0  T
  67    -13.0532349 -0.691515E+00  0.476E+00    0.95       1.0  T
  68    -13.0845640 -0.313291E-01  0.273E+00    0.92       1.0  T
  69    -13.0908527 -0.628865E-02  0.206E+00    0.80       1.0  T
  70    -12.3542721  0.736581E+00  0.944E+00    0.00       1.0  T
  71    -13.0498016 -0.695529E+00  0.494E+00    0.95       1.0  T
  72    -13.0844016 -0.346000E-01  0.275E+00    0.92       1.0  T
  73    -13.0910758 -0.667421E-02  0.204E+00    0.76       1.0  T
  74    -12.3486787  0.742397E+00  0.952E+00    0.00       1.0  T
  75    -13.0468730 -0.698194E+00  0.509E+00    0.95       1.0  T
  76    -13.0843054 -0.374324E-01  0.276E+00    0.92       1.0  T
  77    -13.0914403 -0.713493E-02  0.200E+00    0.69       1.0  T
  78    -12.3448295  0.746611E+00  0.960E+00    0.00       1.0  T
  79    -13.0444090 -0.699580E+00  0.523E+00    0.95       1.0  T
  80    -13.0842181 -0.398091E-01  0.277E+00    0.92       1.0  T
  81    -13.0919086 -0.769052E-02  0.195E+00    0.61       1.0  T
  82    -12.3419310  0.749978E+00  0.968E+00    0.00       1.0  T
  83    -13.0422342 -0.700303E+00  0.535E+00    0.95       1.0  T
  84    -13.0841220 -0.418879E-01  0.278E+00    0.92       1.0  T
  85    -13.0924784 -0.835635E-02  0.190E+00    0.53       1.0  T
  86    -12.3395223  0.752956E+00  0.976E+00    0.00       1.0  T
  87    -13.0401234 -0.700601E+00  0.546E+00    0.95       1.0  T
  88    -13.0840263 -0.439029E-01  0.279E+00    0.92       1.0  T
  89    -13.0932257 -0.919935E-02  0.184E+00    0.45       1.0  T
  90    -12.3374125  0.755813E+00  0.984E+00    0.00       1.0  T
  91    -13.0378975 -0.700485E+00  0.558E+00    0.94       1.0  T
  92    -13.0839503 -0.460528E-01  0.279E+00    0.92       1.0  T
  93    -13.0944303 -0.104800E-01  0.176E+00    0.37       1.0  T
  94    -12.3356148  0.758815E+00  0.991E+00    0.00       1.0  T
  95    -13.0354579 -0.699843E+00  0.570E+00    0.94       1.0  T
  96    -13.0839247 -0.484668E-01  0.280E+00    0.92       1.0  T
  97    -13.0968931 -0.129684E-01  0.163E+00    0.29       1.0  T
  98    -12.3345424  0.762351E+00  0.995E+00    0.00       1.0  T
  99    -13.0330012 -0.698459E+00  0.581E+00    0.94       1.0  T
 100    -13.0839959 -0.509947E-01  0.279E+00    0.92       1.0  T
 101    -13.1012603 -0.172644E-01  0.142E+00    0.23       1.0  T
 102    -12.3350747  0.766186E+00  0.994E+00    0.00       1.0  T
 103    -13.0313966 -0.696322E+00  0.587E+00    0.95       1.0  T
 104    -13.0841443 -0.527477E-01  0.278E+00    0.92       1.0  T
 105    -13.1033319 -0.191876E-01  0.132E+00    0.22       1.0  T
 106    -12.3359717  0.767360E+00  0.990E+00    0.00       1.0  T
 107    -13.0310144 -0.695043E+00  0.588E+00    0.95       1.0  T
 108    -13.0842326 -0.532182E-01  0.277E+00    0.92       1.0  T
 109    -13.1028047 -0.185721E-01  0.135E+00    0.22       1.0  T
 110    -12.3360723  0.766732E+00  0.990E+00    0.00       1.0  T
 111    -13.0308793 -0.694807E+00  0.588E+00    0.95       1.0  T
 112    -13.0842990 -0.534198E-01  0.277E+00    0.92       1.0  T
 113    -13.1034627 -0.191637E-01  0.131E+00    0.22       1.0  T
 114    -12.3365197  0.766943E+00  0.988E+00    0.00       1.0  T
 115    -13.0307643 -0.694245E+00  0.588E+00    0.95       1.0  T
 116    -13.0843882 -0.536239E-01  0.276E+00    0.92       1.0  T
 117    -13.1034827 -0.190945E-01  0.131E+00    0.22       1.0  T
 118    -12.3367686  0.766714E+00  0.987E+00    0.00       1.0  T
 119    -13.0307443 -0.693976E+00  0.588E+00    0.95       1.0  T
 120    -13.0844570 -0.537127E-01  0.275E+00    0.92       1.0  T
 121    -13.1035071 -0.190501E-01  0.131E+00    0.22       1.0  T
 122    -12.3369834  0.766524E+00  0.986E+00    0.00       1.0  T
 123    -13.0307550 -0.693772E+00  0.587E+00    0.95       1.0  T
 124    -13.0845244 -0.537694E-01  0.275E+00    0.92       1.0  T
 125    -13.1035984 -0.190740E-01  0.131E+00    0.22       1.0  T
 126    -12.3372125  0.766386E+00  0.985E+00    0.00       1.0  T
 127    -13.0308014 -0.693589E+00  0.587E+00    0.95       1.0  T
 128    -13.0845855 -0.537842E-01  0.274E+00    0.92       1.0  T
 129    -13.1035492 -0.189637E-01  0.131E+00    0.22       1.0  T
 130    -12.3373743  0.766175E+00  0.985E+00    0.00       1.0  T
 131    -13.0308618 -0.693487E+00  0.586E+00    0.95       1.0  T
 132    -13.0846393 -0.537775E-01  0.274E+00    0.92       1.0  T
 133    -13.1035460 -0.189067E-01  0.131E+00    0.22       1.0  T
 134    -12.3375370  0.766009E+00  0.984E+00    0.00       1.0  T
 135    -13.0309372 -0.693400E+00  0.586E+00    0.95       1.0  T
 136    -13.0846892 -0.537520E-01  0.273E+00    0.92       1.0  T
 137    -13.1035158 -0.188266E-01  0.131E+00    0.22       1.0  T
 138    -12.3376790  0.765837E+00  0.983E+00    0.00       1.0  T
 139    -13.0310207 -0.693342E+00  0.585E+00    0.95       1.0  T
 140    -13.0847335 -0.537128E-01  0.273E+00    0.92       1.0  T
 141    -13.1034665 -0.187329E-01  0.131E+00    0.22       1.0  T
 142    -12.3378008  0.765666E+00  0.983E+00    0.00       1.0  T
 143    -13.0311075 -0.693307E+00  0.585E+00    0.95       1.0  T
 144    -13.0847737 -0.536662E-01  0.272E+00    0.92       1.0  T
 145    -13.1034275 -0.186538E-01  0.132E+00    0.22       1.0  T
 146    -12.3379165  0.765511E+00  0.983E+00    0.00       1.0  T
 147    -13.0311986 -0.693282E+00  0.584E+00    0.95       1.0  T
 148    -13.0848101 -0.536115E-01  0.272E+00    0.92       1.0  T
 149    -13.1033761 -0.185659E-01  0.132E+00    0.22       1.0  T
 150    -12.3380180  0.765358E+00  0.982E+00    0.00       1.0  T
 151    -13.0312898 -0.693272E+00  0.584E+00    0.95       1.0  T
 152    -13.0848428 -0.535530E-01  0.272E+00    0.92       1.0  T
 153    -13.1033245 -0.184816E-01  0.132E+00    0.22       1.0  T
 154    -12.3381104  0.765214E+00  0.982E+00    0.00       1.0  T
 155    -13.0313809 -0.693270E+00  0.583E+00    0.95       1.0  T
 156    -13.0848725 -0.534916E-01  0.271E+00    0.92       1.0  T
 157    -13.1032745 -0.184020E-01  0.132E+00    0.22       1.0  T
 158    -12.3381959  0.765079E+00  0.982E+00    0.00       1.0  T
 159    -13.0314715 -0.693276E+00  0.583E+00    0.94       1.0  T
 160    -13.0848994 -0.534279E-01  0.271E+00    0.92       1.0  T
 161    -13.1032217 -0.183223E-01  0.133E+00    0.22       1.0  T
 162    -12.3382730  0.764949E+00  0.981E+00    0.00       1.0  T
 163    -13.0315603 -0.693287E+00  0.582E+00    0.94       1.0  T
 164    -13.0849237 -0.533634E-01  0.271E+00    0.92       1.0  T
 165    -13.1031708 -0.182471E-01  0.133E+00    0.22       1.0  T
 166    -12.3383441  0.764827E+00  0.981E+00    0.00       1.0  T
 167    -13.0316473 -0.693303E+00  0.582E+00    0.94       1.0  T
 168    -13.0849457 -0.532984E-01  0.271E+00    0.92       1.0  T
 169    -13.1031208 -0.181751E-01  0.133E+00    0.22       1.0  T
 170    -12.3384097  0.764711E+00  0.981E+00    0.00       1.0  T
 171    -13.0317323 -0.693323E+00  0.581E+00    0.94       1.0  T
 172    -13.0849657 -0.532334E-01  0.270E+00    0.92       1.0  T
 173    -13.1030713 -0.181056E-01  0.134E+00    0.22       1.0  T
 174    -12.3384698  0.764601E+00  0.981E+00    0.00       1.0  T
 175    -13.0318148 -0.693345E+00  0.581E+00    0.94       1.0  T
 176    -13.0849837 -0.531689E-01  0.270E+00    0.92       1.0  T
 177    -13.1030236 -0.180398E-01  0.134E+00    0.22       1.0  T
 178    -12.3385256  0.764498E+00  0.980E+00    0.00       1.0  T
 179    -13.0318951 -0.693370E+00  0.580E+00    0.94       1.0  T
 180    -13.0850001 -0.531050E-01  0.270E+00    0.92       1.0  T
 181    -13.1029771 -0.179770E-01  0.134E+00    0.22       1.0  T
 182    -12.3385771  0.764400E+00  0.980E+00    0.00       1.0  T
 183    -13.0319729 -0.693396E+00  0.580E+00    0.94       1.0  T
 184    -13.0850149 -0.530420E-01  0.270E+00    0.92       1.0  T
 185    -13.1029321 -0.179172E-01  0.134E+00    0.22       1.0  T
 186    -12.3386247  0.764307E+00  0.980E+00    0.00       1.0  T
 187    -13.0320482 -0.693423E+00  0.580E+00    0.94       1.0  T
 188    -13.0850283 -0.529801E-01  0.270E+00    0.92       1.0  T
 189    -13.1028887 -0.178604E-01  0.134E+00    0.22       1.0  T
 190    -12.3386690  0.764220E+00  0.980E+00    0.00       1.0  T
 191    -13.0321211 -0.693452E+00  0.579E+00    0.94       1.0  T
 192    -13.0850404 -0.529193E-01  0.270E+00    0.92       1.0  T
 193    -13.1028468 -0.178064E-01  0.135E+00    0.22       1.0  T
 194    -12.3387101  0.764137E+00  0.980E+00    0.00       1.0  T
 195    -13.0321916 -0.693482E+00  0.579E+00    0.94       1.0  T
 196    -13.0850514 -0.528597E-01  0.270E+00    0.92       1.0  T
 197    -13.1028064 -0.177551E-01  0.135E+00    0.22       1.0  T
 198    -12.3387482  0.764058E+00  0.980E+00    0.00       1.0  T
 199    -13.0322598 -0.693512E+00  0.579E+00    0.94       1.0  T
 200    -13.0850612 -0.528014E-01  0.269E+00    0.92       1.0  T
 201    -13.1027676 -0.177064E-01  0.135E+00    0.22       1.0  T
 202    -12.3387838  0.763984E+00  0.979E+00    0.00       1.0  T
 203    -13.0323257 -0.693542E+00  0.578E+00    0.94       1.0  T
 204    -13.0850701 -0.527444E-01  0.269E+00    0.92       1.0  T
 205    -13.1027303 -0.176601E-01  0.135E+00    0.22       1.0  T
 206    -12.3388168  0.763913E+00  0.979E+00    0.00       1.0  T
 207    -13.0323894 -0.693573E+00  0.578E+00    0.94       1.0  T
 208    -13.0850781 -0.526887E-01  0.269E+00    0.92       1.0  T
 209    -13.1026943 -0.176162E-01  0.135E+00    0.22       1.0  T
 210    -12.3388476  0.763847E+00  0.979E+00    0.00       1.0  T
 211    -13.0324509 -0.693603E+00  0.578E+00    0.94       1.0  T
 212    -13.0850852 -0.526344E-01  0.269E+00    0.92       1.0  T
 213    -13.1026598 -0.175746E-01  0.136E+00    0.22       1.0  T
 214    -12.3388762  0.763784E+00  0.979E+00    0.00       1.0  T
 215    -13.0325103 -0.693634E+00  0.578E+00    0.94       1.0  T
 216    -13.0850916 -0.525813E-01  0.269E+00    0.92       1.0  T
 217    -13.1026267 -0.175350E-01  0.136E+00    0.22       1.0  T
 218    -12.3389029  0.763724E+00  0.979E+00    0.00       1.0  T
 219    -13.0325678 -0.693665E+00  0.577E+00    0.94       1.0  T
 220    -13.0850973 -0.525295E-01  0.269E+00    0.92       1.0  T
 221    -13.1025948 -0.174975E-01  0.136E+00    0.22       1.0  T
 222    -12.3389278  0.763667E+00  0.979E+00    0.00       1.0  T
 223    -13.0326233 -0.693695E+00  0.577E+00    0.94       1.0  T
 224    -13.0851023 -0.524791E-01  0.269E+00    0.92       1.0  T
 225    -13.1025642 -0.174619E-01  0.136E+00    0.22       1.0  T
 226    -12.3389510  0.763613E+00  0.979E+00    0.00       1.0  T
 227    -13.0326769 -0.693726E+00  0.577E+00    0.94       1.0  T
 228    -13.0851068 -0.524298E-01  0.269E+00    0.92       1.0  T
 229    -13.1025349 -0.174281E-01  0.136E+00    0.22       1.0  T
 230    -12.3389726  0.763562E+00  0.979E+00    0.00       1.0  T
 231    -13.0327288 -0.693756E+00  0.577E+00    0.94       1.0  T
 232    -13.0851107 -0.523818E-01  0.269E+00    0.92       1.0  T
 233    -13.1025067 -0.173960E-01  0.136E+00    0.22       1.0  T
 234    -12.3389928  0.763514E+00  0.979E+00    0.00       1.0  T
 235    -13.0327790 -0.693786E+00  0.576E+00    0.94       1.0  T
 236    -13.0851140 -0.523351E-01  0.269E+00    0.92       1.0  T
 237    -13.1024796 -0.173655E-01  0.136E+00    0.22       1.0  T
 238    -12.3390115  0.763468E+00  0.979E+00    0.00       1.0  T
 239    -13.0328274 -0.693816E+00  0.576E+00    0.94       1.0  T
 240    -13.0851169 -0.522895E-01  0.269E+00    0.92       1.0  T
 241    -13.1024535 -0.173366E-01  0.137E+00    0.23       1.0  T
 242    -12.3390289  0.763425E+00  0.979E+00    0.00       1.0  T
 243    -13.0328743 -0.693845E+00  0.576E+00    0.94       1.0  T
 244    -13.0851194 -0.522450E-01  0.269E+00    0.92       1.0  T
 245    -13.1024286 -0.173092E-01  0.137E+00    0.23       1.0  T
 246    -12.3390452  0.763383E+00  0.978E+00    0.00       1.0  T
 247    -13.0329197 -0.693875E+00  0.576E+00    0.94       1.0  T
 248    -13.0851214 -0.522017E-01  0.269E+00    0.92       1.0  T
 249    -13.1024046 -0.172831E-01  0.137E+00    0.23       1.0  T
 250    -12.3390603  0.763344E+00  0.978E+00    0.00       1.0  T
     SCC iter.                  ...        0 min,  0.117 sec
     gradient                   ...        0 min,  0.001 sec
 * total energy  :   -12.2255328 Eh     change       -0.5730390E+00 Eh
   gradient norm :     1.7488083 Eh/α   predicted    -0.1480326E+01 ( 158.33%)
   displ. norm   :     0.2752127 α      lambda       -0.4753782E+00
   maximum displ.:     0.2695479 α      in ANC's #12, #11, #6, ...

........................................................................
.............................. CYCLE    4 ..............................
........................................................................
   1    -13.0300451 -0.130300E+02  0.698E+00    0.71       0.0  T
   2    -12.4460983  0.583947E+00  0.939E+00    0.15       1.0  T
   3    -12.9146501 -0.468552E+00  0.799E+00    2.15       1.0  T
   4    -12.3578112  0.556839E+00  0.103E+01    0.00       1.0  T
   5    -12.9036742 -0.545863E+00  0.766E+00    1.56       1.0  T
   6    -12.9798629 -0.761887E-01  0.532E+00    1.22       1.0  T
   7    -13.0178243 -0.379614E-01  0.447E+00    1.06       1.0  T
   8    -13.0056355  0.121889E-01  0.476E+00    1.12       1.0  T
   9    -13.0294377 -0.238022E-01  0.402E+00    1.03       1.0  T
  10    -13.0465288 -0.170911E-01  0.352E+00    0.80       1.0  T
  11    -12.5222438  0.524285E+00  0.843E+00    0.01       1.0  T
  12    -12.9874215 -0.465178E+00  0.443E+00    0.39       1.0  T
  13    -13.0514210 -0.639996E-01  0.371E+00    0.87       1.0  T
  14    -13.0719541 -0.205331E-01  0.292E+00    0.79       1.0  T
  15    -13.0806851 -0.873098E-02  0.246E+00    0.66       1.0  T
  16    -12.3716030  0.709082E+00  0.945E+00    0.00       1.0  T
  17    -13.0372444 -0.665641E+00  0.334E+00    0.45       1.0  T
  18    -13.0721400 -0.348956E-01  0.300E+00    0.77       1.0  T
  19    -13.0820499 -0.990988E-02  0.237E+00    0.49       1.0  T
  20    -12.6189936  0.463056E+00  0.772E+00    0.01       1.0  T
  21    -13.0791209 -0.460127E+00  0.309E+00    0.59       1.0  T
  22    -13.0667628  0.123581E-01  0.319E+00    0.81       1.0  T
  23    -13.0843735 -0.176107E-01  0.239E+00    0.71       1.0  T
  24    -13.0880273 -0.365384E-02  0.209E+00    0.38       1.0  T
  25    -13.1156855 -0.276582E-01  0.314E-01    0.13       1.0  T
  26    -13.0858885  0.297970E-01  0.233E+00    0.69       1.0  T
  27    -13.0926020 -0.671354E-02  0.187E+00    0.27       1.0  T
  28    -13.1057909 -0.131889E-01  0.123E+00    0.18       1.0  T
  29    -13.0887062  0.170847E-01  0.205E+00    0.39       1.0  T
  30    -13.0419410  0.467653E-01  0.305E+00    0.06       1.0  T
  31    -13.0857922 -0.438512E-01  0.245E+00    0.66       1.0  T
  32    -13.0875893 -0.179707E-02  0.212E+00    0.44       1.0  T
  33    -13.0979253 -0.103360E-01  0.152E+00    0.08       1.0  T
  34    -13.0866886  0.112367E-01  0.229E+00    0.68       1.0  T
  35    -13.0977231 -0.110344E-01  0.163E+00    0.22       1.0  T
  36    -13.1072197 -0.949662E-02  0.113E+00    0.17       1.0  T
  37    -13.0915378  0.156819E-01  0.190E+00    0.30       1.0  T
  38    -13.1044106 -0.128728E-01  0.122E+00    0.09       1.0  T
  39    -13.0873770  0.170336E-01  0.221E+00    0.68       1.0  T
  40    -13.1155027 -0.281257E-01  0.324E-01    0.13       1.0  T
  41    -13.0892865  0.262162E-01  0.202E+00    0.42       1.0  T
  42    -13.0519755  0.373110E-01  0.285E+00    0.06       1.0  T
  43    -13.0872928 -0.353173E-01  0.225E+00    0.67       1.0  T
  44    -13.1157854 -0.284926E-01  0.252E-01    0.13       1.0  T
  45    -13.0900298  0.257556E-01  0.197E+00    0.37       1.0  T
  46    -13.0303623  0.596675E-01  0.329E+00    0.06       1.0  T
  47    -13.0877477 -0.573855E-01  0.221E+00    0.67       1.0  T
  48    -13.0968093 -0.906160E-02  0.157E+00    0.08       1.0  T
  49    -13.0886096  0.819972E-02  0.209E+00    0.58       1.0  T
  50    -13.0043479  0.842617E-01  0.375E+00    0.05       1.0  T
  51    -13.0883675 -0.840196E-01  0.215E+00    0.67       1.0  T
  52    -12.9984426  0.899249E-01  0.384E+00    0.05       1.0  T
  53    -13.0886731 -0.902305E-01  0.211E+00    0.67       1.0  T
  54    -12.9418451  0.146828E+00  0.466E+00    0.04       1.0  T
  55    -13.0889674 -0.147122E+00  0.208E+00    0.66       1.0  T
  56    -12.9224877  0.166480E+00  0.490E+00    0.04       1.0  T
  57    -13.0891790 -0.166691E+00  0.206E+00    0.62       1.0  T
  58    -12.9932251  0.959539E-01  0.393E+00    0.05       1.0  T
  59    -13.0890031 -0.957780E-01  0.206E+00    0.59       1.0  T
  60    -13.1136986 -0.246954E-01  0.563E-01    0.11       1.0  T
  61    -13.0891344  0.245642E-01  0.203E+00    0.46       1.0  T
  62    -13.1032022 -0.140678E-01  0.135E+00    0.19       1.0  T
  63    -13.0933072  0.989496E-02  0.181E+00    0.28       1.0  T
  64    -13.1001686 -0.686140E-02  0.150E+00    0.21       1.0  T
  65    -13.0964311  0.373748E-02  0.167E+00    0.24       1.0  T
  66    -13.1005474 -0.411628E-02  0.148E+00    0.21       1.0  T
  67    -13.0983352  0.221220E-02  0.158E+00    0.22       1.0  T
  68    -13.1021990 -0.386376E-02  0.140E+00    0.20       1.0  T
  69    -13.0998848  0.231417E-02  0.151E+00    0.21       1.0  T
  70    -13.1050486 -0.516383E-02  0.124E+00    0.18       1.0  T
  71    -13.1010295  0.401912E-02  0.145E+00    0.21       1.0  T
  72    -13.1091356 -0.810608E-02  0.986E-01    0.16       1.0  T
  73    -13.1001637  0.897186E-02  0.150E+00    0.21       1.0  T
  74    -13.1153797 -0.152160E-01  0.330E-01    0.13       1.0  T
  75    -13.0944310  0.209487E-01  0.176E+00    0.26       1.0  T
  76    -13.0597423  0.346886E-01  0.268E+00    0.06       1.0  T
  77    -13.0892356 -0.294933E-01  0.203E+00    0.49       1.0  T
  78    -12.4721260  0.617110E+00  0.876E+00    0.00       1.0  T
  79    -13.0918122 -0.619686E+00  0.183E+00    0.37       1.0  T
  80    -12.3647261  0.727086E+00  0.956E+00    0.00       1.0  T
  81    -13.1080587 -0.743333E+00  0.101E+00    0.17       1.0  T
  82    -12.3556875  0.752371E+00  0.983E+00    0.00       1.0  T
  83    -12.3802225 -0.245350E-01  0.940E+00    0.00       1.0  T
  84    -12.3496699  0.305525E-01  0.100E+01    0.00       1.0  T
  85    -12.3459936  0.367629E-02  0.102E+01    0.00       1.0  T
  86    -12.3630651 -0.170714E-01  0.959E+00    0.00       1.0  T
  87    -13.0615373 -0.698472E+00  0.333E+00    0.85       1.0  T
  88    -13.0724192 -0.108819E-01  0.328E+00    0.73       1.0  T
  89    -13.0715599  0.859312E-03  0.348E+00    0.71       1.0  T
  90    -13.0659698  0.559008E-02  0.391E+00    0.71       1.0  T
  91    -13.0601245  0.584535E-02  0.427E+00    0.72       1.0  T
  92    -13.0567397  0.338480E-02  0.446E+00    0.72       1.0  T
  93    -13.0584528 -0.171313E-02  0.437E+00    0.72       1.0  T
  94    -13.0664869 -0.803406E-02  0.391E+00    0.71       1.0  T
  95    -13.0767112 -0.102243E-01  0.321E+00    0.69       1.0  T
  96    -13.0855052 -0.879410E-02  0.242E+00    0.68       1.0  T
  97    -12.3853163  0.700189E+00  0.935E+00    0.00       1.0  T
  98    -12.3614435  0.238727E-01  0.966E+00    0.00       1.0  T
  99    -12.3630752 -0.163163E-02  0.961E+00    0.00       1.0  T
 100    -13.0883507 -0.725276E+00  0.206E+00    0.28       1.0  T
 101    -13.0883201  0.305975E-04  0.206E+00    0.43       1.0  T
 102    -12.3571527  0.731167E+00  0.976E+00    0.00       1.0  T
 103    -13.0713625 -0.714210E+00  0.282E+00    0.76       1.0  T
 104    -12.3659291  0.705433E+00  0.954E+00    0.00       1.0  T
 105    -13.0717820 -0.705853E+00  0.279E+00    0.68       1.0  T
 106    -12.3596562  0.712126E+00  0.970E+00    0.00       1.0  T
 107    -12.4634319 -0.103776E+00  0.885E+00    0.01       1.0  T
 108    -13.0532962 -0.589864E+00  0.335E+00    0.48       1.0  T
 109    -12.3508343  0.702462E+00  0.101E+01    0.00       1.0  T
 110    -12.3415900  0.924426E-02  0.105E+01    0.00       1.0  T
 111    -12.3578129 -0.162228E-01  0.977E+00    0.00       1.0  T
 112    -13.0174475 -0.659635E+00  0.404E+00    0.42       1.0  T
 113    -13.0830539 -0.656064E-01  0.278E+00    0.62       1.0  T
 114    -13.0869524 -0.389856E-02  0.223E+00    0.69       1.0  T
 115    -12.7342747  0.352678E+00  0.685E+00    0.01       1.0  T
 116    -13.0839244 -0.349650E+00  0.271E+00    0.65       1.0  T
 117    -13.0851222 -0.119777E-02  0.246E+00    0.68       1.0  T
 118    -13.0889889 -0.386666E-02  0.207E+00    0.57       1.0  T
 119    -12.3688277  0.720161E+00  0.952E+00    0.00       1.0  T
 120    -13.0737671 -0.704939E+00  0.338E+00    0.70       1.0  T
 121    -13.0843613 -0.105942E-01  0.260E+00    0.67       1.0  T
 122    -13.0881176 -0.375627E-02  0.214E+00    0.63       1.0  T
 123    -12.3738510  0.714267E+00  0.944E+00    0.00       1.0  T
 124    -13.0717056 -0.697855E+00  0.364E+00    0.68       1.0  T
 125    -13.0829597 -0.112541E-01  0.271E+00    0.68       1.0  T
 126    -13.0875946 -0.463491E-02  0.216E+00    0.62       1.0  T
 127    -12.3718740  0.715721E+00  0.945E+00    0.00       1.0  T
 128    -13.0696807 -0.697807E+00  0.384E+00    0.67       1.0  T
 129    -13.0819746 -0.122939E-01  0.279E+00    0.68       1.0  T
 130    -13.0873571 -0.538252E-02  0.217E+00    0.60       1.0  T
 131    -12.3700517  0.717305E+00  0.946E+00    0.00       1.0  T
 132    -13.0678371 -0.697785E+00  0.400E+00    0.66       1.0  T
 133    -13.0811743 -0.133371E-01  0.285E+00    0.69       1.0  T
 134    -13.0871978 -0.602351E-02  0.217E+00    0.58       1.0  T
 135    -12.3692792  0.717919E+00  0.947E+00    0.00       1.0  T
 136    -13.0661448 -0.696866E+00  0.413E+00    0.66       1.0  T
 137    -13.0805732 -0.144284E-01  0.289E+00    0.69       1.0  T
 138    -13.0871086 -0.653535E-02  0.217E+00    0.57       1.0  T
 139    -12.3687919  0.718317E+00  0.948E+00    0.00       1.0  T
 140    -13.0646268 -0.695835E+00  0.424E+00    0.66       1.0  T
 141    -13.0802082 -0.155814E-01  0.292E+00    0.69       1.0  T
 142    -13.0871117 -0.690350E-02  0.217E+00    0.55       1.0  T
 143    -12.3681941  0.718918E+00  0.948E+00    0.00       1.0  T
 144    -13.0633119 -0.695118E+00  0.432E+00    0.66       1.0  T
 145    -13.0800424 -0.167305E-01  0.293E+00    0.69       1.0  T
 146    -13.0872032 -0.716078E-02  0.216E+00    0.53       1.0  T
 147    -12.3674536  0.719750E+00  0.950E+00    0.00       1.0  T
 148    -13.0621983 -0.694745E+00  0.440E+00    0.66       1.0  T
 149    -13.0800071 -0.178088E-01  0.293E+00    0.69       1.0  T
 150    -13.0873627 -0.735562E-02  0.215E+00    0.50       1.0  T
 151    -12.3666814  0.720681E+00  0.951E+00    0.00       1.0  T
 152    -13.0612594 -0.694578E+00  0.445E+00    0.66       1.0  T
 153    -13.0800415 -0.187820E-01  0.293E+00    0.69       1.0  T
 154    -13.0875675 -0.752603E-02  0.213E+00    0.48       1.0  T
 155    -12.3659772  0.721590E+00  0.952E+00    0.00       1.0  T
 156    -13.0604578 -0.694481E+00  0.450E+00    0.66       1.0  T
 157    -13.0801069 -0.196491E-01  0.292E+00    0.69       1.0  T
 158    -13.0877994 -0.769252E-02  0.211E+00    0.45       1.0  T
 159    -12.3653887  0.722411E+00  0.953E+00    0.00       1.0  T
 160    -13.0597578 -0.694369E+00  0.455E+00    0.66       1.0  T
 161    -13.0801840 -0.204262E-01  0.292E+00    0.69       1.0  T
 162    -13.0880461 -0.786213E-02  0.209E+00    0.43       1.0  T
 163    -12.3649246  0.723121E+00  0.954E+00    0.00       1.0  T
 164    -13.0591319 -0.694207E+00  0.458E+00    0.66       1.0  T
 165    -13.0802655 -0.211335E-01  0.291E+00    0.69       1.0  T
 166    -13.0883004 -0.803489E-02  0.208E+00    0.41       1.0  T
 167    -12.3645745  0.723726E+00  0.954E+00    0.00       1.0  T
 168    -13.0585616 -0.693987E+00  0.462E+00    0.66       1.0  T
 169    -13.0803494 -0.217879E-01  0.290E+00    0.69       1.0  T
 170    -13.0885577 -0.820829E-02  0.206E+00    0.39       1.0  T
 171    -12.3643215  0.724236E+00  0.955E+00    0.00       1.0  T
 172    -13.0580351 -0.693714E+00  0.465E+00    0.66       1.0  T
 173    -13.0804357 -0.224007E-01  0.290E+00    0.69       1.0  T
 174    -13.0888153 -0.837957E-02  0.205E+00    0.38       1.0  T
 175    -12.3641491  0.724666E+00  0.955E+00    0.00       1.0  T
 176    -13.0575453 -0.693396E+00  0.467E+00    0.66       1.0  T
 177    -13.0805244 -0.229791E-01  0.289E+00    0.69       1.0  T
 178    -13.0890707 -0.854633E-02  0.203E+00    0.37       1.0  T
 179    -12.3640431  0.725028E+00  0.956E+00    0.00       1.0  T
 180    -13.0570880 -0.693045E+00  0.470E+00    0.66       1.0  T
 181    -13.0806151 -0.235272E-01  0.288E+00    0.69       1.0  T
 182    -13.0893217 -0.870659E-02  0.202E+00    0.36       1.0  T
 183    -12.3639919  0.725330E+00  0.956E+00    0.00       1.0  T
 184    -13.0566601 -0.692668E+00  0.472E+00    0.66       1.0  T
 185    -13.0807074 -0.240473E-01  0.287E+00    0.69       1.0  T
 186    -13.0895661 -0.885863E-02  0.201E+00    0.35       1.0  T
 187    -12.3639858  0.725580E+00  0.956E+00    0.00       1.0  T
 188    -13.0562597 -0.692274E+00  0.474E+00    0.66       1.0  T
 189    -13.0808006 -0.245408E-01  0.287E+00    0.69       1.0  T
 190    -13.0898016 -0.900103E-02  0.200E+00    0.34       1.0  T
 191    -12.3640172  0.725784E+00  0.956E+00    0.00       1.0  T
 192    -13.0558854 -0.691868E+00  0.476E+00    0.66       1.0  T
 193    -13.0808939 -0.250085E-01  0.286E+00    0.69       1.0  T
 194    -13.0900266 -0.913267E-02  0.199E+00    0.33       1.0  T
 195    -12.3640793  0.725947E+00  0.955E+00    0.00       1.0  T
 196    -13.0555359 -0.691457E+00  0.478E+00    0.66       1.0  T
 197    -13.0809868 -0.254509E-01  0.285E+00    0.69       1.0  T
 198    -13.0902396 -0.925278E-02  0.198E+00    0.33       1.0  T
 199    -12.3641667  0.726073E+00  0.955E+00    0.00       1.0  T
 200    -13.0552102 -0.691044E+00  0.480E+00    0.66       1.0  T
 201    -13.0810788 -0.258686E-01  0.285E+00    0.69       1.0  T
 202    -13.0904397 -0.936095E-02  0.197E+00    0.32       1.0  T
 203    -12.3642746  0.726165E+00  0.955E+00    0.00       1.0  T
 204    -13.0549074 -0.690633E+00  0.481E+00    0.67       1.0  T
 205    -13.0811694 -0.262620E-01  0.284E+00    0.69       1.0  T
 206    -13.0906264 -0.945703E-02  0.196E+00    0.32       1.0  T
 207    -12.3643992  0.726227E+00  0.955E+00    0.00       1.0  T
 208    -13.0546264 -0.690227E+00  0.482E+00    0.67       1.0  T
 209    -13.0812581 -0.266318E-01  0.283E+00    0.69       1.0  T
 210    -13.0907993 -0.954114E-02  0.195E+00    0.31       1.0  T
 211    -12.3645372  0.726262E+00  0.954E+00    0.00       1.0  T
 212    -13.0543663 -0.689829E+00  0.484E+00    0.67       1.0  T
 213    -13.0813449 -0.269786E-01  0.283E+00    0.69       1.0  T
 214    -13.0909585 -0.961361E-02  0.194E+00    0.31       1.0  T
 215    -12.3646861  0.726272E+00  0.954E+00    0.00       1.0  T
 216    -13.0541260 -0.689440E+00  0.485E+00    0.67       1.0  T
 217    -13.0814293 -0.273033E-01  0.282E+00    0.69       1.0  T
 218    -13.0911042 -0.967488E-02  0.194E+00    0.31       1.0  T
 219    -12.3648435  0.726261E+00  0.954E+00    0.00       1.0  T
 220    -13.0539044 -0.689061E+00  0.486E+00    0.67       1.0  T
 221    -13.0815112 -0.276068E-01  0.281E+00    0.69       1.0  T
 222    -13.0912367 -0.972553E-02  0.193E+00    0.30       1.0  T
 223    -12.3650077  0.726229E+00  0.953E+00    0.00       1.0  T
 224    -13.0537006 -0.688693E+00  0.487E+00    0.67       1.0  T
 225    -13.0815906 -0.278900E-01  0.281E+00    0.69       1.0  T
 226    -13.0913568 -0.976620E-02  0.192E+00    0.30       1.0  T
 227    -12.3651773  0.726180E+00  0.953E+00    0.00       1.0  T
 228    -13.0535133 -0.688336E+00  0.487E+00    0.67       1.0  T
 229    -13.0816673 -0.281540E-01  0.280E+00    0.69       1.0  T
 230    -13.0914649 -0.979757E-02  0.192E+00    0.30       1.0  T
 231    -12.3653510  0.726114E+00  0.953E+00    0.00       1.0  T
 232    -13.0533416 -0.687991E+00  0.488E+00    0.67       1.0  T
 233    -13.0817413 -0.283997E-01  0.279E+00    0.69       1.0  T
 234    -13.0915617 -0.982035E-02  0.191E+00    0.30       1.0  T
 235    -12.3655279  0.726034E+00  0.952E+00    0.00       1.0  T
 236    -13.0531843 -0.687656E+00  0.489E+00    0.67       1.0  T
 237    -13.0818127 -0.286284E-01  0.279E+00    0.69       1.0  T
 238    -13.0916479 -0.983526E-02  0.191E+00    0.30       1.0  T
 239    -12.3657074  0.725941E+00  0.952E+00    0.00       1.0  T
 240    -13.0530404 -0.687333E+00  0.490E+00    0.67       1.0  T
 241    -13.0818814 -0.288409E-01  0.278E+00    0.69       1.0  T
 242    -13.0917244 -0.984299E-02  0.191E+00    0.30       1.0  T
 243    -12.3658887  0.725836E+00  0.952E+00    0.00       1.0  T
 244    -13.0529090 -0.687020E+00  0.490E+00    0.67       1.0  T
 245    -13.0819475 -0.290384E-01  0.278E+00    0.69       1.0  T
 246    -13.0917917 -0.984421E-02  0.190E+00    0.30       1.0  T
 247    -12.3660715  0.725720E+00  0.951E+00    0.00       1.0  T
 248    -13.0527891 -0.686718E+00  0.491E+00    0.67       1.0  T
 249    -13.0820111 -0.292219E-01  0.277E+00    0.68       1.0  T
 250    -13.0918506 -0.983958E-02  0.190E+00    0.29       1.0  T
     SCC iter.                  ...        0 min,  0.114 sec
     gradient                   ...        0 min,  0.000 sec
 * total energy  :   -12.6450993 Eh     change       -0.4195665E+00 Eh
   gradient norm :     4.4601661 Eh/α   predicted    -0.2556921E+00 ( -39.06%)
   displ. norm   :     0.1844894 α      lambda       -0.7713804E+00
   maximum displ.:     0.1799475 α      in ANC's #12, #11, #3, ...

........................................................................
.............................. CYCLE    5 ..............................
........................................................................
   1    -12.3841358 -0.123841E+02  0.956E+00    0.00       0.0  T
   2    -12.6925944 -0.308459E+00  0.895E+00    2.63       1.0  T
   3    -12.6906426  0.195188E-02  0.870E+00    0.27       1.0  T
   4    -13.0533153 -0.362673E+00  0.407E+00    0.96       1.0  T
   5    -13.0685781 -0.152628E-01  0.318E+00    0.62       1.0  T
   6    -12.3639306  0.704648E+00  0.935E+00    0.00       1.0  T
   7    -13.0636819 -0.699751E+00  0.338E+00    1.04       1.0  T
   8    -13.0808725 -0.171906E-01  0.274E+00    0.97       1.0  T
   9    -13.0916167 -0.107442E-01  0.215E+00    0.67       1.0  T
  10    -13.0942472 -0.263054E-02  0.197E+00    0.51       1.0  T
  11    -13.1103596 -0.161123E-01  0.113E+00    0.19       1.0  T
  12    -13.0968357  0.135239E-01  0.182E+00    0.32       1.0  T
  13    -13.1178706 -0.210349E-01  0.597E-01    0.14       1.0  T
  14    -13.1022773  0.155933E-01  0.160E+00    0.23       1.0  T
  15    -13.1064615 -0.418426E-02  0.141E+00    0.20       1.0  T
  16    -13.0959135  0.105480E-01  0.171E+00    0.08       1.0  T
  17    -13.0960316 -0.118064E-03  0.187E+00    0.38       1.0  T
  18    -13.1108632 -0.148317E-01  0.112E+00    0.18       1.0  T
  19    -13.0511369  0.597263E-01  0.292E+00    0.06       1.0  T
  20    -13.0966589 -0.455219E-01  0.182E+00    0.39       1.0  T
  21    -13.1109733 -0.143145E-01  0.110E+00    0.18       1.0  T
  22    -13.1013657  0.960762E-02  0.153E+00    0.09       1.0  T
  23    -13.1014489 -0.832377E-04  0.159E+00    0.26       1.0  T
  24    -13.1091132 -0.766430E-02  0.116E+00    0.09       1.0  T
  25    -13.1057806  0.333261E-02  0.138E+00    0.22       1.0  T
  26    -13.1101115 -0.433084E-02  0.111E+00    0.10       1.0  T
  27    -13.1088342  0.127722E-02  0.121E+00    0.20       1.0  T
  28    -13.1137658 -0.493154E-02  0.876E-01    0.10       1.0  T
  29    -13.1126984  0.106735E-02  0.971E-01    0.17       1.0  T
  30    -13.1167639 -0.406547E-02  0.620E-01    0.11       1.0  T
  31    -13.1162979  0.466004E-03  0.677E-01    0.16       1.0  T
  32    -13.1186251 -0.232719E-02  0.381E-01    0.11       1.0  T
  33    -13.1186292 -0.414238E-05  0.384E-01    0.14       1.0  T
  34    -13.1194625 -0.833342E-03  0.192E-01    0.12       1.0  T
  35    -13.1195376 -0.750694E-04  0.165E-01    0.13       1.0  T
  36    -13.1196997 -0.162132E-03  0.768E-02    0.12       1.0  T
  37    -13.1197240 -0.242318E-04  0.527E-02    0.13       1.0  T
  38    -13.1197405 -0.165684E-04  0.245E-02    0.13       1.7  T
  39    -13.1197441 -0.350807E-05  0.119E-02    0.13       3.4  T
  40    -13.1197450 -0.975371E-06  0.378E-03    0.13      10.8  T
  41    -13.1197451 -0.109314E-06  0.312E-04    0.13     131.0  T
     SCC iter.                  ...        0 min,  0.003 sec
     gradient                   ...        0 min,  0.000 sec
 * total energy  :   -13.0709701 Eh     change       -0.4258709E+00 Eh
   gradient norm :     0.1808324 Eh/α   predicted    -0.3988177E+00 (  -6.35%)
   displ. norm   :     0.0666467 α      lambda       -0.3493653E-02
   maximum displ.:     0.0507980 α      in ANC's #3, #1, #6, ...

........................................................................
.............................. CYCLE    6 ..............................
........................................................................
   1    -13.1254870 -0.131255E+02  0.211E-01    0.13       0.0  T
   2    -12.5800606  0.545426E+00  0.807E+00    0.01       1.0  T
   3    -13.1250141 -0.544953E+00  0.355E-01    0.13       1.0  T
   4    -13.1251522 -0.138177E-03  0.294E-01    0.12       1.0  T
   5    -13.1248236  0.328668E-03  0.372E-01    0.12       1.0  T
   6    -13.1249449 -0.121367E-03  0.333E-01    0.12       1.0  T
   7    -13.1254747 -0.529744E-03  0.201E-01    0.12       1.0  T
   8    -13.1257606 -0.285970E-03  0.546E-02    0.13       1.0  T
   9    -13.1257824 -0.217558E-04  0.431E-03    0.13       9.5  T
  10    -13.1257825 -0.121293E-06  0.190E-03    0.13      21.5  T
  11    -13.1257825 -0.233775E-07  0.423E-04    0.13      96.5  T
     SCC iter.                  ...        0 min,  0.001 sec
     gradient                   ...        0 min,  0.001 sec
 * total energy  :   -13.0734394 Eh     change       -0.2469265E-02 Eh
   gradient norm :     0.0310942 Eh/α   predicted    -0.1754587E-02 ( -28.94%)
   displ. norm   :     0.3273421 α      lambda       -0.4565775E-02
   maximum displ.:     0.3010701 α      in ANC's #1, #3, #6, ...

........................................................................
.............................. CYCLE    7 ..............................
........................................................................
   1    -13.1348909 -0.131349E+02  0.564E-01    0.14       0.0  T
   2    -12.3824663  0.752425E+00  0.957E+00    0.00       1.0  T
   3    -13.1241492 -0.741683E+00  0.133E+00    0.17       1.0  T
   4    -13.1337845 -0.963525E-02  0.613E-01    0.11       1.0  T
   5    -13.1339671 -0.182605E-03  0.549E-01    0.11       1.0  T
   6    -13.1354703 -0.150328E-02  0.293E-01    0.12       1.0  T
   7    -13.1361089 -0.638543E-03  0.369E-02    0.13       1.1  T
   8    -13.1361085  0.388072E-06  0.303E-02    0.13       1.3  T
   9    -13.1361153 -0.684322E-05  0.660E-03    0.13       6.2  T
  10    -13.1361156 -0.318635E-06  0.110E-03    0.13      36.9  T
  11    -13.1361157 -0.719555E-08  0.490E-04    0.13      83.4  T
     SCC iter.                  ...        0 min,  0.001 sec
     gradient                   ...        0 min,  0.000 sec
 * total energy  :   -13.0723657 Eh     change        0.1073741E-02 Eh
   gradient norm :     0.1744056 Eh/α   predicted    -0.2527510E-02 (-335.39%)
   displ. norm   :     0.2976194 α      lambda       -0.8216389E-02
   maximum displ.:     0.2702291 α      in ANC's #1, #3, #6, ...

........................................................................
.............................. CYCLE    8 ..............................
........................................................................
   1    -13.1457813 -0.131458E+02  0.412E-01    0.12       0.0  T
   2    -13.1286856  0.170957E-01  0.150E+00    0.27       1.0  T
   3    -13.1174488  0.112368E-01  0.205E+00    0.08       1.0  T
   4    -13.1461170 -0.286683E-01  0.222E-01    0.12       1.0  T
   5    -13.1453010  0.816047E-03  0.374E-01    0.12       1.0  T
   6    -13.1461395 -0.838515E-03  0.115E-01    0.12       1.0  T
   7    -13.1462163 -0.768152E-04  0.499E-02    0.13       1.0  T
   8    -13.1462318 -0.154958E-04  0.188E-02    0.13       2.2  T
   9    -13.1462339 -0.211975E-05  0.786E-03    0.13       5.2  T
  10    -13.1462343 -0.354660E-06  0.292E-03    0.13      14.0  T
  11    -13.1462343 -0.557789E-07  0.888E-04    0.13      46.0  T
     SCC iter.                  ...        0 min,  0.001 sec
     gradient                   ...        0 min,  0.000 sec
 * total energy  :   -13.0762779 Eh     change       -0.3912239E-02 Eh
   gradient norm :     0.1857630 Eh/α   predicted    -0.4472126E-02 (  14.31%)
   displ. norm   :     0.0514653 α      lambda       -0.2226450E-02
   maximum displ.:     0.0405384 α      in ANC's #1, #6, #12, ...

........................................................................
.............................. CYCLE    9 ..............................
........................................................................
   1    -13.1412550 -0.131413E+02  0.326E-01    0.14       0.0  T
   2    -12.3998174  0.741438E+00  0.951E+00    0.00       1.0  T
   3    -13.1391026 -0.739285E+00  0.586E-01    0.15       1.0  T
   4    -13.1415314 -0.242881E-02  0.262E-01    0.13       1.0  T
   5    -13.1414925  0.388415E-04  0.241E-01    0.14       1.0  T
   6    -13.1418300 -0.337491E-03  0.899E-02    0.13       1.0  T
   7    -13.1418525 -0.224590E-04  0.719E-02    0.13       1.0  T
   8    -13.1418899 -0.374061E-04  0.806E-03    0.13       5.1  T
   9    -13.1418898  0.588876E-07  0.788E-03    0.13       5.2  T
  10    -13.1418903 -0.413969E-06  0.144E-03    0.13      28.4  T
  11    -13.1418903 -0.152618E-07  0.316E-04    0.13     129.2  T
     SCC iter.                  ...        0 min,  0.001 sec
     gradient                   ...        0 min,  0.000 sec
 * total energy  :   -13.0776013 Eh     change       -0.1323344E-02 Eh
   gradient norm :     0.0320547 Eh/α   predicted    -0.1116171E-02 ( -15.66%)
   displ. norm   :     0.0772318 α      lambda       -0.1221765E-02
   maximum displ.:     0.0684646 α      in ANC's #3, #6, #1, ...

........................................................................
.............................. CYCLE   10 ..............................
........................................................................
   1    -13.1400950 -0.131401E+02  0.485E-01    0.14       0.0  T
   2    -12.3720349  0.768060E+00  0.978E+00    0.00       1.0  T
   3    -13.1310271 -0.758992E+00  0.116E+00    0.18       1.0  T
   4    -13.1413207 -0.102936E-01  0.136E-01    0.13       1.0  T
   5    -13.1414208 -0.100092E-03  0.427E-02    0.13       1.0  T
   6    -13.1413527  0.681489E-04  0.103E-01    0.12       1.0  T
   7    -13.1414173 -0.646179E-04  0.348E-02    0.13       1.2  T
   8    -13.1414192 -0.192275E-05  0.324E-02    0.13       1.3  T
   9    -13.1414262 -0.695708E-05  0.209E-03    0.13      19.6  T
  10    -13.1414262 -0.157962E-07  0.595E-04    0.13      68.7  T
  11    -13.1414262  0.184477E-08  0.987E-04    0.13      41.4  T
     SCC iter.                  ...        0 min,  0.001 sec
     gradient                   ...        0 min,  0.000 sec
 * total energy  :   -13.0786170 Eh     change       -0.1015712E-02 Eh
   gradient norm :     0.0319975 Eh/α   predicted    -0.6145260E-03 ( -39.50%)
   displ. norm   :     0.2809339 α      lambda       -0.2690586E-02
   maximum displ.:     0.2241922 α      in ANC's #3, #2, #6, ...

........................................................................
.............................. CYCLE   11 ..............................
........................................................................
   1    -13.1313960 -0.131314E+02  0.112E+00    0.15       0.0  T
   2    -12.3447982  0.786598E+00  0.102E+01    0.00       1.0  T
   3    -13.0731992 -0.728401E+00  0.305E+00    0.30       1.0  T
   4    -13.1369420 -0.637428E-01  0.354E-01    0.14       1.0  T
   5    -13.1371657 -0.223755E-03  0.269E-01    0.12       1.0  T
   6    -13.1371869 -0.211810E-04  0.240E-01    0.14       1.0  T
   7    -13.1375162 -0.329310E-03  0.571E-02    0.13       1.0  T
   8    -13.1374938  0.224774E-04  0.857E-02    0.13       1.0  T
   9    -13.1375368 -0.430549E-04  0.808E-03    0.13       5.1  T
  10    -13.1375361  0.709551E-06  0.134E-02    0.13       3.1  T
  11    -13.1375372 -0.107570E-05  0.788E-04    0.13      51.8  T
  12    -13.1375372  0.615976E-08  0.101E-03    0.13      40.3  T
     SCC iter.                  ...        0 min,  0.001 sec
     gradient                   ...        0 min,  0.001 sec
 * total energy  :   -13.0793798 Eh     change       -0.7627934E-03 Eh
   gradient norm :     0.0839476 Eh/α   predicted    -0.1451426E-02 (  90.28%)
   displ. norm   :     0.3189264 α      lambda       -0.2552803E-02
   maximum displ.:     0.2758467 α      in ANC's #2, #3, #6, ...

........................................................................
.............................. CYCLE   12 ..............................
........................................................................
   1    -13.1327710 -0.131328E+02  0.484E-01    0.12       0.0  T
   2    -13.1109619  0.218091E-01  0.172E+00    0.27       1.0  T
   3    -13.0689145  0.420474E-01  0.299E+00    0.07       1.0  T
   4    -13.1275083 -0.585938E-01  0.102E+00    0.17       1.0  T
   5    -13.1297265 -0.221817E-02  0.739E-01    0.16       1.0  T
   6    -13.1334225 -0.369599E-02  0.152E-01    0.13       1.0  T
   7    -13.1335858 -0.163298E-03  0.356E-02    0.13       1.1  T
   8    -13.1335732  0.125113E-04  0.553E-02    0.13       1.0  T
   9    -13.1335938 -0.205520E-04  0.110E-02    0.13       3.7  T
  10    -13.1335943 -0.522163E-06  0.619E-03    0.13       6.6  T
  11    -13.1335946 -0.264366E-06  0.675E-04    0.13      60.5  T
  12    -13.1335946  0.574812E-08  0.107E-03    0.13      38.3  T
     SCC iter.                  ...        0 min,  0.001 sec
     gradient                   ...        0 min,  0.000 sec
 * total energy  :   -13.0792148 Eh     change        0.1649948E-03 Eh
   gradient norm :     0.0458765 Eh/α   predicted    -0.1406222E-02 (-952.28%)
   displ. norm   :     0.1622015 α      lambda       -0.1628331E-02
   maximum displ.:     0.1231388 α      in ANC's #3, #2, #6, ...

........................................................................
.............................. CYCLE   13 ..............................
........................................................................
   1    -13.1392421 -0.131392E+02  0.427E-01    0.13       0.0  T
   2    -13.1264195  0.128226E-01  0.158E+00    0.15       1.0  T
   3    -12.7840435  0.342376E+00  0.681E+00    0.02       1.0  T
   4    -13.1371736 -0.353130E+00  0.678E-01    0.11       1.0  T
   5    -13.1368844  0.289229E-03  0.678E-01    0.11       1.0  T
   6    -13.1394172 -0.253289E-02  0.268E-01    0.12       1.0  T
   7    -13.1398577 -0.440452E-03  0.996E-02    0.13       1.0  T
   8    -13.1399270 -0.692777E-04  0.709E-03    0.13       5.8  T
   9    -13.1399262  0.757460E-06  0.125E-02    0.13       3.3  T
  10    -13.1399270 -0.834793E-06  0.551E-03    0.13       7.4  T
  11    -13.1399272 -0.183474E-06  0.187E-03    0.13      21.8  T
     SCC iter.                  ...        0 min,  0.001 sec
     gradient                   ...        0 min,  0.000 sec
 * total energy  :   -13.0800567 Eh     change       -0.8419123E-03 Eh
   gradient norm :     0.0133558 Eh/α   predicted    -0.8355878E-03 (  -0.75%)
   displ. norm   :     0.0479465 α      lambda       -0.1030604E-03
   maximum displ.:     0.0462701 α      in ANC's #2, #3, #1, ...

........................................................................
.............................. CYCLE   14 ..............................
........................................................................
   1    -13.1396104 -0.131396E+02  0.573E-02    0.13       0.0  T
   2    -13.1391735  0.436879E-03  0.238E-01    0.14       1.0  T
   3    -13.1391194  0.540574E-04  0.280E-01    0.12       1.0  T
   4    -13.1396066 -0.487127E-03  0.499E-02    0.13       1.0  T
   5    -13.1396158 -0.928146E-05  0.520E-03    0.13       7.9  T
   6    -13.1396158  0.517346E-07  0.403E-03    0.13      10.1  T
   7    -13.1396159 -0.954075E-07  0.373E-04    0.13     109.4  T
   8    -13.1396159 -0.385754E-10  0.251E-04    0.13     162.9  T
     SCC iter.                  ...        0 min,  0.001 sec
     gradient                   ...        0 min,  0.000 sec
 * total energy  :   -13.0800969 Eh     change       -0.4020263E-04 Eh
   gradient norm :     0.0025610 Eh/α   predicted    -0.5164759E-04 (  28.47%)
   displ. norm   :     0.0095846 α      lambda       -0.5691007E-05
   maximum displ.:     0.0091472 α      in ANC's #2, #1, #3, ...

........................................................................
.............................. CYCLE   15 ..............................
........................................................................
   1    -13.1396988 -0.131397E+02  0.159E-02    0.13       0.0  T
   2    -13.1391065  0.592309E-03  0.292E-01    0.14       1.0  T
   3    -13.1396999 -0.593429E-03  0.615E-03    0.13       6.6  T
   4    -13.1396972  0.266173E-05  0.184E-02    0.13       2.2  T
   5    -13.1396999 -0.266880E-05  0.252E-03    0.13      16.2  T
   6    -13.1396999 -0.267612E-07  0.874E-04    0.13      46.7  T
   7    -13.1396999 -0.386313E-08  0.755E-05    0.13     540.6  T
     SCC iter.                  ...        0 min,  0.000 sec
     gradient                   ...        0 min,  0.001 sec
 * total energy  :   -13.0801001 Eh     change       -0.3182511E-05 Eh
   gradient norm :     0.0005308 Eh/α   predicted    -0.2845926E-05 ( -10.58%)
   displ. norm   :     0.0037406 α      lambda       -0.4162206E-06
   maximum displ.:     0.0032775 α      in ANC's #1, #3, #2, ...

   *** GEOMETRY OPTIMIZATION CONVERGED AFTER 15 ITERATIONS ***

------------------------------------------------------------------------
 total energy gain   :       -15.9780427 Eh   -10026.3732 kcal/mol
 total RMSD          :         0.4021608 a0        0.2128 Å
 total power (kW/mol):     -2796.6896979 (step)********** (real)
------------------------------------------------------------------------

 ANCopt (total)                0 d,  0 h,  0 min,  0.264 sec
 optimizer setup                ...        0 min,  0.000 sec (  0.034%)
 model hessian                  ...        0 min,  0.000 sec (  0.045%)
 ANC generation                 ...        0 min,  0.000 sec (  0.035%)
 coordinate transformation      ...        0 min,  0.000 sec (  0.027%)
 single point calculation       ...        0 min,  0.262 sec ( 99.363%)
 optimization log               ...        0 min,  0.000 sec (  0.150%)
 hessian update                 ...        0 min,  0.000 sec (  0.019%)
 rational function              ...        0 min,  0.000 sec (  0.157%)

================
 final structure:
================
6
 xtb: 6.2.3 (830e466)
F        -3.44858877402296   -0.20255635093904    0.06681744648011
Cl        3.03876081639544    0.17363827405905   -0.04296930026326
C        -0.95434052045966   -0.05387088872477    0.01384303081855
H        -0.90525154984402   -0.63494016026973   -0.88152716558205
H        -0.88918400020241   -0.53481882962646    0.96524788842157
H        -0.98434597186691    1.01247795550068   -0.04271189987552
 
 Bond Distances (Angstroems)
 ---------------------------
C3-H4=1.0685         C3-H5=1.0680         C3-H6=1.0683         H4-C3=1.0685         H5-C3=1.0680         H6-C3=1.0683         
 C  H  Rav=1.0683 sigma=0.0002  Rmin=1.0680  Rmax=1.0685     3
 
 selected bond angles (degree)
 --------------------
H5-C3-H4=119.92                H6-C3-H4=119.98                H6-C3-H5=119.89                
 
 selected dihedral angles (degree)
 ---------------------------------

 
 CMA Distance (Angstroems)
 ---------------------------
R(CMA):  5.3097
           -------------------------------------------------
          |                Final Singlepoint                |
           -------------------------------------------------

          ...................................................
          :                      SETUP                      :
          :.................................................:
          :  # basis functions                  21          :
          :  # atomic orbitals                  20          :
          :  # shells                           10          :
          :  # electrons                        22          :
          :  max. iterations                   250          :
          :  Hamiltonian                  GFN2-xTB          :
          :  restarted?                      false          :
          :  GBSA solvation                  false          :
          :  PC potential                    false          :
          :  electronic temp.          300.0000000     K    :
          :  accuracy                    1.0000000          :
          :  -> integral cutoff          0.2500000E+02      :
          :  -> integral neglect         0.1000000E-07      :
          :  -> SCF convergence          0.1000000E-05 Eh   :
          :  -> wf. convergence          0.1000000E-03 e    :
          :  Broyden damping             0.4000000          :
          ...................................................

 iter      E             dE          RMSdq      gap      omega  full diag
   1    -13.1396999 -0.131397E+02  0.464E-05    0.13       0.0  T
   2    -13.1396999  0.696174E-08  0.100E-03    0.13      40.8  T
   3    -13.1396999 -0.672853E-08  0.188E-04    0.13     217.3  T

   *** convergence criteria satisfied after 3 iterations ***

         #    Occupation            Energy/Eh            Energy/eV
      -------------------------------------------------------------
         1        2.0000           -0.8440181             -22.9669
       ...           ...                  ...                  ...
         5        2.0000           -0.3751649             -10.2088
         6        2.0000           -0.2651930              -7.2163
         7        2.0000           -0.2546297              -6.9288
         8        2.0000           -0.2546296              -6.9288
         9        1.9423           -0.2276531              -6.1948
        10        1.9065           -0.2271772              -6.1818
        11        1.9065           -0.2271772              -6.1818 (HOMO)
        12        0.2448           -0.2224412              -6.0529 (LUMO)
        13                          0.2315781               6.3016
        14                          0.2659338               7.2364
        15                          0.2659791               7.2377
        16                          0.2659791               7.2377
       ...                                ...                  ...
        20                          0.3982915              10.8381
      -------------------------------------------------------------
                  HL-Gap            0.0047360 Eh            0.1289 eV
             Fermi-level           -0.2243129 Eh           -6.1039 eV

 SCC (total)                   0 d,  0 h,  0 min,  0.001 sec
 SCC setup                      ...        0 min,  0.000 sec (  3.237%)
 Dispersion                     ...        0 min,  0.000 sec (  0.481%)
 integral evaluation            ...        0 min,  0.001 sec ( 41.131%)
 zeroth order Hamiltonian       ...        0 min,  0.000 sec (  0.737%)
 iterations                     ...        0 min,  0.000 sec ( 15.462%)
 molecular gradient             ...        0 min,  0.001 sec ( 34.610%)
 printout                       ...        0 min,  0.000 sec (  3.028%)

         :::::::::::::::::::::::::::::::::::::::::::::::::::::
         ::                     SUMMARY                     ::
         :::::::::::::::::::::::::::::::::::::::::::::::::::::
         :: total energy             -13.080100067904 Eh    ::
         :: gradient norm              0.000529931364 Eh/a0 ::
         :: HOMO-LUMO gap              0.128871805556 eV    ::
         ::.................................................::
         :: SCC energy               -13.139699921583 Eh    ::
         :: -> isotropic ES            0.160505500292 Eh    ::
         :: -> anisotropic ES         -0.000737008540 Eh    ::
         :: -> anisotropic XC          0.006047490611 Eh    ::
         :: -> dispersion             -0.001411651436 Eh    ::
         :: repulsion energy           0.059582885343 Eh    ::
         :: add. restraining           0.000020776388 Eh    ::
         :::::::::::::::::::::::::::::::::::::::::::::::::::::

           -------------------------------------------------
          |                Property Printout                |
           -------------------------------------------------

    * Orbital Energies and Occupations

         #    Occupation            Energy/Eh            Energy/eV
      -------------------------------------------------------------
         1        2.0000           -0.8440181             -22.9669
         2        2.0000           -0.5418890             -14.7455
         3        2.0000           -0.4723685             -12.8538
         4        2.0000           -0.3753013             -10.2125
         5        2.0000           -0.3751649             -10.2088
         6        2.0000           -0.2651930              -7.2163
         7        2.0000           -0.2546297              -6.9288
         8        2.0000           -0.2546296              -6.9288
         9        1.9423           -0.2276531              -6.1948
        10        1.9065           -0.2271772              -6.1818
        11        1.9065           -0.2271772              -6.1818 (HOMO)
        12        0.2448           -0.2224412              -6.0529 (LUMO)
        13                          0.2315781               6.3016
        14                          0.2659338               7.2364
        15                          0.2659791               7.2377
        16                          0.2659791               7.2377
        17                          0.2661527               7.2424
        18                          0.2661527               7.2424
        19                          0.3981497              10.8342
        20                          0.3982915              10.8381
      -------------------------------------------------------------
                  HL-Gap            0.0047360 Eh            0.1289 eV
             Fermi-level           -0.2243129 Eh           -6.1039 eV

     #   Z        covCN         q      C6AA      α(0)
     1   9 F      0.000    -0.522    15.653     4.608
     2  17 Cl     0.000    -0.697   115.192    16.334
     3   6 C      2.780    -0.054    29.327     8.870
     4   1 H      0.927     0.091     1.869     2.138
     5   1 H      0.927     0.092     1.864     2.135
     6   1 H      0.927     0.091     1.869     2.138

 Mol. C6AA /au·bohr⁶  :        579.217449
 Mol. C8AA /au·bohr⁸  :      16508.640691
 Mol. α(0) /au        :         36.223329


Wiberg/Mayer (AO) data.
largest (>0.10) Wiberg bond orders for each atom
          total WBO             WBO to atom ...
     1  F   0.582        C    3 0.582
     2  Cl  0.069
     3  C   3.622        H    6 0.990    H    4 0.990    H    5 0.990    F    1 0.582
     4  H   0.992        C    3 0.990
     5  H   0.992        C    3 0.990
     6  H   0.992        C    3 0.990

molecular dipole:
                 x           y           z       tot (Debye)
 q only:       -0.978      -0.051      -0.003
   full:       -0.953      -0.049      -0.003       2.425
molecular quadrupole (traceless):
                xx          xy          yy          xz          yz          zz
 q only:      -44.978      -3.912      22.385       1.125       0.065      22.593
  q+dip:      -46.164      -4.010      22.976       1.148       0.068      23.189
   full:      -45.358      -3.945      22.574       1.134       0.066      22.784

           -------------------------------------------------
          |                Geometry Summary                 |
           -------------------------------------------------

      molecular mass/u    :       69.4858989
   center of mass at/Å    :        0.4022707       0.0216185      -0.0006672
  moments of inertia/u·Å² :        0.3449834E+01   0.5593421E+03   0.5593440E+03
rotational constants/cm⁻¹ :        0.4886506E+01   0.3013832E-01   0.3013822E-01

 * 3 selected distances

     #   Z        #   Z                                     value/Å
     3   6 C      4   1 H                                 1.0685219 (max)
     3   6 C      5   1 H                                 1.0680485 (min)
     3   6 C      6   1 H                                 1.0682690

 * 1 distinct bonds (by element types)

   Z      Z             #   av. dist./Å        max./Å        min./Å
   1 H    6 C           3     1.0682798     1.0685219     1.0680485


optimized geometry written to: xtbopt.xyz


           -------------------------------------------------
          | TOTAL ENERGY              -13.080100067904 Eh   |
          | GRADIENT NORM               0.000529931364 Eh/α |
          | HOMO-LUMO GAP               0.128871805556 eV   |
           -------------------------------------------------
########################################################################
[WARNING] Runtime exception occurred
-2- scf: Self consistent charge iterator did not converge
-1- scf: Self consistent charge iterator did not converge
########################################################################

------------------------------------------------------------------------
 * finished run on 2020/04/08 at 23:04:06.651     
------------------------------------------------------------------------
 total:
 * wall-time:     0 d,  0 h,  0 min,  0.300 sec
 *  cpu-time:     0 d,  0 h,  0 min,  0.300 sec
 * ratio c/w:     1.000 speedup
 SCF:
 * wall-time:     0 d,  0 h,  0 min,  0.020 sec
 *  cpu-time:     0 d,  0 h,  0 min,  0.020 sec
 * ratio c/w:     1.000 speedup
 ANC optimizer:
 * wall-time:     0 d,  0 h,  0 min,  0.266 sec
 *  cpu-time:     0 d,  0 h,  0 min,  0.266 sec
 * ratio c/w:     1.000 speedup

