      -----------------------------------------------------------      
     |                   =====================                   |     
     |                           x T B                           |     
     |                   =====================                   |     
     |                         S. Grimme                         |     
     |          Mulliken Center for Theoretical Chemistry        |     
     |                    University of Bonn                     |     
      -----------------------------------------------------------      

   * xtb version 6.2.3 (830e466) compiled by 'ehlert@majestix' on 2020-03-16

   xtb is free software: you can redistribute it and/or modify it under
   the terms of the GNU Lesser General Public License as published by
   the Free Software Foundation, either version 3 of the License, or
   (at your option) any later version.
   
   xtb is distributed in the hope that it will be useful,
   but WITHOUT ANY WARRANTY; without even the implied warranty of
   MERCHANTABILITY or FITNESS FOR A PARTICULAR PURPOSE.  See the
   GNU Lesser General Public License for more details.
   
   Cite this work as:
   * S. Grimme, C. Bannwarth, P. Shushkov, J. Chem. Theory Comput., 2017,
     13, 1989-2009. DOI: 10.1021/acs.jctc.7b00118
   * C. Bannwarth, S. Ehlert and S. Grimme., J. Chem. Theory Comput., 2019,
     15, 1652-1671. DOI: 10.1021/acs.jctc.8b01176
   * P. Pracht, E. Caldeweyher, S. Ehlert, S. Grimme, ChemRxiv, 2019, preprint.
     DOI: 10.26434/chemrxiv.8326202.v1
   
   for DFT-D4:
   * E. Caldeweyher, C. Bannwarth and S. Grimme, J. Chem. Phys., 2017,
     147, 034112. DOI: 10.1063/1.4993215
   * E. Caldeweyher, S. Ehlert, A. Hansen, H. Neugebauer, S. Spicher,
     C. Bannwarth and S. Grimme, J. Chem. Phys., 2019, 150, 154122.
     DOI: 10.1063/1.5090222
   
   for sTDA-xTB:
   * S. Grimme and C. Bannwarth, J. Chem. Phys., 2016, 145, 054103.
     DOI: 10.1063/1.4959605
   
   in the mass-spec context:
   * V. Asgeirsson, C. Bauer and S. Grimme, Chem. Sci., 2017, 8, 4879.
     DOI: 10.1039/c7sc00601b
   
   for metadynamics refer to:
   * S. Grimme, J. Chem. Theory Comput., 2019, 155, 2847-2862
     DOI: 10.1021/acs.jctc.9b00143
   
   with help from (in alphabetical order)
   C. Bannwarth, F. Bohle, G. Brandenburg, E. Caldeweyher, M. Checinski,
   S. Dohm, S. Ehlert, S. Ehrlich, F. März, H. Neugebauer, J. Pisarek,
   P. Pracht, P. Shushkov, and S. Spicher.
   
 * started run on 2020/04/08 at 13:05:32.626     

           -------------------------------------------------
          |                Calculation Setup                |
           -------------------------------------------------

          program call               : /home/tom/.local/bin/xtb SN2_PES_scan_2-0_xtb.xyz --chrg -1 --opt --input xcontrol_SN2_PES_scan_2-0
          coordinate file            : SN2_PES_scan_2-0_xtb.xyz
          omp threads                :                     2
          number of atoms            :                     6
          number of electrons        :                    22
          charge                     :                    -1
          spin                       :                   0.0
          first test random number   :      0.39472320980927

constraining bond 1 3 to    3.0000000 Å, actual value:    3.4999119 Å
constraining bond 2 3 to    1.7800000 Å, actual value:    1.7800285 Å

molecular fragmentation (1/2 indicates fragments):
122222
# atoms in fragment 1/2:     1     5
 fragment masses (1/2) :       19.00       50.49
CMA distance (Bohr)    :   8.936
constraining FC (au)   : 10.0000
########################################################################
[WARNING] Please study the warnings concerning your input carefully
-2- prog_main: XTBPATH is not set, using XTBHOME instead
-1- prog_main: XTBHOME is not set, using HOME instead
########################################################################
           ------------------------------------------------- 
          |                 G F N 2 - x T B                 |
          | Geometry, Frequencies, Noncovalent interactions |
          |            JCTC 2019 parametrisation            |
           ------------------------------------------------- 
             k(s)              :                1.8500
             k(p)              :                2.2300
             k(d)              :                2.2300
             k(f)              :                2.0000
             kEN (H0ij)        :               -2.0000
             D4 a1             :                0.5200
             D4 a2             :                5.0000
             D4 s6             :                1.0000
             D4 s8             :                2.7000
             D4 s9             :                5.0000
             alphaj            :                2.0000

  Z AO/shell   Hii/eV     exponent
  1     Wed Apr 25 08:07:45 CEST 2018   EN: 2.200 GM2: 0.406  GM3: 0.0800  RAES: 1.40
     1s    -10.707211    1.230000
  6     Wed Apr 25 08:07:45 CEST 2018   EN: 2.550 GM2: 0.538  GM3: 0.1500  RAES: 3.00
     2s    -13.970922    2.096432
     2p    -10.063292    1.800000
  9     Mon Apr 23 13:58:50 CEST 2018   EN: 3.980 GM2: 0.532  GM3: 0.1426  RAES: 2.40
     2s    -23.458179    2.416361
     2p    -15.746583    2.308399
 17     Mon Apr 23 14:09:22 CEST 2018   EN: 3.160 GM2: 0.249  GM3: 0.1495  RAES: 2.50
     3s    -29.278781    2.485265
     3p    -12.673758    2.199650
     3d     -0.240338    2.476089

           ------------------------------------------------- 
          |        Self-Consistent Charge Iterations        |
           ------------------------------------------------- 

          ...................................................
          :                      SETUP                      :
          :.................................................:
          :  # basis functions                  21          :
          :  # atomic orbitals                  20          :
          :  # shells                           10          :
          :  # electrons                        22          :
          :  max. iterations                   250          :
          :  Hamiltonian                  GFN2-xTB          :
          :  restarted?                      false          :
          :  GBSA solvation                  false          :
          :  PC potential                    false          :
          :  electronic temp.          300.0000000     K    :
          :  accuracy                    1.0000000          :
          :  -> integral cutoff          0.2500000E+02      :
          :  -> integral neglect         0.1000000E-07      :
          :  -> SCF convergence          0.1000000E-05 Eh   :
          :  -> wf. convergence          0.1000000E-03 e    :
          :  Broyden damping             0.4000000          :
          ...................................................

 iter      E             dE          RMSdq      gap      omega  full diag
   1    -13.1262358 -0.131262E+02  0.571E+00    5.36       0.0  T
   2    -13.1889323 -0.626965E-01  0.323E+00    2.32       1.0  T
   3    -13.1900327 -0.110047E-02  0.174E+00    1.35       1.0  T
   4    -12.5932396  0.596793E+00  0.688E+00    0.03       1.0  T
   5    -11.8658096  0.727430E+00  0.101E+01    0.00       1.0  T
   6    -11.8923565 -0.265469E-01  0.993E+00    0.00       1.0  T
   7    -11.8774705  0.148860E-01  0.999E+00    0.00       1.0  T
   8    -13.1038799 -0.122641E+01  0.282E+00    0.08       1.0  T
   9    -11.8465835  0.125730E+01  0.103E+01    0.00       1.0  T
  10    -11.8354721  0.111114E-01  0.108E+01    0.00       1.0  T
  11    -11.8412970 -0.582482E-02  0.105E+01    0.00       1.0  T
  12    -11.8543800 -0.130830E-01  0.101E+01    0.00       1.0  T
  13    -13.1904357 -0.133606E+01  0.531E+00    0.84       1.0  T
  14    -13.1905114 -0.756983E-04  0.609E+00    0.66       1.0  T
  15    -13.1878777  0.263376E-02  0.232E+00    3.28       1.0  T
  16    -13.1867005  0.117714E-02  0.180E+00    3.99       1.0  T
  17    -13.1867293 -0.287839E-04  0.179E+00    3.98       1.0  T
  18    -13.1861403  0.589071E-03  0.164E+00    4.22       1.0  T
  19    -13.1861968 -0.565920E-04  0.162E+00    4.19       1.0  T
  20    -13.1867056 -0.508775E-03  0.153E+00    3.91       1.0  T
  21    -13.1868513 -0.145727E-03  0.150E+00    3.83       1.0  T
  22    -13.1875896 -0.738222E-03  0.132E+00    3.39       1.0  T
  23    -13.1887412 -0.115164E-02  0.102E+00    2.59       1.0  T
  24    -13.1897550 -0.101382E-02  0.657E-01    1.64       1.0  T
  25    -13.1903127 -0.557724E-03  0.376E-01    0.92       1.0  T
  26    -13.1905991 -0.286382E-03  0.222E-01    0.53       1.0  T
  27    -13.1908305 -0.231410E-03  0.114E-01    0.34       1.0  T
  28    -13.1908732 -0.426149E-04  0.788E-02    0.32       1.0  T
  29    -13.1908946 -0.214783E-04  0.236E-02    0.30       1.7  T
  30    -13.1908981 -0.342957E-05  0.829E-03    0.28       4.9  T
  31    -13.1908951  0.300763E-05  0.190E-02    0.30       2.2  T
  32    -13.1908928  0.228293E-05  0.245E-02    0.28       1.7  T
  33    -13.1908963 -0.351311E-05  0.152E-02    0.30       2.7  T
  34    -13.1908976 -0.133936E-05  0.101E-02    0.28       4.0  T
  35    -13.1908985 -0.868072E-06  0.356E-03    0.29      11.5  T
  36    -13.1908986 -0.980721E-07  0.179E-03    0.29      22.8  T
  37    -13.1908986  0.222678E-07  0.237E-03    0.29      17.2  T
  38    -13.1908986 -0.457041E-07  0.925E-04    0.29      44.1  T
  39    -13.1908986 -0.791417E-08  0.272E-05    0.29    1502.0  T

   *** convergence criteria satisfied after 39 iterations ***

         #    Occupation            Energy/Eh            Energy/eV
      -------------------------------------------------------------
         1        2.0000           -0.9439494             -25.6862
       ...           ...                  ...                  ...
         5        2.0000           -0.3802840             -10.3481
         6        2.0000           -0.3165065              -8.6126
         7        2.0000           -0.3030340              -8.2460
         8        2.0000           -0.3030246              -8.2457
         9        1.9972           -0.0574176              -1.5624
        10        1.9953           -0.0569327              -1.5492
        11        1.9953           -0.0569324              -1.5492 (HOMO)
        12        0.0122           -0.0463434              -1.2611 (LUMO)
        13                          0.1350553               3.6750
        14                          0.1350596               3.6752
        15                          0.1390295               3.7832
        16                          0.1390324               3.7833
       ...                                ...                  ...
        20                          0.3399544               9.2506
      -------------------------------------------------------------
                  HL-Gap            0.0105890 Eh            0.2881 eV
             Fermi-level           -0.0511822 Eh           -1.3927 eV

 SCC (total)                   0 d,  0 h,  0 min,  0.033 sec
 SCC setup                      ...        0 min,  0.000 sec (  0.252%)
 Dispersion                     ...        0 min,  0.000 sec (  0.100%)
 integral evaluation            ...        0 min,  0.001 sec (  2.450%)
 zeroth order Hamiltonian       ...        0 min,  0.000 sec (  0.206%)
 iterations                     ...        0 min,  0.029 sec ( 88.303%)
 molecular gradient             ...        0 min,  0.003 sec (  7.788%)
 printout                       ...        0 min,  0.000 sec (  0.224%)

         :::::::::::::::::::::::::::::::::::::::::::::::::::::
         ::                     SUMMARY                     ::
         :::::::::::::::::::::::::::::::::::::::::::::::::::::
         :: total energy              -4.209567149835 Eh    ::
         :: gradient norm             26.724957981728 Eh/a0 ::
         :: HOMO-LUMO gap              0.288140785058 eV    ::
         ::.................................................::
         :: SCC energy               -13.190898619478 Eh    ::
         :: -> isotropic ES            0.269481174834 Eh    ::
         :: -> anisotropic ES         -0.001123963925 Eh    ::
         :: -> anisotropic XC          0.000692154561 Eh    ::
         :: -> dispersion             -0.001762689472 Eh    ::
         :: repulsion energy           0.056818978472 Eh    ::
         :: add. restraining           8.924513487325 Eh    ::
         :::::::::::::::::::::::::::::::::::::::::::::::::::::

      ----------------------------------------------------------- 
     |                   =====================                   |
     |                        A N C O P T                        |
     |                   =====================                   |
     |               Approximate Normal Coordinate               |
     |                Rational Function Optimizer                |
      ----------------------------------------------------------- 

          ...................................................
          :                      SETUP                      :
          :.................................................:
          :   optimization level            normal          :
          :   max. optcycles                   200          :
          :   ANC micro-cycles                  20          :
          :   degrees of freedom                12          :
          :.................................................:
          :   RF solver                   davidson          :
          :   write xtbopt.log                true          :
          :   linear?                        false          :
          :   energy convergence         0.5000000E-05 Eh   :
          :   grad. convergence          0.1000000E-02 Eh/α :
          :   maximium RF displ.         1.0000000          :
          :   Hlow (freq-cutoff)         0.1000000E-01      :
          :   Hmax (freq-cutoff)         5.0000000          :
          :   S6 in model hess.         20.0000000          :
          ...................................................

generating ANC from model Hessian ...
Using Lindh-Hessian (1995)
 Shifting diagonal of input Hessian by   0.000000000000000E+000
 Lowest  eigenvalues of input Hessian
   -0.000000   -0.000000    0.000000    0.000000    0.000000    0.000000
    0.061752    0.061753    0.104857    0.104869    0.123897    0.474107
    0.474113    0.479966    4.210501    4.210585   20.210421   60.866109
 Highest eigenvalues
    0.474113    0.479966    4.210501    4.210585   20.210421   60.866109
 

........................................................................
.............................. CYCLE    1 ..............................
........................................................................
   1    -13.1908986 -0.131909E+02  0.171E-05    0.29       0.0  T
   2    -13.1908986  0.621903E-11  0.293E-05    0.29    1394.0  T
   3    -13.1908986 -0.912337E-11  0.124E-06    0.29   33051.9  T
     SCC iter.                  ...        0 min,  0.009 sec
     gradient                   ...        0 min,  0.003 sec
 * total energy  :    -4.2095671 Eh     change        0.4125482E-09 Eh
   gradient norm :    26.7249573 Eh/α   predicted     0.0000000E+00 (-100.00%)
   displ. norm   :     0.9108219 α      lambda       -0.2434167E+02
   maximum displ.:     0.7845976 α      in ANC's #11, #12, #8, ...

........................................................................
.............................. CYCLE    2 ..............................
........................................................................
   1    -12.1495131 -0.121495E+02  0.103E+01    0.01       0.0  T
   2    -12.9724346 -0.822921E+00  0.738E+00    5.99       1.0  T
   3    -13.1538531 -0.181419E+00  0.351E+00    4.20       1.0  T
   4    -13.1712066 -0.173535E-01  0.246E+00    3.52       1.0  T
   5    -12.5326142  0.638592E+00  0.836E+00    0.10       1.0  T
   6    -12.6999342 -0.167320E+00  0.743E+00    0.13       1.0  T
   7    -13.1719224 -0.471988E+00  0.220E+00    2.86       1.0  T
   8    -13.1710209  0.901491E-03  0.243E+00    3.80       1.0  T
   9    -13.1699468  0.107410E-02  0.232E+00    3.30       1.0  T
  10    -13.1664966  0.345024E-02  0.289E+00    4.12       1.0  T
  11    -13.1646950  0.180161E-02  0.310E+00    4.16       1.0  T
  12    -13.1700601 -0.536507E-02  0.241E+00    3.72       1.0  T
  13    -13.1746412 -0.458112E-02  0.208E+00    2.74       1.0  T
  14    -13.1765697 -0.192851E-02  0.195E+00    2.36       1.0  T
  15    -13.1788616 -0.229188E-02  0.176E+00    1.96       1.0  T
  16    -13.1804831 -0.162148E-02  0.163E+00    1.73       1.0  T
  17    -13.1879408 -0.745777E-02  0.113E+00    1.07       1.0  T
  18    -13.1883747 -0.433877E-03  0.111E+00    1.05       1.0  T
  19    -12.9332112  0.255164E+00  0.557E+00    0.19       1.0  T
  20    -13.1696733 -0.236462E+00  0.298E+00    4.06       1.0  T
  21    -13.1774804 -0.780714E-02  0.210E+00    2.26       1.0  T
  22    -13.1892625 -0.117821E-01  0.110E+00    1.00       1.0  T
  23    -13.0311200  0.158142E+00  0.449E+00    0.22       1.0  T
  24    -13.1720667 -0.140947E+00  0.276E+00    3.55       1.0  T
  25    -13.1834362 -0.113695E-01  0.155E+00    1.41       1.0  T
  26    -13.1892832 -0.584700E-02  0.116E+00    0.41       1.0  T
  27    -13.1916250 -0.234182E-02  0.105E+00    0.90       1.0  T
  28    -13.1813418  0.102833E-01  0.151E+00    0.37       1.0  T
  29    -13.1869118 -0.556998E-02  0.140E+00    1.15       1.0  T
  30    -13.1983096 -0.113978E-01  0.217E-01    0.53       1.0  T
  31    -13.1963623  0.194729E-02  0.534E-01    0.47       1.0  T
  32    -13.1961840  0.178292E-03  0.587E-01    0.70       1.0  T
  33    -13.1961396  0.444284E-04  0.572E-01    0.47       1.0  T
  34    -13.1963139 -0.174331E-03  0.568E-01    0.70       1.0  T
  35    -13.1968748 -0.560864E-03  0.477E-01    0.48       1.0  T
  36    -13.1972992 -0.424440E-03  0.420E-01    0.65       1.0  T
  37    -13.1976002 -0.301029E-03  0.358E-01    0.50       1.0  T
  38    -13.1979152 -0.315005E-03  0.295E-01    0.62       1.0  T
  39    -13.1981247 -0.209466E-03  0.236E-01    0.52       1.0  T
  40    -13.1982993 -0.174596E-03  0.179E-01    0.59       1.0  T
  41    -13.1983966 -0.972638E-04  0.134E-01    0.53       1.0  T
  42    -13.1984633 -0.667526E-04  0.941E-02    0.58       1.0  T
  43    -13.1984962 -0.328487E-04  0.648E-02    0.55       1.0  T
  44    -13.1985136 -0.174129E-04  0.422E-02    0.57       1.0  T
  45    -13.1985213 -0.772132E-05  0.264E-02    0.55       1.5  T
  46    -13.1985246 -0.329415E-05  0.154E-02    0.56       2.6  T
  47    -13.1985260 -0.136716E-05  0.678E-03    0.56       6.0  T
  48    -13.1985263 -0.307530E-06  0.177E-03    0.56      23.0  T
  49    -13.1985263 -0.221270E-07  0.154E-04    0.56     264.5  T
     SCC iter.                  ...        0 min,  0.016 sec
     gradient                   ...        0 min,  0.000 sec
 * total energy  :    -7.7884853 Eh     change       -0.3578918E+01 Eh
   gradient norm :    24.5900765 Eh/α   predicted    -0.2226772E+02 ( 522.19%)
   displ. norm   :     0.6003393 α      lambda       -0.1187471E+02
   maximum displ.:     0.4312080 α      in ANC's #12, #11, #8, ...

........................................................................
.............................. CYCLE    3 ..............................
........................................................................
   1    -13.1955855 -0.131956E+02  0.207E+00    5.31       0.0  T
   2    -13.1982600 -0.267454E-02  0.139E+00    3.52       1.0  T
   3    -13.1996931 -0.143307E-02  0.627E-01    1.64       1.0  T
   4    -13.2000619 -0.368805E-03  0.462E-01    1.33       1.0  T
   5    -13.2004959 -0.433953E-03  0.270E-01    1.35       1.0  T
   6    -13.2007146 -0.218721E-03  0.135E-01    1.16       1.0  T
   7    -13.2007662 -0.516383E-04  0.238E-02    1.32       1.7  T
   8    -13.2007671 -0.903952E-06  0.442E-03    1.28       9.2  T
   9    -13.2007672 -0.713557E-07  0.916E-04    1.29      44.6  T
     SCC iter.                  ...        0 min,  0.001 sec
     gradient                   ...        0 min,  0.000 sec
 * total energy  :   -12.6235419 Eh     change       -0.4835057E+01 Eh
   gradient norm :     4.5377152 Eh/α   predicted    -0.8077224E+01 (  67.06%)
   displ. norm   :     0.4010530 α      lambda       -0.1736730E+01
   maximum displ.:     0.3954645 α      in ANC's #12, #11, #8, ...

........................................................................
.............................. CYCLE    4 ..............................
........................................................................
   1    -12.3745070 -0.123745E+02  0.789E+00    0.04       0.0  T
   2    -13.1261124 -0.751605E+00  0.468E+00    7.25       1.0  T
   3    -13.1882927 -0.621803E-01  0.262E+00    6.69       1.0  T
   4    -13.1928676 -0.457489E-02  0.198E+00    5.33       1.0  T
   5    -13.1961448 -0.327722E-02  0.137E+00    3.51       1.0  T
   6    -13.1972833 -0.113849E-02  0.109E+00    2.72       1.0  T
   7    -13.1993262 -0.204286E-02  0.510E-01    1.28       1.0  T
   8    -13.1994294 -0.103212E-03  0.376E-01    0.37       1.0  T
   9    -13.1969600  0.246942E-02  0.655E-01    0.30       1.0  T
  10    -13.1999365 -0.297653E-02  0.266E-01    0.41       1.0  T
  11    -13.1845794  0.153570E-01  0.129E+00    0.22       1.0  T
  12    -13.1976339 -0.130545E-01  0.575E-01    0.31       1.0  T
  13    -13.1972022  0.431766E-03  0.611E-01    0.31       1.0  T
  14    -13.1969858  0.216422E-03  0.630E-01    0.30       1.0  T
  15    -13.1959917  0.994034E-03  0.710E-01    0.29       1.0  T
  16    -13.1972402 -0.124848E-02  0.607E-01    0.31       1.0  T
  17    -13.1988650 -0.162476E-02  0.430E-01    0.35       1.0  T
  18    -13.1999399 -0.107493E-02  0.243E-01    0.41       1.0  T
  19    -13.2003001 -0.360223E-03  0.124E-01    0.47       1.0  T
  20    -13.2003719 -0.717474E-04  0.801E-02    0.50       1.0  T
  21    -13.2003905 -0.186042E-04  0.640E-02    0.51       1.0  T
  22    -13.2004155 -0.250032E-04  0.309E-02    0.53       1.3  T
  23    -13.2004185 -0.297813E-05  0.234E-02    0.54       1.7  T
  24    -13.2004195 -0.100481E-05  0.196E-02    0.54       2.1  T
  25    -13.2004217 -0.223597E-05  0.745E-03    0.55       5.5  T
  26    -13.2004220 -0.355288E-06  0.226E-03    0.56      18.0  T
  27    -13.2004221 -0.340407E-07  0.142E-04    0.56     287.8  T
     SCC iter.                  ...        0 min,  0.002 sec
     gradient                   ...        0 min,  0.000 sec
 * total energy  :   -12.6854729 Eh     change       -0.6193100E-01 Eh
   gradient norm :     5.4433849 Eh/α   predicted    -0.1008036E+01 (1527.68%)
   displ. norm   :     0.1836676 α      lambda       -0.8764189E+00
   maximum displ.:     0.1629948 α      in ANC's #12, #11, #8, ...

........................................................................
.............................. CYCLE    5 ..............................
........................................................................
   1    -13.1993443 -0.131993E+02  0.154E-01    0.81       0.0  T
   2    -13.1993905 -0.462626E-04  0.964E-02    0.75       1.0  T
   3    -13.1993971 -0.654546E-05  0.645E-02    0.76       1.0  T
   4    -13.1994020 -0.487084E-05  0.323E-02    0.76       1.3  T
   5    -13.1994047 -0.273410E-05  0.175E-02    0.76       2.3  T
   6    -13.1994058 -0.111943E-05  0.469E-03    0.75       8.7  T
   7    -13.1994058 -0.303442E-07  0.246E-04    0.75     165.6  T
     SCC iter.                  ...        0 min,  0.001 sec
     gradient                   ...        0 min,  0.000 sec
 * total energy  :   -13.1303494 Eh     change       -0.4448765E+00 Eh
   gradient norm :     0.3370185 Eh/α   predicted    -0.4529918E+00 (   1.82%)
   displ. norm   :     0.2123813 α      lambda       -0.1165907E-01
   maximum displ.:     0.1973332 α      in ANC's #5, #8, #12, ...

........................................................................
.............................. CYCLE    6 ..............................
........................................................................
   1    -13.1995755 -0.131996E+02  0.291E-01    0.90       0.0  T
   2    -13.1996365 -0.610252E-04  0.181E-01    0.84       1.0  T
   3    -13.1996414 -0.490098E-05  0.686E-02    0.80       1.0  T
   4    -13.1996443 -0.285502E-05  0.302E-02    0.82       1.4  T
   5    -13.1996454 -0.111597E-05  0.226E-02    0.82       1.8  T
   6    -13.1996472 -0.180604E-05  0.632E-03    0.82       6.5  T
   7    -13.1996472 -0.449748E-07  0.360E-03    0.83      11.3  T
   8    -13.1996473 -0.670644E-07  0.271E-04    0.82     150.7  T
     SCC iter.                  ...        0 min,  0.001 sec
     gradient                   ...        0 min,  0.000 sec
 * total energy  :   -13.1376193 Eh     change       -0.7269896E-02 Eh
   gradient norm :     0.0547129 Eh/α   predicted    -0.6092496E-02 ( -16.20%)
   displ. norm   :     0.1244965 α      lambda       -0.1986515E-02
   maximum displ.:     0.1138166 α      in ANC's #5, #8, #7, ...

........................................................................
.............................. CYCLE    7 ..............................
........................................................................
   1    -13.1954881 -0.131955E+02  0.163E-01    0.83       0.0  T
   2    -13.1955080 -0.198898E-04  0.112E-01    0.84       1.0  T
   3    -13.1955102 -0.225190E-05  0.539E-02    0.83       1.0  T
   4    -13.1955122 -0.198922E-05  0.212E-02    0.84       1.9  T
   5    -13.1955128 -0.603763E-06  0.168E-02    0.84       2.4  T
   6    -13.1955138 -0.100416E-05  0.526E-03    0.84       7.8  T
   7    -13.1955139 -0.719256E-07  0.180E-04    0.84     227.1  T
     SCC iter.                  ...        0 min,  0.001 sec
     gradient                   ...        0 min,  0.000 sec
 * total energy  :   -13.1385857 Eh     change       -0.9663791E-03 Eh
   gradient norm :     0.0226716 Eh/α   predicted    -0.1008646E-02 (   4.37%)
   displ. norm   :     0.0067063 α      lambda       -0.2006183E-04
   maximum displ.:     0.0063657 α      in ANC's #5, #8, #12, ...

........................................................................
.............................. CYCLE    8 ..............................
........................................................................
   1    -13.1957052 -0.131957E+02  0.891E-03    0.84       0.0  T
   2    -13.1957053 -0.713665E-07  0.559E-03    0.84       7.3  T
   3    -13.1957053 -0.358541E-08  0.246E-03    0.84      16.6  T
     SCC iter.                  ...        0 min,  0.004 sec
     gradient                   ...        0 min,  0.000 sec
 * total energy  :   -13.1385960 Eh     change       -0.1034119E-04 Eh
   gradient norm :     0.0011731 Eh/α   predicted    -0.1003272E-04 (  -2.98%)
   displ. norm   :     0.0003915 α      lambda       -0.7934459E-07
   maximum displ.:     0.0003415 α      in ANC's #8, #1, #2, ...

........................................................................
.............................. CYCLE    9 ..............................
........................................................................
   1    -13.1956610 -0.131957E+02  0.626E-04    0.84       0.0  T
   2    -13.1956610 -0.543270E-09  0.459E-04    0.84      89.0  T
   3    -13.1956610 -0.158728E-09  0.330E-04    0.84     123.8  T
     SCC iter.                  ...        0 min,  0.000 sec
     gradient                   ...        0 min,  0.000 sec
 * total energy  :   -13.1385961 Eh     change       -0.6607095E-07 Eh
   gradient norm :     0.0006058 Eh/α   predicted    -0.3812361E-07 ( -42.30%)
   displ. norm   :     0.0001140 α      lambda       -0.1105331E-07
   maximum displ.:     0.0000929 α      in ANC's #8, #5, #1, ...

   *** GEOMETRY OPTIMIZATION CONVERGED AFTER 9 ITERATIONS ***

------------------------------------------------------------------------
 total energy gain   :        -8.9290289 Eh    -5603.0502 kcal/mol
 total RMSD          :         0.3544195 a0        0.1876 Å
 total power (kW/mol):     -2604.7958036 (step)********** (real)
------------------------------------------------------------------------

 ANCopt (total)                0 d,  0 h,  0 min,  0.054 sec
 optimizer setup                ...        0 min,  0.000 sec (  0.102%)
 model hessian                  ...        0 min,  0.000 sec (  0.831%)
 ANC generation                 ...        0 min,  0.000 sec (  0.409%)
 coordinate transformation      ...        0 min,  0.000 sec (  0.080%)
 single point calculation       ...        0 min,  0.052 sec ( 97.001%)
 optimization log               ...        0 min,  0.000 sec (  0.446%)
 hessian update                 ...        0 min,  0.000 sec (  0.065%)
 rational function              ...        0 min,  0.000 sec (  0.521%)

================
 final structure:
================
6
 xtb: 6.2.3 (830e466)
F        -3.30421202260869   -0.19209111159732    0.06207908244890
Cl        1.46672811125525    0.08780073063547   -0.02245893616026
C        -0.30994779699203   -0.01805946939593    0.00559183464690
H        -0.64519301087089   -0.59718656671294   -0.84667379832631
H        -0.62338366841363   -0.50142717190721    0.92333267168636
H        -0.72690161237000    0.98089358897792   -0.04316085429559
 
 Bond Distances (Angstroems)
 ---------------------------
Cl2-C3=1.7800        C3-Cl2=1.7800        C3-H4=1.0836         C3-H5=1.0836         C3-H6=1.0836         H4-C3=1.0836         
H5-C3=1.0836         H6-C3=1.0836         
 C  H  Rav=1.0836 sigma=0.0000  Rmin=1.0836  Rmax=1.0836     3
 Cl C  Rav=1.7800 sigma=0.0000  Rmin=1.7800  Rmax=1.7800     1
 
 selected bond angles (degree)
 --------------------
H4-C3-Cl2=109.16               H5-C3-Cl2=109.18               H5-C3-H4=109.77                H6-C3-Cl2=109.18               
H6-C3-H4=109.77                H6-C3-H5=109.76                
 
 selected dihedral angles (degree)
 ---------------------------------

 
 CMA Distance (Angstroems)
 ---------------------------
R(CMA):  4.2285
           -------------------------------------------------
          |                Final Singlepoint                |
           -------------------------------------------------

          ...................................................
          :                      SETUP                      :
          :.................................................:
          :  # basis functions                  21          :
          :  # atomic orbitals                  20          :
          :  # shells                           10          :
          :  # electrons                        22          :
          :  max. iterations                   250          :
          :  Hamiltonian                  GFN2-xTB          :
          :  restarted?                      false          :
          :  GBSA solvation                  false          :
          :  PC potential                    false          :
          :  electronic temp.          300.0000000     K    :
          :  accuracy                    1.0000000          :
          :  -> integral cutoff          0.2500000E+02      :
          :  -> integral neglect         0.1000000E-07      :
          :  -> SCF convergence          0.1000000E-05 Eh   :
          :  -> wf. convergence          0.1000000E-03 e    :
          :  Broyden damping             0.4000000          :
          ...................................................

 iter      E             dE          RMSdq      gap      omega  full diag
   1    -13.1956610 -0.131957E+02  0.211E-04    0.84       0.0  T
   2    -13.1956610 -0.372946E-10  0.181E-04    0.84     225.8  T
   3    -13.1956610 -0.105201E-09  0.689E-05    0.84     592.6  T

   *** convergence criteria satisfied after 3 iterations ***

         #    Occupation            Energy/Eh            Energy/eV
      -------------------------------------------------------------
         1        2.0000           -0.9323890             -25.3716
       ...           ...                  ...                  ...
         5        2.0000           -0.3646598              -9.9229
         6        2.0000           -0.3228411              -8.7850
         7        2.0000           -0.2905767              -7.9070
         8        2.0000           -0.2905656              -7.9067
         9        2.0000           -0.0640629              -1.7432
        10        2.0000           -0.0630384              -1.7154
        11        2.0000           -0.0630375              -1.7153 (HOMO)
        12        0.0000           -0.0322049              -0.8763 (LUMO)
        13                          0.1481820               4.0322
        14                          0.1481875               4.0324
        15                          0.1516701               4.1272
        16                          0.1516729               4.1272
       ...                                ...                  ...
        20                          0.3580297               9.7425
      -------------------------------------------------------------
                  HL-Gap            0.0308326 Eh            0.8390 eV
             Fermi-level           -0.0472176 Eh           -1.2849 eV

 SCC (total)                   0 d,  0 h,  0 min,  0.001 sec
 SCC setup                      ...        0 min,  0.000 sec (  4.365%)
 Dispersion                     ...        0 min,  0.000 sec (  0.707%)
 integral evaluation            ...        0 min,  0.000 sec ( 29.911%)
 zeroth order Hamiltonian       ...        0 min,  0.000 sec (  1.309%)
 iterations                     ...        0 min,  0.000 sec ( 22.843%)
 molecular gradient             ...        0 min,  0.000 sec ( 34.359%)
 printout                       ...        0 min,  0.000 sec (  4.718%)

         :::::::::::::::::::::::::::::::::::::::::::::::::::::
         ::                     SUMMARY                     ::
         :::::::::::::::::::::::::::::::::::::::::::::::::::::
         :: total energy             -13.138596072916 Eh    ::
         :: gradient norm              0.000610145050 Eh/a0 ::
         :: HOMO-LUMO gap              0.838998948234 eV    ::
         ::.................................................::
         :: SCC energy               -13.195660957862 Eh    ::
         :: -> isotropic ES            0.265435370104 Eh    ::
         :: -> anisotropic ES         -0.001738304203 Eh    ::
         :: -> anisotropic XC         -0.000153742990 Eh    ::
         :: -> dispersion             -0.001910291956 Eh    ::
         :: repulsion energy           0.057064481268 Eh    ::
         :: add. restraining           0.000000892474 Eh    ::
         :::::::::::::::::::::::::::::::::::::::::::::::::::::

           -------------------------------------------------
          |                Property Printout                |
           -------------------------------------------------

    * Orbital Energies and Occupations

         #    Occupation            Energy/Eh            Energy/eV
      -------------------------------------------------------------
         1        2.0000           -0.9323890             -25.3716
         2        2.0000           -0.4673904             -12.7183
         3        2.0000           -0.3683492             -10.0233
         4        2.0000           -0.3682831             -10.0215
         5        2.0000           -0.3646598              -9.9229
         6        2.0000           -0.3228411              -8.7850
         7        2.0000           -0.2905767              -7.9070
         8        2.0000           -0.2905656              -7.9067
         9        2.0000           -0.0640629              -1.7432
        10        2.0000           -0.0630384              -1.7154
        11        2.0000           -0.0630375              -1.7153 (HOMO)
        12        0.0000           -0.0322049              -0.8763 (LUMO)
        13                          0.1481820               4.0322
        14                          0.1481875               4.0324
        15                          0.1516701               4.1272
        16                          0.1516729               4.1272
        17                          0.2681515               7.2968
        18                          0.3092977               8.4164
        19                          0.3580071               9.7419
        20                          0.3580297               9.7425
      -------------------------------------------------------------
                  HL-Gap            0.0308326 Eh            0.8390 eV
             Fermi-level           -0.0472176 Eh           -1.2849 eV

     #   Z        covCN         q      C6AA      α(0)
     1   9 F      0.000    -0.965    23.723     5.673
     2  17 Cl     0.888    -0.282   108.116    15.907
     3   6 C      3.663     0.006    20.745     6.533
     4   1 H      0.925     0.080     1.980     2.200
     5   1 H      0.925     0.080     1.975     2.198
     6   1 H      0.925     0.080     1.976     2.198

 Mol. C6AA /au·bohr⁶  :        570.875050
 Mol. C8AA /au·bohr⁸  :      15833.365866
 Mol. α(0) /au        :         34.710076


Wiberg/Mayer (AO) data.
largest (>0.10) Wiberg bond orders for each atom
          total WBO             WBO to atom ...
     1  F   0.069
     2  Cl  0.966        C    3 0.912
     3  C   3.904        H    4 0.986    H    6 0.986    H    5 0.986    Cl   2 0.912
     4  H   0.994        C    3 0.986
     5  H   0.994        C    3 0.986
     6  H   0.994        C    3 0.986

molecular dipole:
                 x           y           z       tot (Debye)
 q only:        4.937       0.286      -0.095
   full:        4.561       0.263      -0.089      11.615
molecular quadrupole (traceless):
                xx          xy          yy          xz          yz          zz
 q only:      -39.769      -3.481      19.794       1.109       0.064      19.975
  q+dip:      -42.748      -3.748      21.276       1.181       0.068      21.472
   full:      -41.698      -3.654      20.753       1.156       0.067      20.944

           -------------------------------------------------
          |                Geometry Summary                 |
           -------------------------------------------------

      molecular mass/u    :       69.4858989
   center of mass at/Å    :       -0.2375872      -0.0125521       0.0069668
  moments of inertia/u·Å² :        0.3167569E+01   0.2849039E+03   0.2849044E+03
rotational constants/cm⁻¹ :        0.5321947E+01   0.5916955E-01   0.5916944E-01

 * 4 selected distances

     #   Z        #   Z                                     value/Å
     2  17 Cl     3   6 C                                 1.7800479 (max)
     3   6 C      4   1 H                                 1.0835748 (min)
     3   6 C      5   1 H                                 1.0835749
     3   6 C      6   1 H                                 1.0835749

 * 2 distinct bonds (by element types)

   Z      Z             #   av. dist./Å        max./Å        min./Å
   1 H    6 C           3     1.0835749     1.0835749     1.0835748
   6 C   17 Cl          1     1.7800479     1.7800479     1.7800479


optimized geometry written to: xtbopt.xyz


           -------------------------------------------------
          | TOTAL ENERGY              -13.138596072916 Eh   |
          | GRADIENT NORM               0.000610145050 Eh/α |
          | HOMO-LUMO GAP               0.838998948234 eV   |
           -------------------------------------------------

------------------------------------------------------------------------
 * finished run on 2020/04/08 at 13:05:32.782     
------------------------------------------------------------------------
 total:
 * wall-time:     0 d,  0 h,  0 min,  0.156 sec
 *  cpu-time:     0 d,  0 h,  0 min,  0.104 sec
 * ratio c/w:     0.669 speedup
 SCF:
 * wall-time:     0 d,  0 h,  0 min,  0.033 sec
 *  cpu-time:     0 d,  0 h,  0 min,  0.020 sec
 * ratio c/w:     0.612 speedup
 ANC optimizer:
 * wall-time:     0 d,  0 h,  0 min,  0.055 sec
 *  cpu-time:     0 d,  0 h,  0 min,  0.065 sec
 * ratio c/w:     1.175 speedup

