      -----------------------------------------------------------      
     |                   =====================                   |     
     |                           x T B                           |     
     |                   =====================                   |     
     |                         S. Grimme                         |     
     |          Mulliken Center for Theoretical Chemistry        |     
     |                    University of Bonn                     |     
      -----------------------------------------------------------      

   * xtb version 6.2.3 (830e466) compiled by 'ehlert@majestix' on 2020-03-16

   xtb is free software: you can redistribute it and/or modify it under
   the terms of the GNU Lesser General Public License as published by
   the Free Software Foundation, either version 3 of the License, or
   (at your option) any later version.
   
   xtb is distributed in the hope that it will be useful,
   but WITHOUT ANY WARRANTY; without even the implied warranty of
   MERCHANTABILITY or FITNESS FOR A PARTICULAR PURPOSE.  See the
   GNU Lesser General Public License for more details.
   
   Cite this work as:
   * S. Grimme, C. Bannwarth, P. Shushkov, J. Chem. Theory Comput., 2017,
     13, 1989-2009. DOI: 10.1021/acs.jctc.7b00118
   * C. Bannwarth, S. Ehlert and S. Grimme., J. Chem. Theory Comput., 2019,
     15, 1652-1671. DOI: 10.1021/acs.jctc.8b01176
   * P. Pracht, E. Caldeweyher, S. Ehlert, S. Grimme, ChemRxiv, 2019, preprint.
     DOI: 10.26434/chemrxiv.8326202.v1
   
   for DFT-D4:
   * E. Caldeweyher, C. Bannwarth and S. Grimme, J. Chem. Phys., 2017,
     147, 034112. DOI: 10.1063/1.4993215
   * E. Caldeweyher, S. Ehlert, A. Hansen, H. Neugebauer, S. Spicher,
     C. Bannwarth and S. Grimme, J. Chem. Phys., 2019, 150, 154122.
     DOI: 10.1063/1.5090222
   
   for sTDA-xTB:
   * S. Grimme and C. Bannwarth, J. Chem. Phys., 2016, 145, 054103.
     DOI: 10.1063/1.4959605
   
   in the mass-spec context:
   * V. Asgeirsson, C. Bauer and S. Grimme, Chem. Sci., 2017, 8, 4879.
     DOI: 10.1039/c7sc00601b
   
   for metadynamics refer to:
   * S. Grimme, J. Chem. Theory Comput., 2019, 155, 2847-2862
     DOI: 10.1021/acs.jctc.9b00143
   
   with help from (in alphabetical order)
   C. Bannwarth, F. Bohle, G. Brandenburg, E. Caldeweyher, M. Checinski,
   S. Dohm, S. Ehlert, S. Ehrlich, F. März, H. Neugebauer, J. Pisarek,
   P. Pracht, P. Shushkov, and S. Spicher.
   
 * started run on 2020/04/08 at 23:04:46.497     

           -------------------------------------------------
          |                Calculation Setup                |
           -------------------------------------------------

          program call               : /home/tom/.local/bin/xtb SN2_PES_scan_6-0_xtb.xyz --chrg -1 --opt --input xcontrol_SN2_PES_scan_6-0
          coordinate file            : SN2_PES_scan_6-0_xtb.xyz
          omp threads                :                     1
          number of atoms            :                     6
          number of electrons        :                    22
          charge                     :                    -1
          spin                       :                   0.0
          first test random number   :      0.36591014689876

constraining bond 1 3 to    2.2050000 Å, actual value:    1.5029598 Å
constraining bond 2 3 to    1.7830000 Å, actual value:    1.7837539 Å
########################################################################
[WARNING] Please study the warnings concerning your input carefully
-2- prog_main: XTBPATH is not set, using XTBHOME instead
-1- prog_main: XTBHOME is not set, using HOME instead
########################################################################
           ------------------------------------------------- 
          |                 G F N 2 - x T B                 |
          | Geometry, Frequencies, Noncovalent interactions |
          |            JCTC 2019 parametrisation            |
           ------------------------------------------------- 
             k(s)              :                1.8500
             k(p)              :                2.2300
             k(d)              :                2.2300
             k(f)              :                2.0000
             kEN (H0ij)        :               -2.0000
             D4 a1             :                0.5200
             D4 a2             :                5.0000
             D4 s6             :                1.0000
             D4 s8             :                2.7000
             D4 s9             :                5.0000
             alphaj            :                2.0000

  Z AO/shell   Hii/eV     exponent
  1     Wed Apr 25 08:07:45 CEST 2018   EN: 2.200 GM2: 0.406  GM3: 0.0800  RAES: 1.40
     1s    -10.707211    1.230000
  6     Wed Apr 25 08:07:45 CEST 2018   EN: 2.550 GM2: 0.538  GM3: 0.1500  RAES: 3.00
     2s    -13.970922    2.096432
     2p    -10.063292    1.800000
  9     Mon Apr 23 13:58:50 CEST 2018   EN: 3.980 GM2: 0.532  GM3: 0.1426  RAES: 2.40
     2s    -23.458179    2.416361
     2p    -15.746583    2.308399
 17     Mon Apr 23 14:09:22 CEST 2018   EN: 3.160 GM2: 0.249  GM3: 0.1495  RAES: 2.50
     3s    -29.278781    2.485265
     3p    -12.673758    2.199650
     3d     -0.240338    2.476089

           ------------------------------------------------- 
          |        Self-Consistent Charge Iterations        |
           ------------------------------------------------- 

          ...................................................
          :                      SETUP                      :
          :.................................................:
          :  # basis functions                  21          :
          :  # atomic orbitals                  20          :
          :  # shells                           10          :
          :  # electrons                        22          :
          :  max. iterations                   250          :
          :  Hamiltonian                  GFN2-xTB          :
          :  restarted?                      false          :
          :  GBSA solvation                  false          :
          :  PC potential                    false          :
          :  electronic temp.          300.0000000     K    :
          :  accuracy                    1.0000000          :
          :  -> integral cutoff          0.2500000E+02      :
          :  -> integral neglect         0.1000000E-07      :
          :  -> SCF convergence          0.1000000E-05 Eh   :
          :  -> wf. convergence          0.1000000E-03 e    :
          :  Broyden damping             0.4000000          :
          ...................................................

 iter      E             dE          RMSdq      gap      omega  full diag
   1    -13.0479061 -0.130479E+02  0.759E+00    7.85       0.0  T
   2    -13.1298662 -0.819601E-01  0.420E+00    7.59       1.0  T
   3    -13.1330259 -0.315969E-02  0.209E+00    7.87       1.0  T
   4    -13.1353718 -0.234590E-02  0.839E-01    7.96       1.0  T
   5    -13.1370428 -0.167099E-02  0.335E-01    7.90       1.0  T
   6    -13.1371937 -0.150942E-03  0.203E-01    7.84       1.0  T
   7    -13.1373311 -0.137374E-03  0.505E-02    7.87       1.0  T
   8    -13.1373337 -0.261266E-05  0.114E-02    7.86       3.6  T
   9    -13.1373340 -0.343908E-06  0.361E-03    7.86      11.3  T
  10    -13.1373341 -0.196852E-07  0.269E-04    7.86     151.6  T
  11    -13.1373341  0.163620E-10  0.188E-04    7.86     217.1  T

   *** convergence criteria satisfied after 11 iterations ***

         #    Occupation            Energy/Eh            Energy/eV
      -------------------------------------------------------------
         1        2.0000           -0.8585693             -23.3629
       ...           ...                  ...                  ...
         5        2.0000           -0.3397269              -9.2444
         6        2.0000           -0.3131487              -8.5212
         7        2.0000           -0.2389883              -6.5032
         8        2.0000           -0.2389783              -6.5029
         9        2.0000           -0.2099364              -5.7127
        10        2.0000           -0.2099106              -5.7120
        11        2.0000           -0.1707916              -4.6475 (HOMO)
        12                          0.1180740               3.2130 (LUMO)
        13                          0.2485981               6.7647
        14                          0.2485988               6.7647
        15                          0.2606533               7.0927
        16                          0.2606736               7.0933
       ...                                ...                  ...
        20                          0.4364692              11.8769
      -------------------------------------------------------------
                  HL-Gap            0.2888656 Eh            7.8604 eV
             Fermi-level           -0.0263588 Eh           -0.7173 eV

 SCC (total)                   0 d,  0 h,  0 min,  0.003 sec
 SCC setup                      ...        0 min,  0.000 sec (  2.362%)
 Dispersion                     ...        0 min,  0.000 sec (  0.496%)
 integral evaluation            ...        0 min,  0.001 sec ( 25.036%)
 zeroth order Hamiltonian       ...        0 min,  0.000 sec (  0.664%)
 iterations                     ...        0 min,  0.001 sec ( 40.723%)
 molecular gradient             ...        0 min,  0.001 sec ( 27.289%)
 printout                       ...        0 min,  0.000 sec (  2.648%)

         :::::::::::::::::::::::::::::::::::::::::::::::::::::
         ::                     SUMMARY                     ::
         :::::::::::::::::::::::::::::::::::::::::::::::::::::
         :: total energy               4.516870460170 Eh    ::
         :: gradient norm             37.602074729861 Eh/a0 ::
         :: HOMO-LUMO gap              7.860433000377 eV    ::
         ::.................................................::
         :: SCC energy               -13.137334055490 Eh    ::
         :: -> isotropic ES            0.164405269299 Eh    ::
         :: -> anisotropic ES         -0.019591848039 Eh    ::
         :: -> anisotropic XC         -0.037501378079 Eh    ::
         :: -> dispersion             -0.002483177096 Eh    ::
         :: repulsion energy           0.053823331007 Eh    ::
         :: add. restraining          17.600381135807 Eh    ::
         :::::::::::::::::::::::::::::::::::::::::::::::::::::

      ----------------------------------------------------------- 
     |                   =====================                   |
     |                        A N C O P T                        |
     |                   =====================                   |
     |               Approximate Normal Coordinate               |
     |                Rational Function Optimizer                |
      ----------------------------------------------------------- 

          ...................................................
          :                      SETUP                      :
          :.................................................:
          :   optimization level            normal          :
          :   max. optcycles                   200          :
          :   ANC micro-cycles                  20          :
          :   degrees of freedom                12          :
          :.................................................:
          :   RF solver                   davidson          :
          :   write xtbopt.log                true          :
          :   linear?                        false          :
          :   energy convergence         0.5000000E-05 Eh   :
          :   grad. convergence          0.1000000E-02 Eh/α :
          :   maximium RF displ.         1.0000000          :
          :   Hlow (freq-cutoff)         0.1000000E-01      :
          :   Hmax (freq-cutoff)         5.0000000          :
          :   S6 in model hess.         20.0000000          :
          ...................................................

generating ANC from model Hessian ...
Using Lindh-Hessian (1995)
 Shifting diagonal of input Hessian by    15.2483036922082     
 Lowest  eigenvalues of input Hessian
    0.010000    0.095404   -0.000000   -0.000000   -0.000000   -0.000000
   -0.000000    0.000000   15.348693   15.351940   15.379764   15.381476
   15.429612   15.659439   15.992358   15.993382   35.704937   76.664471
 Highest eigenvalues
   15.429612   15.659439   15.992358   15.993382   35.704937   76.664471
 

........................................................................
.............................. CYCLE    1 ..............................
........................................................................
   1    -13.1373341 -0.131373E+02  0.104E-05    7.86       0.0  T
   2    -13.1373341 -0.234479E-12  0.600E-06    7.86    6799.9  T
   3    -13.1373341 -0.248690E-13  0.477E-06    7.86    8549.8  T
     SCC iter.                  ...        0 min,  0.000 sec
     gradient                   ...        0 min,  0.001 sec
 * total energy  :     4.5168704 Eh     change       -0.1788336E-07 Eh
   gradient norm :    37.6020780 Eh/α   predicted     0.0000000E+00 (-100.00%)
   displ. norm   :     0.9357221 α      lambda       -0.3518510E+02
   maximum displ.:     0.8086650 α      in ANC's #3, #12, #7, ...

........................................................................
.............................. CYCLE    2 ..............................
........................................................................
   1    -13.1318964 -0.131319E+02  0.292E+00    8.71       0.0  T
   2    -13.1396450 -0.774857E-02  0.172E+00    6.65       1.0  T
   3    -13.1427374 -0.309245E-02  0.736E-01    3.76       1.0  T
   4    -13.1429798 -0.242425E-03  0.225E-01    3.50       1.0  T
   5    -13.1430252 -0.453363E-04  0.186E-01    3.47       1.0  T
   6    -13.1431129 -0.877281E-04  0.670E-02    3.47       1.0  T
   7    -13.1431244 -0.115169E-04  0.130E-02    3.50       3.1  T
   8    -13.1431245 -0.109748E-06  0.205E-03    3.48      19.9  T
   9    -13.1431245 -0.117869E-07  0.424E-04    3.48      96.4  T
     SCC iter.                  ...        0 min,  0.001 sec
     gradient                   ...        0 min,  0.001 sec
 * total energy  :    -8.7586728 Eh     change       -0.1327554E+02 Eh
   gradient norm :    18.8909184 Eh/α   predicted    -0.3299616E+02 ( 148.55%)
   displ. norm   :     0.7656362 α      lambda       -0.1193021E+02
   maximum displ.:     0.6925924 α      in ANC's #12, #3, #6, ...

........................................................................
.............................. CYCLE    3 ..............................
........................................................................
   1    -12.6345327 -0.126345E+02  0.776E+00    0.51       0.0  T
   2    -13.0810350 -0.446502E+00  0.519E+00    6.32       1.0  T
   3    -13.1613056 -0.802706E-01  0.304E+00    5.25       1.0  T
   4    -13.1679873 -0.668165E-02  0.239E+00    4.22       1.0  T
   5    -13.1796686 -0.116814E-01  0.959E-01    1.95       1.0  T
   6    -13.1828085 -0.313988E-02  0.612E-01    2.11       1.0  T
   7    -13.1841545 -0.134598E-02  0.391E-01    2.38       1.0  T
   8    -13.1842029 -0.484408E-04  0.245E-01    2.66       1.0  T
   9    -13.1844872 -0.284245E-03  0.130E-02    2.46       3.1  T
  10    -13.1844729  0.142942E-04  0.521E-02    2.41       1.0  T
  11    -13.1844872 -0.143353E-04  0.568E-04    2.46      71.9  T
  12    -13.1844872  0.196670E-08  0.713E-04    2.46      57.2  T
  13    -13.1844872 -0.209974E-08  0.156E-04    2.46     262.0  T
     SCC iter.                  ...        0 min,  0.001 sec
     gradient                   ...        0 min,  0.001 sec
 * total energy  :   -12.5231952 Eh     change       -0.3764522E+01 Eh
   gradient norm :     5.7698401 Eh/α   predicted    -0.9461842E+01 ( 151.34%)
   displ. norm   :     0.2316051 α      lambda       -0.1190583E+01
   maximum displ.:     0.2269611 α      in ANC's #12, #3, #6, ...

........................................................................
.............................. CYCLE    4 ..............................
........................................................................
   1    -13.1812722 -0.131813E+02  0.681E-01    3.81       0.0  T
   2    -13.1824045 -0.113229E-02  0.439E-01    3.27       1.0  T
   3    -13.1825904 -0.185922E-03  0.285E-01    3.15       1.0  T
   4    -13.1826684 -0.779508E-04  0.198E-01    3.06       1.0  T
   5    -13.1827433 -0.749122E-04  0.107E-01    3.10       1.0  T
   6    -13.1827732 -0.298853E-04  0.571E-02    3.02       1.0  T
   7    -13.1827846 -0.113965E-04  0.162E-02    3.07       2.5  T
   8    -13.1827853 -0.786138E-06  0.198E-03    3.05      20.6  T
   9    -13.1827854 -0.134895E-07  0.110E-03    3.05      37.2  T
     SCC iter.                  ...        0 min,  0.001 sec
     gradient                   ...        0 min,  0.001 sec
 * total energy  :   -13.1338300 Eh     change       -0.6106347E+00 Eh
   gradient norm :     0.8344201 Eh/α   predicted    -0.6272232E+00 (   2.72%)
   displ. norm   :     0.0222611 α      lambda       -0.1665609E-01
   maximum displ.:     0.0192268 α      in ANC's #3, #6, #12, ...

........................................................................
.............................. CYCLE    5 ..............................
........................................................................
   1    -13.1833067 -0.131833E+02  0.968E-02    3.13       0.0  T
   2    -13.1833366 -0.299789E-04  0.405E-02    3.05       1.0  T
   3    -13.1833393 -0.269237E-05  0.212E-02    3.02       1.9  T
   4    -13.1833396 -0.233138E-06  0.135E-02    3.02       3.0  T
   5    -13.1833398 -0.248512E-06  0.791E-03    3.02       5.2  T
   6    -13.1833400 -0.215414E-06  0.183E-03    3.02      22.3  T
   7    -13.1833400 -0.453387E-08  0.799E-04    3.02      51.1  T
     SCC iter.                  ...        0 min,  0.001 sec
     gradient                   ...        0 min,  0.001 sec
 * total energy  :   -13.1391365 Eh     change       -0.5306526E-02 Eh
   gradient norm :     0.3317128 Eh/α   predicted    -0.8332171E-02 (  57.02%)
   displ. norm   :     0.0101892 α      lambda       -0.2136185E-02
   maximum displ.:     0.0071092 α      in ANC's #6, #3, #2, ...

........................................................................
.............................. CYCLE    6 ..............................
........................................................................
   1    -13.1845065 -0.131845E+02  0.269E-02    3.01       0.0  T
   2    -13.1845090 -0.241422E-05  0.116E-02    3.03       3.5  T
   3    -13.1845091 -0.173938E-06  0.684E-03    3.03       6.0  T
   4    -13.1845092 -0.235361E-07  0.392E-03    3.04      10.4  T
   5    -13.1845092 -0.109918E-07  0.163E-03    3.04      25.0  T
     SCC iter.                  ...        0 min,  0.000 sec
     gradient                   ...        0 min,  0.001 sec
 * total energy  :   -13.1404178 Eh     change       -0.1281275E-02 Eh
   gradient norm :     0.0502857 Eh/α   predicted    -0.1068204E-02 ( -16.63%)
   displ. norm   :     0.0379755 α      lambda       -0.6310849E-03
   maximum displ.:     0.0345860 α      in ANC's #1, #6, #2, ...

........................................................................
.............................. CYCLE    7 ..............................
........................................................................
   1    -13.1862875 -0.131863E+02  0.985E-02    3.03       0.0  T
   2    -13.1862894 -0.195044E-05  0.597E-02    3.04       1.0  T
   3    -13.1862896 -0.188924E-06  0.132E-02    3.04       3.1  T
   4    -13.1862898 -0.214441E-06  0.519E-03    3.04       7.9  T
   5    -13.1862898 -0.211694E-07  0.183E-03    3.04      22.3  T
     SCC iter.                  ...        0 min,  0.000 sec
     gradient                   ...        0 min,  0.001 sec
 * total energy  :   -13.1407956 Eh     change       -0.3778567E-03 Eh
   gradient norm :     0.0675848 Eh/α   predicted    -0.3159980E-03 ( -16.37%)
   displ. norm   :     0.4129648 α      lambda       -0.1196840E-01
   maximum displ.:     0.2946621 α      in ANC's #1, #6, #2, ...

........................................................................
.............................. CYCLE    8 ..............................
........................................................................
   1    -13.2147261 -0.132147E+02  0.916E-01    2.86       0.0  T
   2    -13.2150775 -0.351457E-03  0.529E-01    3.06       1.0  T
   3    -13.2151068 -0.292906E-04  0.190E-01    3.05       1.0  T
   4    -13.2151307 -0.238906E-04  0.633E-02    3.08       1.0  T
   5    -13.2151344 -0.370422E-05  0.344E-02    3.07       1.2  T
   6    -13.2151364 -0.199085E-05  0.243E-02    3.07       1.7  T
   7    -13.2151383 -0.191517E-05  0.489E-03    3.08       8.3  T
   8    -13.2151384 -0.505062E-07  0.205E-03    3.07      20.0  T
     SCC iter.                  ...        0 min,  0.001 sec
     gradient                   ...        0 min,  0.001 sec
 * total energy  :   -13.1093560 Eh     change        0.3143964E-01 Eh
   gradient norm :     1.3575164 Eh/α   predicted    -0.7004995E-02 (-122.28%)
   displ. norm   :     0.3058216 α      lambda       -0.6744406E-01
   maximum displ.:     0.2299404 α      in ANC's #1, #6, #2, ...

........................................................................
.............................. CYCLE    9 ..............................
........................................................................
   1    -13.1979933 -0.131980E+02  0.712E-01    3.28       0.0  T
   2    -13.1982623 -0.269044E-03  0.416E-01    3.11       1.0  T
   3    -13.1982835 -0.212041E-04  0.157E-01    3.10       1.0  T
   4    -13.1982985 -0.149968E-04  0.528E-02    3.08       1.0  T
   5    -13.1983014 -0.290433E-05  0.279E-02    3.09       1.5  T
   6    -13.1983033 -0.189587E-05  0.170E-02    3.08       2.4  T
   7    -13.1983041 -0.742874E-06  0.494E-03    3.09       8.3  T
   8    -13.1983042 -0.117617E-06  0.164E-03    3.08      24.9  T
     SCC iter.                  ...        0 min,  0.001 sec
     gradient                   ...        0 min,  0.001 sec
 * total energy  :   -13.1425148 Eh     change       -0.3315878E-01 Eh
   gradient norm :     0.2547579 Eh/α   predicted    -0.3687600E-01 (  11.21%)
   displ. norm   :     0.0493224 α      lambda       -0.1931379E-02
   maximum displ.:     0.0400055 α      in ANC's #2, #1, #12, ...

........................................................................
.............................. CYCLE   10 ..............................
........................................................................
   1    -13.1982311 -0.131982E+02  0.123E-01    3.06       0.0  T
   2    -13.1982334 -0.232978E-05  0.739E-02    3.06       1.0  T
   3    -13.1982340 -0.610825E-06  0.118E-02    3.06       3.4  T
   4    -13.1982341 -0.681932E-07  0.470E-03    3.06       8.7  T
   5    -13.1982341 -0.254672E-07  0.258E-03    3.06      15.9  T
     SCC iter.                  ...        0 min,  0.000 sec
     gradient                   ...        0 min,  0.001 sec
 * total energy  :   -13.1434468 Eh     change       -0.9320766E-03 Eh
   gradient norm :     0.0745631 Eh/α   predicted    -0.9680364E-03 (   3.86%)
   displ. norm   :     0.0414041 α      lambda       -0.5857828E-03
   maximum displ.:     0.0359794 α      in ANC's #2, #6, #1, ...

........................................................................
.............................. CYCLE   11 ..............................
........................................................................
   1    -13.2003828 -0.132004E+02  0.989E-02    3.06       0.0  T
   2    -13.2003847 -0.195425E-05  0.590E-02    3.06       1.0  T
   3    -13.2003850 -0.294700E-06  0.123E-02    3.06       3.3  T
   4    -13.2003851 -0.127778E-06  0.504E-03    3.06       8.1  T
   5    -13.2003852 -0.193709E-07  0.186E-03    3.06      21.9  T
     SCC iter.                  ...        0 min,  0.000 sec
     gradient                   ...        0 min,  0.001 sec
 * total energy  :   -13.1437142 Eh     change       -0.2673196E-03 Eh
   gradient norm :     0.0242786 Eh/α   predicted    -0.2933929E-03 (   9.75%)
   displ. norm   :     0.0438765 α      lambda       -0.5503810E-03
   maximum displ.:     0.0388481 α      in ANC's #6, #2, #7, ...

........................................................................
.............................. CYCLE   12 ..............................
........................................................................
   1    -13.2052407 -0.132052E+02  0.741E-02    3.07       0.0  T
   2    -13.2052447 -0.394469E-05  0.402E-02    3.08       1.0  T
   3    -13.2052449 -0.235741E-06  0.194E-02    3.07       2.1  T
   4    -13.2052451 -0.150284E-06  0.451E-03    3.07       9.1  T
   5    -13.2052451 -0.229247E-07  0.249E-03    3.08      16.4  T
     SCC iter.                  ...        0 min,  0.000 sec
     gradient                   ...        0 min,  0.001 sec
 * total energy  :   -13.1439047 Eh     change       -0.1905424E-03 Eh
   gradient norm :     0.0419295 Eh/α   predicted    -0.2757213E-03 (  44.70%)
   displ. norm   :     0.0151025 α      lambda       -0.1562839E-03
   maximum displ.:     0.0130632 α      in ANC's #1, #6, #2, ...

........................................................................
.............................. CYCLE   13 ..............................
........................................................................
   1    -13.2043026 -0.132043E+02  0.367E-02    3.08       0.0  T
   2    -13.2043028 -0.277942E-06  0.219E-02    3.07       1.9  T
   3    -13.2043029 -0.374448E-07  0.453E-03    3.07       9.0  T
   4    -13.2043029 -0.167098E-07  0.180E-03    3.07      22.7  T
     SCC iter.                  ...        0 min,  0.000 sec
     gradient                   ...        0 min,  0.001 sec
 * total energy  :   -13.1440023 Eh     change       -0.9756290E-04 Eh
   gradient norm :     0.0163514 Eh/α   predicted    -0.7816131E-04 ( -19.89%)
   displ. norm   :     0.0058001 α      lambda       -0.5488877E-04
   maximum displ.:     0.0041825 α      in ANC's #7, #1, #6, ...

........................................................................
.............................. CYCLE   14 ..............................
........................................................................
   1    -13.2043064 -0.132043E+02  0.139E-02    3.07       0.0  T
   2    -13.2043065 -0.713598E-07  0.872E-03    3.07       4.7  T
   3    -13.2043065 -0.125679E-07  0.275E-03    3.07      14.9  T
   4    -13.2043065 -0.801543E-08  0.153E-03    3.07      26.6  T
     SCC iter.                  ...        0 min,  0.000 sec
     gradient                   ...        0 min,  0.001 sec
 * total energy  :   -13.1440468 Eh     change       -0.4456354E-04 Eh
   gradient norm :     0.0191594 Eh/α   predicted    -0.2744561E-04 ( -38.41%)
   displ. norm   :     0.0162462 α      lambda       -0.1380825E-03
   maximum displ.:     0.0142870 α      in ANC's #7, #1, #6, ...

........................................................................
.............................. CYCLE   15 ..............................
........................................................................
   1    -13.2044464 -0.132044E+02  0.353E-02    3.07       0.0  T
   2    -13.2044470 -0.633692E-06  0.223E-02    3.07       1.8  T
   3    -13.2044471 -0.790857E-07  0.835E-03    3.06       4.9  T
   4    -13.2044472 -0.628755E-07  0.401E-03    3.06      10.2  T
   5    -13.2044472 -0.245348E-07  0.306E-03    3.06      13.4  T
   6    -13.2044472 -0.308977E-07  0.755E-04    3.06      54.0  T
   7    -13.2044472 -0.123872E-08  0.697E-05    3.06     585.8  T
     SCC iter.                  ...        0 min,  0.000 sec
     gradient                   ...        0 min,  0.001 sec
 * total energy  :   -13.1441523 Eh     change       -0.1054848E-03 Eh
   gradient norm :     0.0364235 Eh/α   predicted    -0.6906092E-04 ( -34.53%)
   displ. norm   :     0.0286200 α      lambda       -0.2106970E-03
   maximum displ.:     0.0272132 α      in ANC's #7, #6, #1, ...

........................................................................
.............................. CYCLE   16 ..............................
........................................................................
   1    -13.2044834 -0.132045E+02  0.583E-02    3.07       0.0  T
   2    -13.2044853 -0.189046E-05  0.368E-02    3.06       1.1  T
   3    -13.2044855 -0.171257E-06  0.136E-02    3.06       3.0  T
   4    -13.2044856 -0.144919E-06  0.579E-03    3.06       7.1  T
   5    -13.2044857 -0.478749E-07  0.458E-03    3.06       8.9  T
     SCC iter.                  ...        0 min,  0.000 sec
     gradient                   ...        0 min,  0.001 sec
 * total energy  :   -13.1443105 Eh     change       -0.1582234E-03 Eh
   gradient norm :     0.0509442 Eh/α   predicted    -0.1054321E-03 ( -33.37%)
   displ. norm   :     0.0382222 α      lambda       -0.2483698E-03
   maximum displ.:     0.0367728 α      in ANC's #7, #6, #1, ...

........................................................................
.............................. CYCLE   17 ..............................
........................................................................
   1    -13.2041059 -0.132041E+02  0.783E-02    3.07       0.0  T
   2    -13.2041091 -0.319181E-05  0.496E-02    3.06       1.0  T
   3    -13.2041094 -0.337190E-06  0.176E-02    3.05       2.3  T
   4    -13.2041097 -0.273724E-06  0.825E-03    3.06       4.9  T
   5    -13.2041098 -0.978697E-07  0.654E-03    3.06       6.2  T
   6    -13.2041099 -0.149374E-06  0.379E-04    3.06     107.6  T
   7    -13.2041099 -0.698730E-10  0.109E-04    3.06     374.4  T
     SCC iter.                  ...        0 min,  0.001 sec
     gradient                   ...        0 min,  0.001 sec
 * total energy  :   -13.1444787 Eh     change       -0.1681300E-03 Eh
   gradient norm :     0.0429218 Eh/α   predicted    -0.1243647E-03 ( -26.03%)
   displ. norm   :     0.0188528 α      lambda       -0.1062224E-03
   maximum displ.:     0.0172111 α      in ANC's #7, #1, #6, ...

........................................................................
.............................. CYCLE   18 ..............................
........................................................................
   1    -13.2037504 -0.132038E+02  0.390E-02    3.07       0.0  T
   2    -13.2037510 -0.622102E-06  0.242E-02    3.07       1.7  T
   3    -13.2037510 -0.427787E-07  0.651E-03    3.06       6.3  T
   4    -13.2037511 -0.374518E-07  0.263E-03    3.06      15.5  T
   5    -13.2037511 -0.925399E-08  0.199E-03    3.06      20.5  T
     SCC iter.                  ...        0 min,  0.000 sec
     gradient                   ...        0 min,  0.001 sec
 * total energy  :   -13.1445448 Eh     change       -0.6611560E-04 Eh
   gradient norm :     0.0171279 Eh/α   predicted    -0.5313164E-04 ( -19.64%)
   displ. norm   :     0.0038983 α      lambda       -0.1837239E-04
   maximum displ.:     0.0035687 α      in ANC's #1, #6, #2, ...

........................................................................
.............................. CYCLE   19 ..............................
........................................................................
   1    -13.2036259 -0.132036E+02  0.101E-02    3.07       0.0  T
   2    -13.2036259 -0.286938E-07  0.603E-03    3.07       6.8  T
   3    -13.2036259 -0.283424E-08  0.153E-03    3.07      26.6  T
   4    -13.2036259 -0.183717E-08  0.509E-04    3.07      80.2  T
     SCC iter.                  ...        0 min,  0.000 sec
     gradient                   ...        0 min,  0.001 sec
 * total energy  :   -13.1445554 Eh     change       -0.1064574E-04 Eh
   gradient norm :     0.0025999 Eh/α   predicted    -0.9185693E-05 ( -13.71%)
   displ. norm   :     0.0019884 α      lambda       -0.9195029E-06
   maximum displ.:     0.0017017 α      in ANC's #7, #6, #1, ...

........................................................................
.............................. CYCLE   20 ..............................
........................................................................
   1    -13.2036152 -0.132036E+02  0.428E-03    3.07       0.0  T
   2    -13.2036152 -0.108479E-07  0.270E-03    3.07      15.1  T
   3    -13.2036152 -0.837918E-09  0.108E-03    3.07      37.7  T
   4    -13.2036152 -0.757908E-09  0.387E-04    3.07     105.6  T
   5    -13.2036152 -0.224043E-09  0.294E-04    3.07     138.8  T
     SCC iter.                  ...        0 min,  0.000 sec
     gradient                   ...        0 min,  0.001 sec
 * total energy  :   -13.1445559 Eh     change       -0.4939449E-06 Eh
   gradient norm :     0.0001957 Eh/α   predicted    -0.4593636E-06 (  -7.00%)
   displ. norm   :     0.0004051 α      lambda       -0.1425126E-07
   maximum displ.:     0.0003708 α      in ANC's #7, #6, #9, ...

   *** GEOMETRY OPTIMIZATION CONVERGED AFTER 20 ITERATIONS ***

------------------------------------------------------------------------
 total energy gain   :       -17.6614264 Eh   -11082.7124 kcal/mol
 total RMSD          :         0.4525795 a0        0.2395 Å
 total power (kW/mol):     -2318.5034296 (step)********** (real)
------------------------------------------------------------------------

 ANCopt (total)                0 d,  0 h,  0 min,  0.039 sec
 optimizer setup                ...        0 min,  0.000 sec (  0.143%)
 model hessian                  ...        0 min,  0.000 sec (  0.273%)
 ANC generation                 ...        0 min,  0.000 sec (  0.187%)
 coordinate transformation      ...        0 min,  0.000 sec (  0.220%)
 single point calculation       ...        0 min,  0.037 sec ( 95.067%)
 optimization log               ...        0 min,  0.000 sec (  1.171%)
 hessian update                 ...        0 min,  0.000 sec (  0.158%)
 rational function              ...        0 min,  0.001 sec (  1.360%)

================
 final structure:
================
6
 xtb: 6.2.3 (830e466)
F        -2.66871435993245   -0.15706930208323    0.04877880612899
Cl        1.31258434100722    0.07806235427752   -0.02055086386431
C        -0.46774901693300   -0.02692817744535    0.00905307284896
H        -0.75416794605145   -0.60826375193192   -0.85291362276737
H        -0.73065127302799   -0.51184318993475    0.93567730225356
H        -0.83425174506233    0.98596206711773   -0.04134469459983
 
 Bond Distances (Angstroems)
 ---------------------------
Cl2-C3=1.7837        C3-Cl2=1.7837        C3-H4=1.0784         C3-H5=1.0784         C3-H6=1.0783         H4-C3=1.0784         
H5-C3=1.0784         H6-C3=1.0783         
 C  H  Rav=1.0784 sigma=0.0000  Rmin=1.0783  Rmax=1.0784     3
 Cl C  Rav=1.7837 sigma=0.0000  Rmin=1.7837  Rmax=1.7837     1
 
 selected bond angles (degree)
 --------------------
H4-C3-Cl2=106.47               H5-C3-Cl2=106.50               H5-C3-H4=112.31                H6-C3-Cl2=106.45               
H6-C3-H4=112.25                H6-C3-H5=112.31                
 
 selected dihedral angles (degree)
 ---------------------------------

           -------------------------------------------------
          |                Final Singlepoint                |
           -------------------------------------------------

          ...................................................
          :                      SETUP                      :
          :.................................................:
          :  # basis functions                  21          :
          :  # atomic orbitals                  20          :
          :  # shells                           10          :
          :  # electrons                        22          :
          :  max. iterations                   250          :
          :  Hamiltonian                  GFN2-xTB          :
          :  restarted?                      false          :
          :  GBSA solvation                  false          :
          :  PC potential                    false          :
          :  electronic temp.          300.0000000     K    :
          :  accuracy                    1.0000000          :
          :  -> integral cutoff          0.2500000E+02      :
          :  -> integral neglect         0.1000000E-07      :
          :  -> SCF convergence          0.1000000E-05 Eh   :
          :  -> wf. convergence          0.1000000E-03 e    :
          :  Broyden damping             0.4000000          :
          ...................................................

 iter      E             dE          RMSdq      gap      omega  full diag
   1    -13.2036152 -0.132036E+02  0.210E-04    3.07       0.0  T
   2    -13.2036152 -0.334683E-10  0.173E-04    3.07     236.7  T
   3    -13.2036152 -0.713758E-10  0.875E-05    3.07     466.5  T

   *** convergence criteria satisfied after 3 iterations ***

         #    Occupation            Energy/Eh            Energy/eV
      -------------------------------------------------------------
         1        2.0000           -0.9015181             -24.5316
       ...           ...                  ...                  ...
         5        2.0000           -0.3339130              -9.0862
         6        2.0000           -0.3197370              -8.7005
         7        2.0000           -0.2589789              -7.0472
         8        2.0000           -0.2589635              -7.0468
         9        2.0000           -0.1038408              -2.8257
        10        2.0000           -0.1024387              -2.7875
        11        2.0000           -0.1024384              -2.7875 (HOMO)
        12                          0.0102251               0.2782 (LUMO)
        13                          0.1866251               5.0783
        14                          0.1866272               5.0784
        15                          0.1892588               5.1500
        16                          0.1892643               5.1501
       ...                                ...                  ...
        20                          0.4105932              11.1728
      -------------------------------------------------------------
                  HL-Gap            0.1126635 Eh            3.0657 eV
             Fermi-level           -0.0461067 Eh           -1.2546 eV

 SCC (total)                   0 d,  0 h,  0 min,  0.002 sec
 SCC setup                      ...        0 min,  0.000 sec (  2.934%)
 Dispersion                     ...        0 min,  0.000 sec (  0.413%)
 integral evaluation            ...        0 min,  0.001 sec ( 36.448%)
 zeroth order Hamiltonian       ...        0 min,  0.000 sec (  0.783%)
 iterations                     ...        0 min,  0.000 sec ( 13.673%)
 molecular gradient             ...        0 min,  0.001 sec ( 41.874%)
 printout                       ...        0 min,  0.000 sec (  2.749%)

         :::::::::::::::::::::::::::::::::::::::::::::::::::::
         ::                     SUMMARY                     ::
         :::::::::::::::::::::::::::::::::::::::::::::::::::::
         :: total energy             -13.144555904012 Eh    ::
         :: gradient norm              0.000199180222 Eh/a0 ::
         :: HOMO-LUMO gap              3.065729473179 eV    ::
         ::.................................................::
         :: SCC energy               -13.203615223856 Eh    ::
         :: -> isotropic ES            0.234943080575 Eh    ::
         :: -> anisotropic ES         -0.005280202200 Eh    ::
         :: -> anisotropic XC         -0.005463892649 Eh    ::
         :: -> dispersion             -0.002132561529 Eh    ::
         :: repulsion energy           0.059042265036 Eh    ::
         :: add. restraining           0.000017133412 Eh    ::
         :::::::::::::::::::::::::::::::::::::::::::::::::::::

           -------------------------------------------------
          |                Property Printout                |
           -------------------------------------------------

    * Orbital Energies and Occupations

         #    Occupation            Energy/Eh            Energy/eV
      -------------------------------------------------------------
         1        2.0000           -0.9015181             -24.5316
         2        2.0000           -0.4305951             -11.7171
         3        2.0000           -0.3725736             -10.1382
         4        2.0000           -0.3339209              -9.0864
         5        2.0000           -0.3339130              -9.0862
         6        2.0000           -0.3197370              -8.7005
         7        2.0000           -0.2589789              -7.0472
         8        2.0000           -0.2589635              -7.0468
         9        2.0000           -0.1038408              -2.8257
        10        2.0000           -0.1024387              -2.7875
        11        2.0000           -0.1024384              -2.7875 (HOMO)
        12                          0.0102251               0.2782 (LUMO)
        13                          0.1866251               5.0783
        14                          0.1866272               5.0784
        15                          0.1892588               5.1500
        16                          0.1892643               5.1501
        17                          0.2924708               7.9585
        18                          0.3487106               9.4889
        19                          0.4101788              11.1615
        20                          0.4105932              11.1728
      -------------------------------------------------------------
                  HL-Gap            0.1126635 Eh            3.0657 eV
             Fermi-level           -0.0461067 Eh           -1.2546 eV

     #   Z        covCN         q      C6AA      α(0)
     1   9 F      0.017    -0.887    22.021     5.466
     2  17 Cl     0.888    -0.368   111.028    16.120
     3   6 C      3.682     0.044    20.045     6.411
     4   1 H      0.926     0.070     2.085     2.258
     5   1 H      0.926     0.070     2.081     2.256
     6   1 H      0.926     0.070     2.085     2.258

 Mol. C6AA /au·bohr⁶  :        570.815502
 Mol. C8AA /au·bohr⁸  :      15871.027448
 Mol. α(0) /au        :         34.768890


Wiberg/Mayer (AO) data.
largest (>0.10) Wiberg bond orders for each atom
          total WBO             WBO to atom ...
     1  F   0.215        C    3 0.130
     2  Cl  0.912        C    3 0.812
     3  C   3.909        H    4 0.989    H    6 0.989    H    5 0.989    Cl   2 0.812    F    1 0.130
     4  H   0.995        C    3 0.989
     5  H   0.995        C    3 0.989
     6  H   0.995        C    3 0.989

molecular dipole:
                 x           y           z       tot (Debye)
 q only:        3.213       0.189      -0.061
   full:        2.665       0.156      -0.052       6.786
molecular quadrupole (traceless):
                xx          xy          yy          xz          yz          zz
 q only:      -24.678      -2.185      12.280       0.667       0.038      12.398
  q+dip:      -28.796      -2.550      14.328       0.769       0.043      14.468
   full:      -27.577      -2.443      13.722       0.738       0.042      13.855

           -------------------------------------------------
          |                Geometry Summary                 |
           -------------------------------------------------

      molecular mass/u    :       69.4858989
   center of mass at/Å    :       -0.1744503      -0.0097166       0.0050170
  moments of inertia/u·Å² :        0.3233582E+01   0.2010774E+03   0.2010789E+03
rotational constants/cm⁻¹ :        0.5213299E+01   0.8383652E-01   0.8383590E-01

 * 4 selected distances

     #   Z        #   Z                                     value/Å
     2  17 Cl     3   6 C                                 1.7836721 (max)
     3   6 C      4   1 H                                 1.0784125
     3   6 C      5   1 H                                 1.0783750
     3   6 C      6   1 H                                 1.0783371 (min)

 * 2 distinct bonds (by element types)

   Z      Z             #   av. dist./Å        max./Å        min./Å
   1 H    6 C           3     1.0783748     1.0784125     1.0783371
   6 C   17 Cl          1     1.7836721     1.7836721     1.7836721


optimized geometry written to: xtbopt.xyz


           -------------------------------------------------
          | TOTAL ENERGY              -13.144555904012 Eh   |
          | GRADIENT NORM               0.000199180222 Eh/α |
          | HOMO-LUMO GAP               3.065729473179 eV   |
           -------------------------------------------------

------------------------------------------------------------------------
 * finished run on 2020/04/08 at 23:04:46.564     
------------------------------------------------------------------------
 total:
 * wall-time:     0 d,  0 h,  0 min,  0.068 sec
 *  cpu-time:     0 d,  0 h,  0 min,  0.051 sec
 * ratio c/w:     0.749 speedup
 SCF:
 * wall-time:     0 d,  0 h,  0 min,  0.003 sec
 *  cpu-time:     0 d,  0 h,  0 min,  0.003 sec
 * ratio c/w:     1.000 speedup
 ANC optimizer:
 * wall-time:     0 d,  0 h,  0 min,  0.041 sec
 *  cpu-time:     0 d,  0 h,  0 min,  0.041 sec
 * ratio c/w:     0.999 speedup

