      -----------------------------------------------------------      
     |                   =====================                   |     
     |                           x T B                           |     
     |                   =====================                   |     
     |                         S. Grimme                         |     
     |          Mulliken Center for Theoretical Chemistry        |     
     |                    University of Bonn                     |     
      -----------------------------------------------------------      

   * xtb version 6.2.3 (830e466) compiled by 'ehlert@majestix' on 2020-03-16

   xtb is free software: you can redistribute it and/or modify it under
   the terms of the GNU Lesser General Public License as published by
   the Free Software Foundation, either version 3 of the License, or
   (at your option) any later version.
   
   xtb is distributed in the hope that it will be useful,
   but WITHOUT ANY WARRANTY; without even the implied warranty of
   MERCHANTABILITY or FITNESS FOR A PARTICULAR PURPOSE.  See the
   GNU Lesser General Public License for more details.
   
   Cite this work as:
   * S. Grimme, C. Bannwarth, P. Shushkov, J. Chem. Theory Comput., 2017,
     13, 1989-2009. DOI: 10.1021/acs.jctc.7b00118
   * C. Bannwarth, S. Ehlert and S. Grimme., J. Chem. Theory Comput., 2019,
     15, 1652-1671. DOI: 10.1021/acs.jctc.8b01176
   * P. Pracht, E. Caldeweyher, S. Ehlert, S. Grimme, ChemRxiv, 2019, preprint.
     DOI: 10.26434/chemrxiv.8326202.v1
   
   for DFT-D4:
   * E. Caldeweyher, C. Bannwarth and S. Grimme, J. Chem. Phys., 2017,
     147, 034112. DOI: 10.1063/1.4993215
   * E. Caldeweyher, S. Ehlert, A. Hansen, H. Neugebauer, S. Spicher,
     C. Bannwarth and S. Grimme, J. Chem. Phys., 2019, 150, 154122.
     DOI: 10.1063/1.5090222
   
   for sTDA-xTB:
   * S. Grimme and C. Bannwarth, J. Chem. Phys., 2016, 145, 054103.
     DOI: 10.1063/1.4959605
   
   in the mass-spec context:
   * V. Asgeirsson, C. Bauer and S. Grimme, Chem. Sci., 2017, 8, 4879.
     DOI: 10.1039/c7sc00601b
   
   for metadynamics refer to:
   * S. Grimme, J. Chem. Theory Comput., 2019, 155, 2847-2862
     DOI: 10.1021/acs.jctc.9b00143
   
   with help from (in alphabetical order)
   C. Bannwarth, F. Bohle, G. Brandenburg, E. Caldeweyher, M. Checinski,
   S. Dohm, S. Ehlert, S. Ehrlich, F. März, H. Neugebauer, J. Pisarek,
   P. Pracht, P. Shushkov, and S. Spicher.
   
 * started run on 2020/04/08 at 13:05:34.604     

           -------------------------------------------------
          |                Calculation Setup                |
           -------------------------------------------------

          program call               : /home/tom/.local/bin/xtb SN2_PES_scan_2-1_xtb.xyz --chrg -1 --opt --input xcontrol_SN2_PES_scan_2-1
          coordinate file            : SN2_PES_scan_2-1_xtb.xyz
          omp threads                :                     2
          number of atoms            :                     6
          number of electrons        :                    22
          charge                     :                    -1
          spin                       :                   0.0
          first test random number   :      0.98564090150384

constraining bond 1 3 to    3.0000000 Å, actual value:    3.4999119 Å
constraining bond 2 3 to    2.2240000 Å, actual value:    1.7800285 Å

molecular fragmentation (1/2 indicates fragments):
122222
# atoms in fragment 1/2:     1     5
 fragment masses (1/2) :       19.00       50.49
CMA distance (Bohr)    :   8.936
constraining FC (au)   : 10.0000
########################################################################
[WARNING] Please study the warnings concerning your input carefully
-2- prog_main: XTBPATH is not set, using XTBHOME instead
-1- prog_main: XTBHOME is not set, using HOME instead
########################################################################
           ------------------------------------------------- 
          |                 G F N 2 - x T B                 |
          | Geometry, Frequencies, Noncovalent interactions |
          |            JCTC 2019 parametrisation            |
           ------------------------------------------------- 
             k(s)              :                1.8500
             k(p)              :                2.2300
             k(d)              :                2.2300
             k(f)              :                2.0000
             kEN (H0ij)        :               -2.0000
             D4 a1             :                0.5200
             D4 a2             :                5.0000
             D4 s6             :                1.0000
             D4 s8             :                2.7000
             D4 s9             :                5.0000
             alphaj            :                2.0000

  Z AO/shell   Hii/eV     exponent
  1     Wed Apr 25 08:07:45 CEST 2018   EN: 2.200 GM2: 0.406  GM3: 0.0800  RAES: 1.40
     1s    -10.707211    1.230000
  6     Wed Apr 25 08:07:45 CEST 2018   EN: 2.550 GM2: 0.538  GM3: 0.1500  RAES: 3.00
     2s    -13.970922    2.096432
     2p    -10.063292    1.800000
  9     Mon Apr 23 13:58:50 CEST 2018   EN: 3.980 GM2: 0.532  GM3: 0.1426  RAES: 2.40
     2s    -23.458179    2.416361
     2p    -15.746583    2.308399
 17     Mon Apr 23 14:09:22 CEST 2018   EN: 3.160 GM2: 0.249  GM3: 0.1495  RAES: 2.50
     3s    -29.278781    2.485265
     3p    -12.673758    2.199650
     3d     -0.240338    2.476089

           ------------------------------------------------- 
          |        Self-Consistent Charge Iterations        |
           ------------------------------------------------- 

          ...................................................
          :                      SETUP                      :
          :.................................................:
          :  # basis functions                  21          :
          :  # atomic orbitals                  20          :
          :  # shells                           10          :
          :  # electrons                        22          :
          :  max. iterations                   250          :
          :  Hamiltonian                  GFN2-xTB          :
          :  restarted?                      false          :
          :  GBSA solvation                  false          :
          :  PC potential                    false          :
          :  electronic temp.          300.0000000     K    :
          :  accuracy                    1.0000000          :
          :  -> integral cutoff          0.2500000E+02      :
          :  -> integral neglect         0.1000000E-07      :
          :  -> SCF convergence          0.1000000E-05 Eh   :
          :  -> wf. convergence          0.1000000E-03 e    :
          :  Broyden damping             0.4000000          :
          ...................................................

 iter      E             dE          RMSdq      gap      omega  full diag
   1    -13.1262358 -0.131262E+02  0.571E+00    5.36       0.0  T
   2    -13.1889323 -0.626965E-01  0.323E+00    2.32       1.0  T
   3    -13.1900327 -0.110047E-02  0.174E+00    1.35       1.0  T
   4    -12.5932396  0.596793E+00  0.688E+00    0.03       1.0  T
   5    -11.8658096  0.727430E+00  0.101E+01    0.00       1.0  T
   6    -11.8923565 -0.265469E-01  0.993E+00    0.00       1.0  T
   7    -11.8774705  0.148860E-01  0.999E+00    0.00       1.0  T
   8    -13.1038799 -0.122641E+01  0.282E+00    0.08       1.0  T
   9    -11.8465835  0.125730E+01  0.103E+01    0.00       1.0  T
  10    -11.8354721  0.111114E-01  0.108E+01    0.00       1.0  T
  11    -11.8412970 -0.582482E-02  0.105E+01    0.00       1.0  T
  12    -11.8543800 -0.130830E-01  0.101E+01    0.00       1.0  T
  13    -13.1904357 -0.133606E+01  0.531E+00    0.84       1.0  T
  14    -13.1905114 -0.756983E-04  0.609E+00    0.66       1.0  T
  15    -13.1878777  0.263376E-02  0.232E+00    3.28       1.0  T
  16    -13.1867005  0.117714E-02  0.180E+00    3.99       1.0  T
  17    -13.1867293 -0.287839E-04  0.179E+00    3.98       1.0  T
  18    -13.1861403  0.589071E-03  0.164E+00    4.22       1.0  T
  19    -13.1861968 -0.565920E-04  0.162E+00    4.19       1.0  T
  20    -13.1867056 -0.508775E-03  0.153E+00    3.91       1.0  T
  21    -13.1868513 -0.145727E-03  0.150E+00    3.83       1.0  T
  22    -13.1875896 -0.738222E-03  0.132E+00    3.39       1.0  T
  23    -13.1887412 -0.115164E-02  0.102E+00    2.59       1.0  T
  24    -13.1897550 -0.101382E-02  0.657E-01    1.64       1.0  T
  25    -13.1903127 -0.557724E-03  0.376E-01    0.92       1.0  T
  26    -13.1905991 -0.286382E-03  0.222E-01    0.53       1.0  T
  27    -13.1908305 -0.231410E-03  0.114E-01    0.34       1.0  T
  28    -13.1908732 -0.426149E-04  0.788E-02    0.32       1.0  T
  29    -13.1908946 -0.214783E-04  0.236E-02    0.30       1.7  T
  30    -13.1908981 -0.342957E-05  0.829E-03    0.28       4.9  T
  31    -13.1908951  0.300763E-05  0.190E-02    0.30       2.2  T
  32    -13.1908928  0.228293E-05  0.245E-02    0.28       1.7  T
  33    -13.1908963 -0.351311E-05  0.152E-02    0.30       2.7  T
  34    -13.1908976 -0.133936E-05  0.101E-02    0.28       4.0  T
  35    -13.1908985 -0.868072E-06  0.356E-03    0.29      11.5  T
  36    -13.1908986 -0.980721E-07  0.179E-03    0.29      22.8  T
  37    -13.1908986  0.222678E-07  0.237E-03    0.29      17.2  T
  38    -13.1908986 -0.457041E-07  0.925E-04    0.29      44.1  T
  39    -13.1908986 -0.791417E-08  0.272E-05    0.29    1502.0  T

   *** convergence criteria satisfied after 39 iterations ***

         #    Occupation            Energy/Eh            Energy/eV
      -------------------------------------------------------------
         1        2.0000           -0.9439494             -25.6862
       ...           ...                  ...                  ...
         5        2.0000           -0.3802840             -10.3481
         6        2.0000           -0.3165065              -8.6126
         7        2.0000           -0.3030340              -8.2460
         8        2.0000           -0.3030246              -8.2457
         9        1.9972           -0.0574176              -1.5624
        10        1.9953           -0.0569327              -1.5492
        11        1.9953           -0.0569324              -1.5492 (HOMO)
        12        0.0122           -0.0463434              -1.2611 (LUMO)
        13                          0.1350553               3.6750
        14                          0.1350596               3.6752
        15                          0.1390295               3.7832
        16                          0.1390324               3.7833
       ...                                ...                  ...
        20                          0.3399544               9.2506
      -------------------------------------------------------------
                  HL-Gap            0.0105890 Eh            0.2881 eV
             Fermi-level           -0.0511822 Eh           -1.3927 eV

 SCC (total)                   0 d,  0 h,  0 min,  0.005 sec
 SCC setup                      ...        0 min,  0.000 sec (  1.499%)
 Dispersion                     ...        0 min,  0.000 sec (  0.314%)
 integral evaluation            ...        0 min,  0.000 sec (  6.902%)
 zeroth order Hamiltonian       ...        0 min,  0.000 sec (  0.279%)
 iterations                     ...        0 min,  0.004 sec ( 69.250%)
 molecular gradient             ...        0 min,  0.001 sec ( 20.345%)
 printout                       ...        0 min,  0.000 sec (  1.004%)

         :::::::::::::::::::::::::::::::::::::::::::::::::::::
         ::                     SUMMARY                     ::
         :::::::::::::::::::::::::::::::::::::::::::::::::::::
         :: total energy               2.829382364421 Eh    ::
         :: gradient norm             43.722074586225 Eh/a0 ::
         :: HOMO-LUMO gap              0.288140785058 eV    ::
         ::.................................................::
         :: SCC energy               -13.190898619478 Eh    ::
         :: -> isotropic ES            0.269481174834 Eh    ::
         :: -> anisotropic ES         -0.001123963925 Eh    ::
         :: -> anisotropic XC          0.000692154561 Eh    ::
         :: -> dispersion             -0.001762689472 Eh    ::
         :: repulsion energy           0.056818978472 Eh    ::
         :: add. restraining          15.963463001581 Eh    ::
         :::::::::::::::::::::::::::::::::::::::::::::::::::::

      ----------------------------------------------------------- 
     |                   =====================                   |
     |                        A N C O P T                        |
     |                   =====================                   |
     |               Approximate Normal Coordinate               |
     |                Rational Function Optimizer                |
      ----------------------------------------------------------- 

          ...................................................
          :                      SETUP                      :
          :.................................................:
          :   optimization level            normal          :
          :   max. optcycles                   200          :
          :   ANC micro-cycles                  20          :
          :   degrees of freedom                12          :
          :.................................................:
          :   RF solver                   davidson          :
          :   write xtbopt.log                true          :
          :   linear?                        false          :
          :   energy convergence         0.5000000E-05 Eh   :
          :   grad. convergence          0.1000000E-02 Eh/α :
          :   maximium RF displ.         1.0000000          :
          :   Hlow (freq-cutoff)         0.1000000E-01      :
          :   Hmax (freq-cutoff)         5.0000000          :
          :   S6 in model hess.         20.0000000          :
          ...................................................

generating ANC from model Hessian ...
Using Lindh-Hessian (1995)
 Shifting diagonal of input Hessian by    5.85438332711844     
 Lowest  eigenvalues of input Hessian
    0.010000    0.010087   -0.000000   -0.000000    0.000000    0.000000
    0.000000    0.000000    5.952304    5.952310    5.978280    6.191384
    6.191418    6.334330    7.120367    7.120517   26.064763   66.720483
 Highest eigenvalues
    6.191418    6.334330    7.120367    7.120517   26.064763   66.720483
 

........................................................................
.............................. CYCLE    1 ..............................
........................................................................
   1    -13.1908986 -0.131909E+02  0.171E-05    0.29       0.0  T
   2    -13.1908986  0.621903E-11  0.293E-05    0.29    1394.0  T
   3    -13.1908986 -0.912337E-11  0.124E-06    0.29   33051.9  T
     SCC iter.                  ...        0 min,  0.000 sec
     gradient                   ...        0 min,  0.000 sec
 * total energy  :     2.8293824 Eh     change        0.4125482E-09 Eh
   gradient norm :    43.7220734 Eh/α   predicted     0.0000000E+00 (-100.00%)
   displ. norm   :     0.9444543 α      lambda       -0.4129348E+02
   maximum displ.:     0.9435574 α      in ANC's #3, #12, #6, ...

........................................................................
.............................. CYCLE    2 ..............................
........................................................................
   1    -12.2190275 -0.122190E+02  0.110E+01    0.00       0.0  T
   2    -12.8749110 -0.655884E+00  0.855E+00    5.24       1.0  T
   3    -13.1149988 -0.240088E+00  0.392E+00    2.74       1.0  T
   4    -13.1491556 -0.341569E-01  0.236E+00    1.76       1.0  T
   5    -12.2511339  0.898022E+00  0.965E+00    0.02       1.0  T
   6    -13.1795866 -0.928453E+00  0.143E+00    0.35       1.0  T
   7    -13.0408167  0.138770E+00  0.446E+00    0.19       1.0  T
   8    -12.2989043  0.741912E+00  0.935E+00    0.04       1.0  T
   9    -12.2732999  0.256043E-01  0.946E+00    0.03       1.0  T
  10    -13.1465255 -0.873226E+00  0.332E+00    2.02       1.0  T
  11    -13.1504277 -0.390226E-02  0.245E+00    2.16       1.0  T
  12    -12.2284870  0.921941E+00  0.976E+00    0.03       1.0  T
  13    -13.1680371 -0.939550E+00  0.140E+00    0.76       1.0  T
  14    -13.1629291  0.510795E-02  0.182E+00    0.29       1.0  T
  15    -13.1659446 -0.301546E-02  0.149E+00    0.80       1.0  T
  16    -13.1844338 -0.184892E-01  0.247E-01    0.42       1.0  T
  17    -13.1774696  0.696424E-02  0.860E-01    0.56       1.0  T
  18    -13.1802440 -0.277446E-02  0.655E-01    0.51       1.0  T
  19    -13.1805466 -0.302600E-03  0.633E-01    0.51       1.0  T
  20    -13.1844969 -0.395025E-02  0.298E-01    0.42       1.0  T
  21    -13.1843988  0.981063E-04  0.459E-01    0.39       1.0  T
  22    -13.1839158  0.482986E-03  0.571E-01    0.37       1.0  T
  23    -13.1839010  0.148077E-04  0.574E-01    0.37       1.0  T
  24    -13.1841388 -0.237798E-03  0.525E-01    0.38       1.0  T
  25    -13.1843305 -0.191757E-03  0.476E-01    0.38       1.0  T
  26    -13.1844580 -0.127437E-03  0.429E-01    0.39       1.0  T
  27    -13.1845277 -0.696849E-04  0.386E-01    0.39       1.0  T
  28    -13.1845775 -0.498868E-04  0.320E-01    0.40       1.0  T
  29    -13.1846059 -0.283799E-04  0.206E-01    0.40       1.0  T
  30    -13.1846085 -0.259378E-05  0.721E-02    0.41       1.0  T
  31    -13.1846060  0.248014E-05  0.210E-02    0.41       1.9  T
  32    -13.1846084 -0.239354E-05  0.171E-02    0.41       2.4  T
  33    -13.1846101 -0.167254E-05  0.802E-03    0.41       5.1  T
  34    -13.1846106 -0.536227E-06  0.116E-03    0.41      35.1  T
  35    -13.1846107 -0.112294E-07  0.418E-04    0.41      97.8  T
     SCC iter.                  ...        0 min,  0.003 sec
     gradient                   ...        0 min,  0.001 sec
 * total energy  :   -11.6893934 Eh     change       -0.1451878E+02 Eh
   gradient norm :    13.0042098 Eh/α   predicted    -0.3906352E+02 ( 169.06%)
   displ. norm   :     0.2422043 α      lambda       -0.2801367E+01
   maximum displ.:     0.2086431 α      in ANC's #3, #12, #6, ...

........................................................................
.............................. CYCLE    3 ..............................
........................................................................
   1    -13.1750726 -0.131751E+02  0.194E+00    1.36       0.0  T
   2    -12.1937703  0.981302E+00  0.950E+00    0.03       1.0  T
   3    -13.1718004 -0.978030E+00  0.181E+00    1.18       1.0  T
   4    -13.1762521 -0.445173E-02  0.152E+00    1.01       1.0  T
   5    -13.1863297 -0.100776E-01  0.894E-01    0.58       1.0  T
   6    -13.1897642 -0.343449E-02  0.672E-01    0.50       1.0  T
   7    -13.1906974 -0.933183E-03  0.602E-01    0.48       1.0  T
   8    -12.9219351  0.268762E+00  0.521E+00    0.14       1.0  T
   9    -12.6828290  0.239106E+00  0.699E+00    0.11       1.0  T
  10    -12.6276994  0.551297E-01  0.729E+00    0.10       1.0  T
  11    -12.6839124 -0.562130E-01  0.694E+00    0.11       1.0  T
  12    -12.6901300 -0.621756E-02  0.691E+00    0.11       1.0  T
  13    -12.7758734 -0.857435E-01  0.630E+00    0.13       1.0  T
  14    -13.0753573 -0.299484E+00  0.325E+00    0.21       1.0  T
  15    -13.1801636 -0.104806E+00  0.126E+00    0.29       1.0  T
  16    -13.1786894  0.147424E-02  0.119E+00    0.28       1.0  T
  17    -13.1828482 -0.415881E-02  0.104E+00    0.28       1.0  T
  18    -13.1902734 -0.742516E-02  0.633E-01    0.30       1.0  T
  19    -13.1926142 -0.234085E-02  0.442E-01    0.32       1.0  T
  20    -13.1937193 -0.110512E-02  0.303E-01    0.33       1.0  T
  21    -13.1942643 -0.544939E-03  0.200E-01    0.34       1.0  T
  22    -13.1945203 -0.256076E-03  0.123E-01    0.35       1.0  T
  23    -13.1946276 -0.107294E-03  0.692E-02    0.35       1.0  T
  24    -13.1946644 -0.367590E-04  0.349E-02    0.36       1.2  T
  25    -13.1946746 -0.102112E-04  0.149E-02    0.36       2.7  T
  26    -13.1946768 -0.218663E-05  0.306E-03    0.36      13.4  T
  27    -13.1946769 -0.958158E-07  0.485E-05    0.36     841.8  T
     SCC iter.                  ...        0 min,  0.002 sec
     gradient                   ...        0 min,  0.000 sec
 * total energy  :   -13.0439083 Eh     change       -0.1354515E+01 Eh
   gradient norm :     1.7146831 Eh/α   predicted    -0.1482852E+01 (   9.47%)
   displ. norm   :     0.2696098 α      lambda       -0.4576816E+00
   maximum displ.:     0.2656509 α      in ANC's #12, #3, #6, ...

........................................................................
.............................. CYCLE    4 ..............................
........................................................................
   1    -12.3933550 -0.123934E+02  0.839E+00    0.06       0.0  T
   2    -12.9500537 -0.556699E+00  0.764E+00    5.11       1.0  T
   3    -13.1337761 -0.183722E+00  0.398E+00    3.32       1.0  T
   4    -13.1498374 -0.160612E-01  0.309E+00    3.17       1.0  T
   5    -13.1552814 -0.544399E-02  0.242E+00    2.24       1.0  T
   6    -13.1552236  0.577981E-04  0.243E+00    2.25       1.0  T
   7    -12.1623068  0.992917E+00  0.972E+00    0.00       1.0  T
   8    -12.2071128 -0.448060E-01  0.927E+00    0.02       1.0  T
   9    -13.1569652 -0.949852E+00  0.229E+00    2.08       1.0  T
  10    -13.1576829 -0.717720E-03  0.222E+00    1.89       1.0  T
  11    -13.1563773  0.130557E-02  0.235E+00    2.28       1.0  T
  12    -13.1562628  0.114509E-03  0.236E+00    2.31       1.0  T
  13    -13.1592752 -0.301239E-02  0.212E+00    1.56       1.0  T
  14    -13.1714094 -0.121342E-01  0.156E+00    0.55       1.0  T
  15    -13.1892264 -0.178170E-01  0.364E-01    0.26       1.0  T
  16    -13.1685380  0.206884E-01  0.168E+00    0.63       1.0  T
  17    -13.1792337 -0.106956E-01  0.119E+00    0.40       1.0  T
  18    -13.1805464 -0.131278E-02  0.112E+00    0.38       1.0  T
  19    -13.1766474  0.389903E-02  0.132E+00    0.44       1.0  T
  20    -13.1803792 -0.373175E-02  0.113E+00    0.39       1.0  T
  21    -13.1744664  0.591276E-02  0.148E+00    0.48       1.0  T
  22    -13.1732808  0.118557E-02  0.155E+00    0.51       1.0  T
  23    -13.1774452 -0.416436E-02  0.132E+00    0.43       1.0  T
  24    -13.1847096 -0.726436E-02  0.831E-01    0.33       1.0  T
  25    -13.1857180 -0.100842E-02  0.719E-01    0.32       1.0  T
  26    -13.1890826 -0.336464E-02  0.130E-01    0.25       1.0  T
  27    -13.1792518  0.983080E-02  0.112E+00    0.40       1.0  T
  28    -13.0470886  0.132163E+00  0.373E+00    0.13       1.0  T
  29    -13.1578444 -0.110756E+00  0.223E+00    1.94       1.0  T
  30    -13.1675583 -0.971394E-02  0.166E+00    0.70       1.0  T
  31    -13.1470738  0.204845E-01  0.209E+00    0.17       1.0  T
  32    -13.1626660 -0.155921E-01  0.191E+00    1.07       1.0  T
  33    -13.1881821 -0.255161E-01  0.332E-01    0.28       1.0  T
  34    -13.1487500  0.394321E-01  0.204E+00    0.17       1.0  T
  35    -13.1634735 -0.147235E-01  0.186E+00    0.98       1.0  T
  36    -13.1886184 -0.251449E-01  0.251E-01    0.28       1.0  T
  37    -13.1635337  0.250847E-01  0.164E+00    0.18       1.0  T
  38    -13.1664263 -0.289261E-02  0.171E+00    0.76       1.0  T
  39    -13.1861014 -0.196751E-01  0.606E-01    0.22       1.0  T
  40    -13.1821198  0.398159E-02  0.901E-01    0.36       1.0  T
  41    -13.0829867  0.991332E-01  0.326E+00    0.14       1.0  T
  42    -13.1603467 -0.773600E-01  0.203E+00    1.41       1.0  T
  43    -13.1742929 -0.139462E-01  0.132E+00    0.49       1.0  T
  44    -13.1233789  0.509140E-01  0.260E+00    0.15       1.0  T
  45    -13.1626086 -0.392297E-01  0.189E+00    1.07       1.0  T
  46    -13.1830066 -0.203980E-01  0.823E-01    0.35       1.0  T
  47    -13.0652279  0.117779E+00  0.351E+00    0.13       1.0  T
  48    -13.1599040 -0.946761E-01  0.206E+00    1.49       1.0  T
  49    -13.1727763 -0.128723E-01  0.139E+00    0.52       1.0  T
  50    -13.1540756  0.187008E-01  0.193E+00    0.17       1.0  T
  51    -13.1665071 -0.124315E-01  0.169E+00    0.75       1.0  T
  52    -13.1890825 -0.225754E-01  0.181E-01    0.24       1.0  T
  53    -13.1863560  0.272651E-02  0.575E-01    0.22       1.0  T
  54    -13.1848442  0.151178E-02  0.702E-01    0.33       1.0  T
  55    -13.1579807  0.268636E-01  0.181E+00    0.17       1.0  T
  56    -13.1678758 -0.989517E-02  0.163E+00    0.68       1.0  T
  57    -13.1890652 -0.211894E-01  0.133E-01    0.27       1.0  T
  58    -13.1734152  0.156501E-01  0.130E+00    0.19       1.0  T
  59    -13.1733206  0.945525E-04  0.138E+00    0.51       1.0  T
  60    -13.1861674 -0.128468E-01  0.598E-01    0.22       1.0  T
  61    -13.1868945 -0.727111E-03  0.507E-01    0.30       1.0  T
  62    -13.1698814  0.170131E-01  0.143E+00    0.18       1.0  T
  63    -13.1723648 -0.248340E-02  0.143E+00    0.53       1.0  T
  64    -13.1888720 -0.165073E-01  0.231E-01    0.24       1.0  T
  65    -13.1883613  0.510780E-03  0.325E-01    0.23       1.0  T
  66    -13.1888511 -0.489800E-03  0.209E-01    0.27       1.0  T
  67    -13.1863625  0.248858E-02  0.563E-01    0.22       1.0  T
  68    -13.1855188  0.843669E-03  0.650E-01    0.32       1.0  T
  69    -13.1844509  0.106789E-02  0.723E-01    0.21       1.0  T
  70    -13.1837843  0.666623E-03  0.789E-01    0.34       1.0  T
  71    -13.1847375 -0.953169E-03  0.703E-01    0.21       1.0  T
  72    -13.1847301  0.736885E-05  0.715E-01    0.33       1.0  T
  73    -13.1841555  0.574587E-03  0.746E-01    0.21       1.0  T
  74    -13.1842053 -0.498016E-04  0.757E-01    0.34       1.0  T
  75    -13.1848870 -0.681686E-03  0.692E-01    0.21       1.0  T
  76    -13.1853173 -0.430258E-03  0.666E-01    0.32       1.0  T
  77    -13.1848723  0.444917E-03  0.692E-01    0.21       1.0  T
  78    -13.1852749 -0.402521E-03  0.670E-01    0.32       1.0  T
  79    -13.1856328 -0.357971E-03  0.631E-01    0.22       1.0  T
  80    -13.1862321 -0.599266E-03  0.582E-01    0.31       1.0  T
  81    -13.1860196  0.212537E-03  0.596E-01    0.22       1.0  T
  82    -13.1865653 -0.545732E-03  0.549E-01    0.31       1.0  T
  83    -13.1866753 -0.109979E-03  0.533E-01    0.22       1.0  T
  84    -13.1872573 -0.582041E-03  0.473E-01    0.30       1.0  T
  85    -13.1872287  0.286304E-04  0.473E-01    0.23       1.0  T
  86    -13.1877444 -0.515729E-03  0.411E-01    0.29       1.0  T
  87    -13.1877806 -0.362067E-04  0.404E-01    0.23       1.0  T
  88    -13.1882278 -0.447192E-03  0.339E-01    0.28       1.0  T
  89    -13.1882618 -0.339565E-04  0.333E-01    0.23       1.0  T
  90    -13.1886115 -0.349774E-03  0.269E-01    0.28       1.0  T
  91    -13.1886513 -0.397752E-04  0.261E-01    0.24       1.0  T
  92    -13.1888974 -0.246130E-03  0.202E-01    0.27       1.0  T
  93    -13.1889332 -0.357166E-04  0.192E-01    0.24       1.0  T
  94    -13.1890842 -0.151009E-03  0.142E-01    0.27       1.0  T
  95    -13.1891103 -0.261059E-04  0.132E-01    0.25       1.0  T
  96    -13.1891891 -0.787816E-04  0.932E-02    0.26       1.0  T
  97    -13.1892045 -0.154033E-04  0.840E-02    0.25       1.0  T
  98    -13.1892389 -0.344105E-04  0.567E-02    0.26       1.0  T
  99    -13.1892462 -0.734373E-05  0.494E-02    0.25       1.0  T
 100    -13.1892588 -0.125933E-04  0.321E-02    0.26       1.3  T
 101    -13.1892618 -0.295509E-05  0.268E-02    0.25       1.5  T
 102    -13.1892658 -0.401953E-05  0.164E-02    0.26       2.5  T
 103    -13.1892669 -0.107390E-05  0.124E-02    0.25       3.3  T
 104    -13.1892679 -0.106383E-05  0.590E-03    0.26       6.9  T
 105    -13.1892682 -0.232628E-06  0.310E-03    0.25      13.2  T
     SCC iter.                  ...        0 min,  0.035 sec
     gradient                   ...        0 min,  0.000 sec
 * total energy  :   -12.7321231 Eh     change        0.3117851E+00 Eh
   gradient norm :     4.3218566 Eh/α   predicted    -0.2454751E+00 (-178.73%)
   displ. norm   :     0.1811486 α      lambda       -0.7369276E+00
   maximum displ.:     0.1775496 α      in ANC's #12, #3, #6, ...

........................................................................
.............................. CYCLE    5 ..............................
........................................................................
   1    -13.1814251 -0.131814E+02  0.116E+00    0.54       0.0  T
   2    -12.1728623  0.100856E+01  0.953E+00    0.02       1.0  T
   3    -13.1828942 -0.101003E+01  0.988E-01    0.51       1.0  T
   4    -13.1888859 -0.599164E-02  0.494E-01    0.39       1.0  T
   5    -13.1908894 -0.200348E-02  0.268E-01    0.35       1.0  T
   6    -13.1908586  0.307218E-04  0.280E-01    0.35       1.0  T
   7    -13.1448110  0.460477E-01  0.207E+00    0.21       1.0  T
   8    -13.1909217 -0.461108E-01  0.324E-01    0.31       1.0  T
   9    -13.1874057  0.351606E-02  0.612E-01    0.28       1.0  T
  10    -13.1896643 -0.225867E-02  0.410E-01    0.29       1.0  T
  11    -13.1907496 -0.108523E-02  0.277E-01    0.30       1.0  T
  12    -13.1911222 -0.372669E-03  0.222E-01    0.30       1.0  T
  13    -13.1913596 -0.237375E-03  0.150E-01    0.31       1.0  T
  14    -13.1915205 -0.160890E-03  0.606E-02    0.32       1.0  T
  15    -13.1915480 -0.274547E-04  0.233E-02    0.32       1.7  T
  16    -13.1915525 -0.452731E-05  0.655E-03    0.32       6.2  T
  17    -13.1915529 -0.399312E-06  0.129E-04    0.32     317.2  T
  18    -13.1915529 -0.131450E-09  0.926E-05    0.32     440.7  T
     SCC iter.                  ...        0 min,  0.001 sec
     gradient                   ...        0 min,  0.000 sec
 * total energy  :   -13.1129953 Eh     change       -0.3808722E+00 Eh
   gradient norm :     0.1466348 Eh/α   predicted    -0.3805549E+00 (  -0.08%)
   displ. norm   :     0.0130408 α      lambda       -0.1514495E-02
   maximum displ.:     0.0110938 α      in ANC's #6, #12, #1, ...

........................................................................
.............................. CYCLE    6 ..............................
........................................................................
   1    -13.1902015 -0.131902E+02  0.174E-01    0.34       0.0  T
   2    -13.1308597  0.593418E-01  0.256E+00    0.19       1.0  T
   3    -13.1902719 -0.594122E-01  0.143E-01    0.34       1.0  T
   4    -13.1903701 -0.982045E-04  0.913E-02    0.34       1.0  T
   5    -13.1904379 -0.678362E-04  0.194E-02    0.33       2.1  T
   6    -13.1904413 -0.345355E-05  0.612E-03    0.33       6.7  T
   7    -13.1904246  0.167311E-04  0.429E-02    0.32       1.0  T
   8    -13.1904363 -0.116869E-04  0.241E-02    0.32       1.7  T
   9    -13.1904391 -0.279572E-05  0.168E-02    0.32       2.4  T
  10    -13.1904414 -0.228777E-05  0.546E-03    0.33       7.5  T
  11    -13.1904416 -0.216335E-06  0.279E-03    0.33      14.6  T
     SCC iter.                  ...        0 min,  0.001 sec
     gradient                   ...        0 min,  0.000 sec
 * total energy  :   -13.1140293 Eh     change       -0.1033934E-02 Eh
   gradient norm :     0.0504794 Eh/α   predicted    -0.7573755E-03 ( -26.75%)
   displ. norm   :     0.0595834 α      lambda       -0.1118766E-02
   maximum displ.:     0.0546161 α      in ANC's #1, #6, #2, ...

........................................................................
.............................. CYCLE    7 ..............................
........................................................................
   1    -13.1876985 -0.131877E+02  0.213E-01    0.35       0.0  T
   2    -13.1307916  0.569069E-01  0.250E+00    0.19       1.0  T
   3    -13.1876774 -0.568858E-01  0.192E-01    0.35       1.0  T
   4    -13.1878455 -0.168104E-03  0.106E-01    0.34       1.0  T
   5    -13.1879347 -0.891985E-04  0.200E-02    0.33       2.0  T
   6    -13.1879335  0.120245E-05  0.283E-02    0.33       1.4  T
   7    -13.1879132  0.202467E-04  0.558E-02    0.32       1.0  T
   8    -13.1879353 -0.220208E-04  0.190E-02    0.33       2.2  T
   9    -13.1879372 -0.195765E-05  0.123E-02    0.33       3.3  T
  10    -13.1879369  0.330095E-06  0.134E-02    0.33       3.0  T
  11    -13.1879386 -0.167088E-05  0.252E-03    0.33      16.2  T
  12    -13.1879386 -0.497580E-07  0.116E-03    0.33      35.2  T
     SCC iter.                  ...        0 min,  0.001 sec
     gradient                   ...        0 min,  0.004 sec
 * total energy  :   -13.1145470 Eh     change       -0.5177535E-03 Eh
   gradient norm :     0.0808969 Eh/α   predicted    -0.5613694E-03 (   8.42%)
   displ. norm   :     0.4381179 α      lambda       -0.1412712E-01
   maximum displ.:     0.3230455 α      in ANC's #1, #6, #2, ...

........................................................................
.............................. CYCLE    8 ..............................
........................................................................
   1    -13.1396471 -0.131396E+02  0.143E+00    0.55       0.0  T
   2    -12.1139601  0.102569E+01  0.946E+00    0.03       1.0  T
   3    -13.1382440 -0.102428E+01  0.128E+00    0.63       1.0  T
   4    -13.1391308 -0.886773E-03  0.110E+00    0.59       1.0  T
   5    -13.1440273 -0.489649E-02  0.755E-01    0.49       1.0  T
   6    -13.1472988 -0.327155E-02  0.506E-01    0.42       1.0  T
   7    -13.1471243  0.174512E-03  0.524E-01    0.42       1.0  T
   8    -12.9179452  0.229179E+00  0.469E+00    0.15       1.0  T
   9    -12.9342551 -0.163099E-01  0.452E+00    0.15       1.0  T
  10    -13.1426290 -0.208374E+00  0.805E-01    0.28       1.0  T
  11    -13.1497422 -0.711320E-02  0.262E-01    0.37       1.0  T
  12    -13.1500404 -0.298131E-03  0.474E-02    0.35       1.0  T
  13    -13.1483236  0.171681E-02  0.404E-01    0.30       1.0  T
  14    -13.1495283 -0.120478E-02  0.218E-01    0.32       1.0  T
  15    -13.1499203 -0.391942E-03  0.116E-01    0.33       1.0  T
  16    -13.1500064 -0.860892E-04  0.787E-02    0.33       1.0  T
  17    -13.1500286 -0.222608E-04  0.617E-02    0.33       1.0  T
  18    -13.1500409 -0.122540E-04  0.489E-02    0.34       1.0  T
  19    -13.1500509 -0.100518E-04  0.366E-02    0.34       1.1  T
  20    -13.1500603 -0.932060E-05  0.196E-02    0.34       2.1  T
  21    -13.1500637 -0.347955E-05  0.499E-03    0.34       8.2  T
  22    -13.1500640 -0.237221E-06  0.564E-04    0.34      72.4  T
     SCC iter.                  ...        0 min,  0.002 sec
     gradient                   ...        0 min,  0.000 sec
 * total energy  :   -13.0949381 Eh     change        0.1960890E-01 Eh
   gradient norm :     0.7487965 Eh/α   predicted    -0.8418831E-02 (-142.93%)
   displ. norm   :     0.2297788 α      lambda       -0.2834582E-01
   maximum displ.:     0.1698133 α      in ANC's #6, #1, #12, ...

........................................................................
.............................. CYCLE    9 ..............................
........................................................................
   1    -13.1526111 -0.131526E+02  0.165E+00    0.23       0.0  T
   2    -13.1339884  0.186228E-01  0.267E+00    1.97       1.0  T
   3    -13.1557856 -0.217973E-01  0.160E+00    0.91       1.0  T
   4    -13.1617553 -0.596968E-02  0.126E+00    0.63       1.0  T
   5    -12.1757801  0.985975E+00  0.935E+00    0.03       1.0  T
   6    -12.1782901 -0.251004E-02  0.934E+00    0.03       1.0  T
   7    -13.1646007 -0.986311E+00  0.111E+00    0.25       1.0  T
   8    -13.1611015  0.349921E-02  0.126E+00    0.64       1.0  T
   9    -13.1673944 -0.629295E-02  0.865E-01    0.49       1.0  T
  10    -13.1674408 -0.463638E-04  0.850E-01    0.48       1.0  T
  11    -13.1674102  0.306012E-04  0.840E-01    0.48       1.0  T
  12    -13.1708338 -0.342358E-02  0.551E-01    0.41       1.0  T
  13    -13.1719109 -0.107712E-02  0.451E-01    0.39       1.0  T
  14    -13.1734087 -0.149778E-02  0.296E-01    0.36       1.0  T
  15    -13.1740277 -0.618969E-03  0.255E-01    0.33       1.0  T
  16    -13.1741049 -0.772883E-04  0.271E-01    0.32       1.0  T
  17    -13.1740858  0.191182E-04  0.274E-01    0.32       1.0  T
  18    -13.1740658  0.199994E-04  0.223E-01    0.32       1.0  T
  19    -13.1741005 -0.346751E-04  0.609E-02    0.33       1.0  T
  20    -13.1740990  0.147300E-05  0.317E-02    0.33       1.3  T
  21    -13.1740988  0.222064E-06  0.358E-02    0.33       1.1  T
  22    -13.1741024 -0.356954E-05  0.226E-02    0.33       1.8  T
  23    -13.1741053 -0.290993E-05  0.411E-03    0.33       9.9  T
  24    -13.1741044  0.860480E-06  0.126E-02    0.33       3.2  T
  25    -13.1741053 -0.875409E-06  0.205E-03    0.33      20.0  T
     SCC iter.                  ...        0 min,  0.002 sec
     gradient                   ...        0 min,  0.000 sec
 * total energy  :   -13.1146265 Eh     change       -0.1968839E-01 Eh
   gradient norm :     0.2115472 Eh/α   predicted    -0.1492118E-01 ( -24.21%)
   displ. norm   :     0.4313434 α      lambda       -0.1065368E-01
   maximum displ.:     0.3768202 α      in ANC's #2, #1, #6, ...

........................................................................
.............................. CYCLE   10 ..............................
........................................................................
   1    -13.0835685 -0.130836E+02  0.342E+00    0.17       0.0  T
   2    -13.1069538 -0.233853E-01  0.403E+00    3.92       1.0  T
   3    -13.1543019 -0.473481E-01  0.230E+00    2.04       1.0  T
   4    -13.1570424 -0.274050E-02  0.198E+00    1.27       1.0  T
   5    -12.1507494  0.100629E+01  0.976E+00    0.01       1.0  T
   6    -12.1520612 -0.131185E-02  0.973E+00    0.01       1.0  T
   7    -13.1536712 -0.100161E+01  0.202E+00    1.47       1.0  T
   8    -13.1540299 -0.358714E-03  0.201E+00    1.64       1.0  T
   9    -13.1555646 -0.153477E-02  0.187E+00    1.40       1.0  T
  10    -13.1575450 -0.198040E-02  0.173E+00    1.16       1.0  T
  11    -13.1581746 -0.629544E-03  0.169E+00    1.10       1.0  T
  12    -13.1580502  0.124386E-03  0.170E+00    1.11       1.0  T
  13    -13.1689163 -0.108661E-01  0.115E+00    0.57       1.0  T
  14    -13.1364033  0.325130E-01  0.237E+00    0.19       1.0  T
  15    -13.1596482 -0.232449E-01  0.165E+00    1.00       1.0  T
  16    -13.1750975 -0.154494E-01  0.818E-01    0.45       1.0  T
  17    -13.1687076  0.638991E-02  0.133E+00    0.23       1.0  T
  18    -13.1697924 -0.108474E-02  0.116E+00    0.56       1.0  T
  19    -13.1814244 -0.116320E-01  0.331E-01    0.29       1.0  T
  20    -13.1811120  0.312374E-03  0.253E-01    0.34       1.0  T
  21    -13.1817205 -0.608547E-03  0.199E-01    0.30       1.0  T
  22    -13.1809637  0.756892E-03  0.285E-01    0.35       1.0  T
  23    -13.1817892 -0.825524E-03  0.723E-02    0.32       1.0  T
  24    -13.1814369  0.352246E-03  0.194E-01    0.34       1.0  T
  25    -13.1817990 -0.362068E-03  0.493E-02    0.32       1.0  T
  26    -13.1817635  0.355136E-04  0.817E-02    0.32       1.0  T
  27    -13.1818222 -0.586983E-04  0.223E-02    0.31       1.8  T
  28    -13.1818261 -0.391465E-05  0.480E-03    0.32       8.5  T
  29    -13.1817794  0.466800E-04  0.756E-02    0.31       1.0  T
  30    -13.1818161 -0.366673E-04  0.367E-02    0.31       1.1  T
  31    -13.1818241 -0.797567E-05  0.177E-02    0.31       2.3  T
  32    -13.1818262 -0.210313E-05  0.465E-03    0.32       8.8  T
     SCC iter.                  ...        0 min,  0.002 sec
     gradient                   ...        0 min,  0.013 sec
 * total energy  :   -13.0879810 Eh     change        0.2664554E-01 Eh
   gradient norm :     0.7459849 Eh/α   predicted    -0.6318080E-02 (-123.71%)
   displ. norm   :     0.3816394 α      lambda       -0.8545703E-01
   maximum displ.:     0.3740916 α      in ANC's #2, #6, #1, ...

........................................................................
.............................. CYCLE   11 ..............................
........................................................................
   1    -13.1730396 -0.131730E+02  0.127E+00    0.47       0.0  T
   2    -12.1784913  0.994548E+00  0.937E+00    0.03       1.0  T
   3    -13.1709298 -0.992439E+00  0.113E+00    0.52       1.0  T
   4    -13.1720031 -0.107330E-02  0.884E-01    0.49       1.0  T
   5    -13.1770815 -0.507836E-02  0.494E-01    0.40       1.0  T
   6    -13.1774657 -0.384262E-03  0.457E-01    0.39       1.0  T
   7    -13.1764841  0.981580E-03  0.564E-01    0.40       1.0  T
   8    -13.1212280  0.552561E-01  0.239E+00    0.20       1.0  T
   9    -13.1753869 -0.541589E-01  0.651E-01    0.27       1.0  T
  10    -13.1793859 -0.399892E-02  0.190E-01    0.31       1.0  T
  11    -13.1791379  0.247995E-03  0.238E-01    0.30       1.0  T
  12    -13.1795223 -0.384417E-03  0.146E-01    0.31       1.0  T
  13    -13.1796438 -0.121558E-03  0.103E-01    0.32       1.0  T
  14    -13.1796663 -0.224752E-04  0.927E-02    0.32       1.0  T
  15    -13.1797184 -0.520950E-04  0.564E-02    0.32       1.0  T
  16    -13.1797357 -0.172540E-04  0.382E-02    0.32       1.1  T
  17    -13.1797433 -0.767640E-05  0.252E-02    0.32       1.6  T
  18    -13.1797485 -0.510521E-05  0.816E-03    0.33       5.0  T
  19    -13.1797491 -0.630180E-06  0.408E-04    0.33     100.1  T
  20    -13.1797491  0.158548E-07  0.139E-03    0.33      29.4  T
     SCC iter.                  ...        0 min,  0.001 sec
     gradient                   ...        0 min,  0.000 sec
 * total energy  :   -13.1164799 Eh     change       -0.2849898E-01 Eh
   gradient norm :     0.0959802 Eh/α   predicted    -0.4895170E-01 (  71.77%)
   displ. norm   :     0.4775003 α      lambda       -0.1006574E-01
   maximum displ.:     0.3922317 α      in ANC's #1, #2, #6, ...

........................................................................
.............................. CYCLE   12 ..............................
........................................................................
   1    -13.1524429 -0.131524E+02  0.112E+00    0.37       0.0  T
   2    -12.4698643  0.682579E+00  0.794E+00    0.08       1.0  T
   3    -13.1491172 -0.679253E+00  0.991E-01    0.45       1.0  T
   4    -13.1453779  0.373936E-02  0.104E+00    0.51       1.0  T
   5    -13.1456414 -0.263514E-03  0.984E-01    0.52       1.0  T
   6    -13.1489086 -0.326717E-02  0.744E-01    0.45       1.0  T
   7    -13.1515345 -0.262595E-02  0.521E-01    0.40       1.0  T
   8    -13.1499153  0.161925E-02  0.657E-01    0.43       1.0  T
   9    -13.1539855 -0.407028E-02  0.240E-01    0.31       1.0  T
  10    -13.1541949 -0.209386E-03  0.146E-01    0.31       1.0  T
  11    -13.1502130  0.398196E-02  0.658E-01    0.27       1.0  T
  12    -13.1515783 -0.136531E-02  0.536E-01    0.28       1.0  T
  13    -13.1534537 -0.187544E-02  0.302E-01    0.30       1.0  T
  14    -13.1541080 -0.654281E-03  0.160E-01    0.31       1.0  T
  15    -13.1543155 -0.207556E-03  0.753E-02    0.32       1.0  T
  16    -13.1543721 -0.565633E-04  0.204E-02    0.32       2.0  T
  17    -13.1543763 -0.422986E-05  0.669E-03    0.33       6.1  T
  18    -13.1543767 -0.333878E-06  0.251E-03    0.33      16.3  T
  19    -13.1543767 -0.446275E-07  0.127E-03    0.33      32.2  T
     SCC iter.                  ...        0 min,  0.001 sec
     gradient                   ...        0 min,  0.000 sec
 * total energy  :   -13.0992413 Eh     change        0.1723860E-01 Eh
   gradient norm :     0.4245351 Eh/α   predicted    -0.6180412E-02 (-135.85%)
   displ. norm   :     0.3334053 α      lambda       -0.3378779E-01
   maximum displ.:     0.2917556 α      in ANC's #1, #2, #6, ...

........................................................................
.............................. CYCLE   13 ..............................
........................................................................
   1    -13.1717151 -0.131717E+02  0.777E-01    0.36       0.0  T
   2    -13.0542434  0.117472E+00  0.356E+00    0.16       1.0  T
   3    -13.1703694 -0.116126E+00  0.627E-01    0.39       1.0  T
   4    -13.1699920  0.377471E-03  0.517E-01    0.40       1.0  T
   5    -13.1710227 -0.103070E-02  0.368E-01    0.38       1.0  T
   6    -13.1722394 -0.121674E-02  0.364E-02    0.33       1.1  T
   7    -13.1721825  0.568786E-04  0.980E-02    0.32       1.0  T
   8    -13.1717647  0.417817E-03  0.220E-01    0.31       1.0  T
   9    -13.1722121 -0.447357E-03  0.525E-02    0.32       1.0  T
  10    -13.1722388 -0.267016E-04  0.101E-02    0.33       4.0  T
  11    -13.1722193  0.194545E-04  0.462E-02    0.34       1.0  T
  12    -13.1722361 -0.168025E-04  0.196E-02    0.33       2.1  T
  13    -13.1722398 -0.369800E-05  0.477E-04    0.33      85.6  T
  14    -13.1722398  0.303584E-07  0.185E-03    0.33      22.1  T
     SCC iter.                  ...        0 min,  0.001 sec
     gradient                   ...        0 min,  0.000 sec
 * total energy  :   -13.1158501 Eh     change       -0.1660880E-01 Eh
   gradient norm :     0.2741505 Eh/α   predicted    -0.1877183E-01 (  13.02%)
   displ. norm   :     0.1791479 α      lambda       -0.7396970E-02
   maximum displ.:     0.1148766 α      in ANC's #1, #2, #6, ...

........................................................................
.............................. CYCLE   14 ..............................
........................................................................
   1    -13.1537609 -0.131538E+02  0.183E+00    0.22       0.0  T
   2    -13.1381277  0.156331E-01  0.287E+00    2.21       1.0  T
   3    -13.1606635 -0.225358E-01  0.177E+00    1.06       1.0  T
   4    -13.1671077 -0.644422E-02  0.140E+00    0.67       1.0  T
   5    -12.1776338  0.989474E+00  0.940E+00    0.03       1.0  T
   6    -12.1775040  0.129795E-03  0.940E+00    0.03       1.0  T
   7    -13.1806101 -0.100311E+01  0.479E-01    0.29       1.0  T
   8    -13.1664231  0.141870E-01  0.138E+00    0.69       1.0  T
   9    -13.1706180 -0.419494E-02  0.114E+00    0.57       1.0  T
  10    -13.1720831 -0.146512E-02  0.103E+00    0.53       1.0  T
  11    -13.1723367 -0.253566E-03  0.101E+00    0.53       1.0  T
  12    -13.1753614 -0.302468E-02  0.796E-01    0.46       1.0  T
  13    -13.1771624 -0.180106E-02  0.666E-01    0.43       1.0  T
  14    -13.1780758 -0.913348E-03  0.596E-01    0.41       1.0  T
  15    -13.1789954 -0.919673E-03  0.518E-01    0.39       1.0  T
  16    -13.1798908 -0.895301E-03  0.431E-01    0.38       1.0  T
  17    -13.1806525 -0.761747E-03  0.338E-01    0.36       1.0  T
  18    -13.1813484 -0.695906E-03  0.236E-01    0.35       1.0  T
  19    -13.1817269 -0.378511E-03  0.158E-01    0.34       1.0  T
  20    -13.1818629 -0.136034E-03  0.797E-02    0.33       1.0  T
  21    -13.1818863 -0.233963E-04  0.386E-02    0.33       1.1  T
  22    -13.1818949 -0.851013E-05  0.185E-03    0.32      22.1  T
  23    -13.1818936  0.129457E-05  0.120E-02    0.32       3.4  T
  24    -13.1818937 -0.181587E-06  0.118E-02    0.32       3.5  T
  25    -13.1818949 -0.110789E-05  0.167E-03    0.32      24.5  T
  26    -13.1818949 -0.118693E-07  0.810E-04    0.32      50.4  T
     SCC iter.                  ...        0 min,  0.003 sec
     gradient                   ...        0 min,  0.000 sec
 * total energy  :   -13.1138495 Eh     change        0.2000616E-02 Eh
   gradient norm :     0.3068513 Eh/α   predicted    -0.3817194E-02 (-290.80%)
   displ. norm   :     0.1304700 α      lambda       -0.9894397E-02
   maximum displ.:     0.0821306 α      in ANC's #1, #2, #6, ...

........................................................................
.............................. CYCLE   15 ..............................
........................................................................
   1    -13.1726026 -0.131726E+02  0.673E-01    0.41       0.0  T
   2    -12.2809355  0.891667E+00  0.889E+00    0.05       1.0  T
   3    -13.1709826 -0.890047E+00  0.750E-01    0.44       1.0  T
   4    -13.1705804  0.402222E-03  0.730E-01    0.45       1.0  T
   5    -13.1729299 -0.234950E-02  0.499E-01    0.40       1.0  T
   6    -13.1737454 -0.815483E-03  0.410E-01    0.38       1.0  T
   7    -13.1737443  0.106790E-05  0.411E-01    0.38       1.0  T
   8    -13.1723555  0.138875E-02  0.545E-01    0.41       1.0  T
   9    -13.1718660  0.489503E-03  0.624E-01    0.28       1.0  T
  10    -13.1739001 -0.203411E-02  0.405E-01    0.29       1.0  T
  11    -13.1749727 -0.107259E-02  0.240E-01    0.30       1.0  T
  12    -13.1752891 -0.316323E-03  0.164E-01    0.31       1.0  T
  13    -13.1755320 -0.242944E-03  0.647E-02    0.32       1.0  T
  14    -13.1755728 -0.407709E-04  0.248E-02    0.33       1.6  T
  15    -13.1755787 -0.594480E-05  0.617E-03    0.33       6.6  T
  16    -13.1755788 -0.790623E-07  0.232E-03    0.33      17.6  T
  17    -13.1755788 -0.425441E-07  0.910E-04    0.33      44.9  T
     SCC iter.                  ...        0 min,  0.001 sec
     gradient                   ...        0 min,  0.000 sec
 * total energy  :   -13.1176917 Eh     change       -0.3842166E-02 Eh
   gradient norm :     0.0722825 Eh/α   predicted    -0.5031436E-02 (  30.95%)
   displ. norm   :     0.0106060 α      lambda       -0.2171664E-03
   maximum displ.:     0.0085735 α      in ANC's #1, #2, #9, ...

........................................................................
.............................. CYCLE   16 ..............................
........................................................................
   1    -13.1757277 -0.131757E+02  0.473E-02    0.32       0.0  T
   2    -13.1748940  0.833720E-03  0.323E-01    0.36       1.0  T
   3    -13.1757419 -0.847953E-03  0.146E-02    0.33       2.8  T
   4    -13.1757410  0.900986E-06  0.120E-02    0.33       3.4  T
   5    -13.1757422 -0.112075E-05  0.308E-03    0.33      13.2  T
   6    -13.1757422 -0.298002E-07  0.206E-03    0.33      19.9  T
     SCC iter.                  ...        0 min,  0.000 sec
     gradient                   ...        0 min,  0.000 sec
 * total energy  :   -13.1178633 Eh     change       -0.1715787E-03 Eh
   gradient norm :     0.0324915 Eh/α   predicted    -0.1085960E-03 ( -36.71%)
   displ. norm   :     0.0196295 α      lambda       -0.3013660E-03
   maximum displ.:     0.0126716 α      in ANC's #1, #9, #6, ...

........................................................................
.............................. CYCLE   17 ..............................
........................................................................
   1    -13.1754103 -0.131754E+02  0.372E-02    0.33       0.0  T
   2    -13.1753908  0.194683E-04  0.547E-02    0.33       1.0  T
   3    -13.1753678  0.230166E-04  0.733E-02    0.32       1.0  T
   4    -13.1754092 -0.413583E-04  0.148E-02    0.33       2.8  T
   5    -13.1754107 -0.157403E-05  0.361E-03    0.33      11.3  T
   6    -13.1754108 -0.628694E-07  0.779E-04    0.33      52.4  T
     SCC iter.                  ...        0 min,  0.001 sec
     gradient                   ...        0 min,  0.000 sec
 * total energy  :   -13.1180693 Eh     change       -0.2059827E-03 Eh
   gradient norm :     0.0377085 Eh/α   predicted    -0.1507416E-03 ( -26.82%)
   displ. norm   :     0.0206525 α      lambda       -0.2350916E-03
   maximum displ.:     0.0143036 α      in ANC's #9, #6, #1, ...

........................................................................
.............................. CYCLE   18 ..............................
........................................................................
   1    -13.1747430 -0.131747E+02  0.635E-02    0.33       0.0  T
   2    -13.1720800  0.266294E-02  0.557E-01    0.28       1.0  T
   3    -13.1747570 -0.267699E-02  0.412E-02    0.33       1.0  T
   4    -13.1747636 -0.657319E-05  0.233E-02    0.33       1.7  T
   5    -13.1747673 -0.366160E-05  0.679E-03    0.33       6.0  T
   6    -13.1747675 -0.275733E-06  0.285E-03    0.33      14.3  T
   7    -13.1747676 -0.603822E-07  0.388E-04    0.33     105.3  T
     SCC iter.                  ...        0 min,  0.001 sec
     gradient                   ...        0 min,  0.000 sec
 * total energy  :   -13.1182649 Eh     change       -0.1955950E-03 Eh
   gradient norm :     0.0642915 Eh/α   predicted    -0.1175945E-03 ( -39.88%)
   displ. norm   :     0.0608197 α      lambda       -0.6899704E-03
   maximum displ.:     0.0461932 α      in ANC's #9, #6, #1, ...

........................................................................
.............................. CYCLE   19 ..............................
........................................................................
   1    -13.1727576 -0.131728E+02  0.199E-01    0.34       0.0  T
   2    -13.1064119  0.663457E-01  0.265E+00    0.18       1.0  T
   3    -13.1727290 -0.663172E-01  0.195E-01    0.35       1.0  T
   4    -13.1727996 -0.705395E-04  0.162E-01    0.34       1.0  T
   5    -13.1729601 -0.160515E-03  0.794E-02    0.33       1.0  T
   6    -13.1730121 -0.520172E-04  0.240E-02    0.33       1.7  T
   7    -13.1730106  0.155929E-05  0.271E-02    0.33       1.5  T
   8    -13.1730139 -0.339046E-05  0.208E-02    0.32       2.0  T
   9    -13.1730174 -0.343860E-05  0.884E-03    0.32       4.6  T
  10    -13.1730172  0.138229E-06  0.980E-03    0.33       4.2  T
  11    -13.1730180 -0.741719E-06  0.430E-03    0.33       9.5  T
  12    -13.1730182 -0.172348E-06  0.712E-04    0.33      57.3  T
     SCC iter.                  ...        0 min,  0.001 sec
     gradient                   ...        0 min,  0.000 sec
 * total energy  :   -13.1187655 Eh     change       -0.5006455E-03 Eh
   gradient norm :     0.0990819 Eh/α   predicted    -0.3462616E-03 ( -30.84%)
   displ. norm   :     0.0682096 α      lambda       -0.6971535E-03
   maximum displ.:     0.0573112 α      in ANC's #9, #6, #2, ...

........................................................................
.............................. CYCLE   20 ..............................
........................................................................
   1    -13.1715531 -0.131716E+02  0.199E-01    0.34       0.0  T
   2    -13.1111103  0.604428E-01  0.252E+00    0.19       1.0  T
   3    -13.1715292 -0.604190E-01  0.191E-01    0.34       1.0  T
   4    -13.1715913 -0.620516E-04  0.160E-01    0.34       1.0  T
   5    -13.1717458 -0.154497E-03  0.787E-02    0.33       1.0  T
   6    -13.1717971 -0.513436E-04  0.234E-02    0.33       1.7  T
   7    -13.1718001 -0.297166E-05  0.160E-02    0.33       2.6  T
   8    -13.1717985  0.160230E-05  0.210E-02    0.32       1.9  T
   9    -13.1718023 -0.384330E-05  0.708E-03    0.32       5.8  T
  10    -13.1718016  0.736606E-06  0.114E-02    0.33       3.6  T
  11    -13.1718027 -0.108077E-05  0.412E-03    0.32       9.9  T
  12    -13.1718028 -0.160957E-06  0.540E-04    0.32      75.6  T
     SCC iter.                  ...        0 min,  0.001 sec
     gradient                   ...        0 min,  0.000 sec
 * total energy  :   -13.1192892 Eh     change       -0.5236853E-03 Eh
   gradient norm :     0.0985266 Eh/α   predicted    -0.3501985E-03 ( -33.13%)
   displ. norm   :     0.0798968 α      lambda       -0.8803013E-03
   maximum displ.:     0.0741402 α      in ANC's #9, #6, #1, ...
 * RMSD in coord.:     0.3342176 α      energy gain  -0.1594867E+02 Eh

generating ANC from model Hessian ...
Using Lindh-Hessian (1995)
 Shifting diagonal of input Hessian by   5.240268788766393E-003
 Lowest  eigenvalues of input Hessian
   -0.000000   -0.000000   -0.000000   -0.000000    0.000000    0.000000
    0.010000    0.010022    0.016763    0.016885    0.036368    0.143225
    0.144994    0.430734    1.167806    1.177288   20.042281   60.173104
 Highest eigenvalues
    0.144994    0.430734    1.167806    1.177288   20.042281   60.173104
 

........................................................................
.............................. CYCLE   21 ..............................
........................................................................
   1    -13.1718564 -0.131719E+02  0.174E-01    0.34       0.0  T
   2    -13.1498121  0.220443E-01  0.154E+00    0.22       1.0  T
   3    -13.1718262 -0.220141E-01  0.161E-01    0.34       1.0  T
   4    -13.1718935 -0.672871E-04  0.118E-01    0.34       1.0  T
   5    -13.1719815 -0.880298E-04  0.439E-02    0.33       1.0  T
   6    -13.1719978 -0.163130E-04  0.917E-03    0.33       4.5  T
   7    -13.1719980 -0.184589E-06  0.896E-03    0.32       4.6  T
   8    -13.1719986 -0.591523E-06  0.148E-03    0.32      27.5  T
   9    -13.1719982  0.397695E-06  0.679E-03    0.32       6.0  T
  10    -13.1719983 -0.684532E-07  0.605E-03    0.32       6.7  T
  11    -13.1719986 -0.350333E-06  0.477E-04    0.32      85.6  T
  12    -13.1719986 -0.215270E-08  0.358E-05    0.32    1141.0  T
     SCC iter.                  ...        0 min,  0.001 sec
     gradient                   ...        0 min,  0.000 sec
 * total energy  :   -13.1199230 Eh     change       -0.6337819E-03 Eh
   gradient norm :     0.0666189 Eh/α   predicted     0.0000000E+00 (-100.00%)
   displ. norm   :     0.1391816 α      lambda       -0.2207116E-02
   maximum displ.:     0.1317140 α      in ANC's #5, #8, #3, ...

........................................................................
.............................. CYCLE   22 ..............................
........................................................................
   1    -13.1776869 -0.131777E+02  0.260E-01    0.34       0.0  T
   2    -13.1653410  0.123460E-01  0.116E+00    0.24       1.0  T
   3    -13.1770663 -0.117254E-01  0.330E-01    0.36       1.0  T
   4    -13.1777357 -0.669320E-03  0.142E-01    0.34       1.0  T
   5    -13.1778675 -0.131862E-03  0.272E-02    0.32       1.5  T
   6    -13.1778726 -0.512054E-05  0.109E-02    0.33       3.7  T
   7    -13.1778733 -0.619105E-06  0.695E-03    0.33       5.9  T
   8    -13.1778729  0.387407E-06  0.941E-03    0.33       4.3  T
   9    -13.1778736 -0.733307E-06  0.245E-04    0.33     166.8  T
  10    -13.1778736  0.139989E-08  0.437E-04    0.33      93.4  T
     SCC iter.                  ...        0 min,  0.001 sec
     gradient                   ...        0 min,  0.001 sec
 * total energy  :   -13.1196108 Eh     change        0.3122028E-03 Eh
   gradient norm :     0.1969422 Eh/α   predicted    -0.1124934E-02 (-460.32%)
   displ. norm   :     0.0285597 α      lambda       -0.2447391E-02
   maximum displ.:     0.0183955 α      in ANC's #8, #5, #12, ...

........................................................................
.............................. CYCLE   23 ..............................
........................................................................
   1    -13.1773661 -0.131774E+02  0.540E-01    0.28       0.0  T
   2    -13.1598609  0.175052E-01  0.165E+00    0.87       1.0  T
   3    -13.1761705 -0.163096E-01  0.665E-01    0.43       1.0  T
   4    -13.1793740 -0.320351E-02  0.257E-01    0.36       1.0  T
   5    -13.1790364  0.337651E-03  0.323E-01    0.29       1.0  T
   6    -13.1797863 -0.749928E-03  0.142E-01    0.34       1.0  T
   7    -13.1799464 -0.160115E-03  0.466E-02    0.33       1.0  T
   8    -13.1799572 -0.107401E-04  0.313E-02    0.33       1.3  T
   9    -13.1799616 -0.446318E-05  0.201E-02    0.32       2.0  T
  10    -13.1799650 -0.340173E-05  0.666E-03    0.32       6.1  T
  11    -13.1799654 -0.324864E-06  0.316E-03    0.32      12.9  T
  12    -13.1799655 -0.883923E-07  0.526E-04    0.32      77.6  T
     SCC iter.                  ...        0 min,  0.001 sec
     gradient                   ...        0 min,  0.000 sec
 * total energy  :   -13.1200327 Eh     change       -0.4219522E-03 Eh
   gradient norm :     0.2174524 Eh/α   predicted    -0.1224693E-02 ( 190.24%)
   displ. norm   :     0.1042136 α      lambda       -0.3851570E-02
   maximum displ.:     0.0995549 α      in ANC's #5, #11, #3, ...

........................................................................
.............................. CYCLE   24 ..............................
........................................................................
   1    -13.1793676 -0.131794E+02  0.311E-01    0.35       0.0  T
   2    -12.7870888  0.392279E+00  0.601E+00    0.10       1.0  T
   3    -13.1794624 -0.392374E+00  0.274E-01    0.35       1.0  T
   4    -13.1798230 -0.360564E-03  0.179E-01    0.33       1.0  T
   5    -13.1801408 -0.317792E-03  0.364E-02    0.31       1.1  T
   6    -13.1801377  0.308485E-05  0.453E-02    0.31       1.0  T
   7    -13.1795378  0.599856E-03  0.230E-01    0.34       1.0  T
   8    -13.1794593  0.784834E-04  0.256E-01    0.29       1.0  T
   9    -13.1799448 -0.485459E-03  0.134E-01    0.30       1.0  T
  10    -13.1800141 -0.692981E-04  0.108E-01    0.30       1.0  T
  11    -13.1800981 -0.840256E-04  0.636E-02    0.31       1.0  T
  12    -13.1801392 -0.410926E-04  0.136E-02    0.31       3.0  T
  13    -13.1801408 -0.159740E-05  0.569E-03    0.31       7.2  T
  14    -13.1801411 -0.343250E-06  0.102E-03    0.31      40.2  T
     SCC iter.                  ...        0 min,  0.001 sec
     gradient                   ...        0 min,  0.001 sec
 * total energy  :   -13.1099353 Eh     change        0.1009743E-01 Eh
   gradient norm :     1.0119519 Eh/α   predicted    -0.1946699E-02 (-119.28%)
   displ. norm   :     0.0406618 α      lambda       -0.2177281E-01
   maximum displ.:     0.0248264 α      in ANC's #5, #12, #8, ...

........................................................................
.............................. CYCLE   25 ..............................
........................................................................
   1    -13.1779980 -0.131780E+02  0.120E-01    0.32       0.0  T
   2    -13.1760804  0.191758E-02  0.483E-01    0.39       1.0  T
   3    -13.1779858 -0.190537E-02  0.102E-01    0.32       1.0  T
   4    -13.1780605 -0.747609E-04  0.208E-02    0.33       2.0  T
   5    -13.1780434  0.171718E-04  0.453E-02    0.32       1.0  T
   6    -13.1780596 -0.162961E-04  0.112E-02    0.33       3.6  T
   7    -13.1780603 -0.612647E-06  0.801E-03    0.32       5.1  T
   8    -13.1780608 -0.545930E-06  0.464E-04    0.33      87.9  T
   9    -13.1780608  0.305464E-07  0.189E-03    0.33      21.5  T
     SCC iter.                  ...        0 min,  0.001 sec
     gradient                   ...        0 min,  0.000 sec
 * total energy  :   -13.1205193 Eh     change       -0.1058397E-01 Eh
   gradient norm :     0.0265840 Eh/α   predicted    -0.1090440E-01 (   3.03%)
   displ. norm   :     0.1123618 α      lambda       -0.4503329E-03
   maximum displ.:     0.1094753 α      in ANC's #5, #3, #8, ...

........................................................................
.............................. CYCLE   26 ..............................
........................................................................
   1    -13.1791968 -0.131792E+02  0.185E-01    0.32       0.0  T
   2    -13.1769629  0.223392E-02  0.539E-01    0.39       1.0  T
   3    -13.1788754 -0.191253E-02  0.223E-01    0.30       1.0  T
   4    -13.1791210 -0.245536E-03  0.148E-01    0.34       1.0  T
   5    -13.1792675 -0.146562E-03  0.388E-02    0.32       1.1  T
   6    -13.1792771 -0.959734E-05  0.234E-02    0.33       1.7  T
   7    -13.1792815 -0.434982E-05  0.331E-03    0.32      12.3  T
   8    -13.1792811  0.363504E-06  0.690E-03    0.32       5.9  T
   9    -13.1792815 -0.402248E-06  0.552E-04    0.32      74.0  T
     SCC iter.                  ...        0 min,  0.001 sec
     gradient                   ...        0 min,  0.000 sec
 * total energy  :   -13.1205337 Eh     change       -0.1444108E-04 Eh
   gradient norm :     0.0181359 Eh/α   predicted    -0.2280019E-03 (1478.84%)
   displ. norm   :     0.0562195 α      lambda       -0.2077231E-03
   maximum displ.:     0.0549626 α      in ANC's #5, #3, #8, ...

........................................................................
.............................. CYCLE   27 ..............................
........................................................................
   1    -13.1789146 -0.131789E+02  0.913E-02    0.33       0.0  T
   2    -13.1775961  0.131854E-02  0.396E-01    0.29       1.0  T
   3    -13.1788988 -0.130271E-02  0.757E-02    0.33       1.0  T
   4    -13.1789238 -0.250662E-04  0.495E-02    0.32       1.0  T
   5    -13.1789279 -0.409014E-05  0.333E-02    0.32       1.2  T
   6    -13.1789371 -0.913537E-05  0.303E-03    0.32      13.5  T
   7    -13.1789371 -0.371149E-07  0.157E-03    0.32      26.0  T
   8    -13.1789370  0.123919E-06  0.396E-03    0.32      10.3  T
   9    -13.1789371 -0.133904E-06  0.139E-04    0.32     293.9  T
     SCC iter.                  ...        0 min,  0.001 sec
     gradient                   ...        0 min,  0.000 sec
 * total energy  :   -13.1206379 Eh     change       -0.1042053E-03 Eh
   gradient norm :     0.0010265 Eh/α   predicted    -0.1041903E-03 (  -0.01%)
   displ. norm   :     0.0028686 α      lambda       -0.2294621E-06
   maximum displ.:     0.0019518 α      in ANC's #1, #2, #8, ...

........................................................................
.............................. CYCLE   28 ..............................
........................................................................
   1    -13.1788080 -0.131788E+02  0.728E-03    0.33       0.0  T
   2    -13.1787813  0.267025E-04  0.554E-02    0.32       1.0  T
   3    -13.1788083 -0.269629E-04  0.380E-03    0.32      10.7  T
   4    -13.1788084 -0.904354E-07  0.689E-04    0.32      59.2  T
   5    -13.1788084 -0.164594E-08  0.319E-04    0.32     128.0  T
     SCC iter.                  ...        0 min,  0.001 sec
     gradient                   ...        0 min,  0.001 sec
 * total energy  :   -13.1206380 Eh     change       -0.1034856E-06 Eh
   gradient norm :     0.0007795 Eh/α   predicted    -0.1146937E-06 (  10.83%)
   displ. norm   :     0.0023520 α      lambda       -0.7027773E-07
   maximum displ.:     0.0018987 α      in ANC's #1, #2, #4, ...

   *** GEOMETRY OPTIMIZATION CONVERGED AFTER 28 ITERATIONS ***

------------------------------------------------------------------------
 total energy gain   :       -15.9500204 Eh   -10008.7889 kcal/mol
 total RMSD          :         0.3417146 a0        0.1808 Å
 total power (kW/mol):     -1495.5990268 (step)********** (real)
------------------------------------------------------------------------

 ANCopt (total)                0 d,  0 h,  0 min,  0.127 sec
 optimizer setup                ...        0 min,  0.000 sec (  0.044%)
 model hessian                  ...        0 min,  0.000 sec (  0.350%)
 ANC generation                 ...        0 min,  0.000 sec (  0.100%)
 coordinate transformation      ...        0 min,  0.000 sec (  0.106%)
 single point calculation       ...        0 min,  0.115 sec ( 90.800%)
 optimization log               ...        0 min,  0.001 sec (  0.551%)
 hessian update                 ...        0 min,  0.009 sec (  6.743%)
 rational function              ...        0 min,  0.001 sec (  0.659%)

================
 final structure:
================
6
 xtb: 6.2.3 (830e466)
F        -3.45173597452708   -0.19820621314368    0.06635296714294
Cl        1.76134235162434    0.10820033997450   -0.02499320356602
C        -0.45736657715957   -0.02793168009386    0.00712948872843
H        -0.64219715709146   -0.61377176178712   -0.87128885951444
H        -0.62251534821296   -0.51560585775776    0.94722795358431
H        -0.73043729463328    1.00724517280792   -0.04571834637521
 
 Bond Distances (Angstroems)
 ---------------------------
Cl2-C3=2.2231        C3-Cl2=2.2231        C3-H4=1.0719         C3-H5=1.0719         C3-H6=1.0719         H4-C3=1.0719         
H5-C3=1.0719         H6-C3=1.0719         
 C  H  Rav=1.0719 sigma=0.0000  Rmin=1.0719  Rmax=1.0719     3
 Cl C  Rav=2.2231 sigma=0.0000  Rmin=2.2231  Rmax=2.2231     1
 
 selected bond angles (degree)
 --------------------
H4-C3-Cl2=101.17               H5-C3-Cl2=101.20               H5-C3-H4=116.33                H6-C3-Cl2=101.21               
H6-C3-H4=116.33                H6-C3-H5=116.32                
 
 selected dihedral angles (degree)
 ---------------------------------

 
 CMA Distance (Angstroems)
 ---------------------------
R(CMA):  4.5484
           -------------------------------------------------
          |                Final Singlepoint                |
           -------------------------------------------------

          ...................................................
          :                      SETUP                      :
          :.................................................:
          :  # basis functions                  21          :
          :  # atomic orbitals                  20          :
          :  # shells                           10          :
          :  # electrons                        22          :
          :  max. iterations                   250          :
          :  Hamiltonian                  GFN2-xTB          :
          :  restarted?                      false          :
          :  GBSA solvation                  false          :
          :  PC potential                    false          :
          :  electronic temp.          300.0000000     K    :
          :  accuracy                    1.0000000          :
          :  -> integral cutoff          0.2500000E+02      :
          :  -> integral neglect         0.1000000E-07      :
          :  -> SCF convergence          0.1000000E-05 Eh   :
          :  -> wf. convergence          0.1000000E-03 e    :
          :  Broyden damping             0.4000000          :
          ...................................................

 iter      E             dE          RMSdq      gap      omega  full diag
   1    -13.1788084 -0.131788E+02  0.150E-04    0.32       0.0  T
   2    -13.1788084  0.481368E-09  0.303E-04    0.32     134.9  T
   3    -13.1788084  0.929148E-09  0.464E-04    0.32      88.0  T

   *** convergence criteria satisfied after 3 iterations ***

         #    Occupation            Energy/Eh            Energy/eV
      -------------------------------------------------------------
         1        2.0000           -0.8901418             -24.2220
       ...           ...                  ...                  ...
         5        2.0000           -0.3467934              -9.4367
         6        2.0000           -0.3014494              -8.2029
         7        2.0000           -0.2629849              -7.1562
         8        2.0000           -0.2629841              -7.1562
         9        1.9993           -0.1502287              -4.0879
        10        1.9975           -0.1490673              -4.0563
        11        1.9975           -0.1490663              -4.0563 (HOMO)
        12        0.0057           -0.1371458              -3.7319 (LUMO)
        13                          0.2027581               5.5173
        14                          0.2027611               5.5174
        15                          0.2037872               5.5453
        16                          0.2037886               5.5454
       ...                                ...                  ...
        20                          0.4033163              10.9748
      -------------------------------------------------------------
                  HL-Gap            0.0119205 Eh            0.3244 eV
             Fermi-level           -0.1427110 Eh           -3.8834 eV

 SCC (total)                   0 d,  0 h,  0 min,  0.001 sec
 SCC setup                      ...        0 min,  0.000 sec (  4.314%)
 Dispersion                     ...        0 min,  0.000 sec (  0.725%)
 integral evaluation            ...        0 min,  0.000 sec ( 36.343%)
 zeroth order Hamiltonian       ...        0 min,  0.000 sec (  1.031%)
 iterations                     ...        0 min,  0.000 sec ( 21.206%)
 molecular gradient             ...        0 min,  0.000 sec ( 30.674%)
 printout                       ...        0 min,  0.000 sec (  3.932%)

         :::::::::::::::::::::::::::::::::::::::::::::::::::::
         ::                     SUMMARY                     ::
         :::::::::::::::::::::::::::::::::::::::::::::::::::::
         :: total energy             -13.120637994867 Eh    ::
         :: gradient norm              0.000794599049 Eh/a0 ::
         :: HOMO-LUMO gap              0.324374354395 eV    ::
         ::.................................................::
         :: SCC energy               -13.178808355952 Eh    ::
         :: -> isotropic ES            0.194864804685 Eh    ::
         :: -> anisotropic ES          0.001229363307 Eh    ::
         :: -> anisotropic XC          0.004922033798 Eh    ::
         :: -> dispersion             -0.001890667984 Eh    ::
         :: repulsion energy           0.058141824117 Eh    ::
         :: add. restraining           0.000029624609 Eh    ::
         :::::::::::::::::::::::::::::::::::::::::::::::::::::

           -------------------------------------------------
          |                Property Printout                |
           -------------------------------------------------

    * Orbital Energies and Occupations

         #    Occupation            Energy/Eh            Energy/eV
      -------------------------------------------------------------
         1        2.0000           -0.8901418             -24.2220
         2        2.0000           -0.4446928             -12.1007
         3        2.0000           -0.4264283             -11.6037
         4        2.0000           -0.3468914              -9.4394
         5        2.0000           -0.3467934              -9.4367
         6        2.0000           -0.3014494              -8.2029
         7        2.0000           -0.2629849              -7.1562
         8        2.0000           -0.2629841              -7.1562
         9        1.9993           -0.1502287              -4.0879
        10        1.9975           -0.1490673              -4.0563
        11        1.9975           -0.1490663              -4.0563 (HOMO)
        12        0.0057           -0.1371458              -3.7319 (LUMO)
        13                          0.2027581               5.5173
        14                          0.2027611               5.5174
        15                          0.2037872               5.5453
        16                          0.2037886               5.5454
        17                          0.2136089               5.8126
        18                          0.2824315               7.6854
        19                          0.4032060              10.9718
        20                          0.4033163              10.9748
      -------------------------------------------------------------
                  HL-Gap            0.0119205 Eh            0.3244 eV
             Fermi-level           -0.1427110 Eh           -3.8834 eV

     #   Z        covCN         q      C6AA      α(0)
     1   9 F      0.000    -0.734    19.076     5.087
     2  17 Cl     0.600    -0.467   113.401    16.279
     3   6 C      3.379    -0.035    25.346     7.845
     4   1 H      0.926     0.078     1.995     2.209
     5   1 H      0.926     0.079     1.990     2.206
     6   1 H      0.926     0.079     1.989     2.206

 Mol. C6AA /au·bohr⁶  :        582.982589
 Mol. C8AA /au·bohr⁸  :      16397.857567
 Mol. α(0) /au        :         35.831979


Wiberg/Mayer (AO) data.
largest (>0.10) Wiberg bond orders for each atom
          total WBO             WBO to atom ...
     1  F   0.451        C    3 0.305    Cl   2 0.143
     2  Cl  0.790        C    3 0.644    F    1 0.143
     3  C   3.923        H    4 0.991    H    5 0.991    H    6 0.991    Cl   2 0.644    F    1 0.305
     4  H   0.994        C    3 0.991
     5  H   0.994        C    3 0.991
     6  H   0.994        C    3 0.991

molecular dipole:
                 x           y           z       tot (Debye)
 q only:        2.969       0.164      -0.065
   full:        2.889       0.159      -0.064       7.357
molecular quadrupole (traceless):
                xx          xy          yy          xz          yz          zz
 q only:      -36.471      -3.181      18.153       1.012       0.057      18.317
  q+dip:      -37.297      -3.255      18.564       1.031       0.058      18.733
   full:      -36.408      -3.174      18.122       1.012       0.057      18.286

           -------------------------------------------------
          |                Geometry Summary                 |
           -------------------------------------------------

      molecular mass/u    :       69.4858989
   center of mass at/Å    :       -0.1530816      -0.0055862       0.0070606
  moments of inertia/u·Å² :        0.3344178E+01   0.3415117E+03   0.3415129E+03
rotational constants/cm⁻¹ :        0.5040889E+01   0.4936180E-01   0.4936163E-01

 * 3 selected distances

     #   Z        #   Z                                     value/Å
     3   6 C      4   1 H                                 1.0719094 (max)
     3   6 C      5   1 H                                 1.0718607 (min)
     3   6 C      6   1 H                                 1.0718916

 * 1 distinct bonds (by element types)

   Z      Z             #   av. dist./Å        max./Å        min./Å
   1 H    6 C           3     1.0718872     1.0719094     1.0718607


optimized geometry written to: xtbopt.xyz


           -------------------------------------------------
          | TOTAL ENERGY              -13.120637994867 Eh   |
          | GRADIENT NORM               0.000794599049 Eh/α |
          | HOMO-LUMO GAP               0.324374354395 eV   |
           -------------------------------------------------

------------------------------------------------------------------------
 * finished run on 2020/04/08 at 13:05:34.772     
------------------------------------------------------------------------
 total:
 * wall-time:     0 d,  0 h,  0 min,  0.167 sec
 *  cpu-time:     0 d,  0 h,  0 min,  0.174 sec
 * ratio c/w:     1.044 speedup
 SCF:
 * wall-time:     0 d,  0 h,  0 min,  0.005 sec
 *  cpu-time:     0 d,  0 h,  0 min,  0.008 sec
 * ratio c/w:     1.525 speedup
 ANC optimizer:
 * wall-time:     0 d,  0 h,  0 min,  0.129 sec
 *  cpu-time:     0 d,  0 h,  0 min,  0.148 sec
 * ratio c/w:     1.151 speedup

