      -----------------------------------------------------------      
     |                   =====================                   |     
     |                           x T B                           |     
     |                   =====================                   |     
     |                         S. Grimme                         |     
     |          Mulliken Center for Theoretical Chemistry        |     
     |                    University of Bonn                     |     
      -----------------------------------------------------------      

   * xtb version 6.2.3 (830e466) compiled by 'ehlert@majestix' on 2020-03-16

   xtb is free software: you can redistribute it and/or modify it under
   the terms of the GNU Lesser General Public License as published by
   the Free Software Foundation, either version 3 of the License, or
   (at your option) any later version.
   
   xtb is distributed in the hope that it will be useful,
   but WITHOUT ANY WARRANTY; without even the implied warranty of
   MERCHANTABILITY or FITNESS FOR A PARTICULAR PURPOSE.  See the
   GNU Lesser General Public License for more details.
   
   Cite this work as:
   * S. Grimme, C. Bannwarth, P. Shushkov, J. Chem. Theory Comput., 2017,
     13, 1989-2009. DOI: 10.1021/acs.jctc.7b00118
   * C. Bannwarth, S. Ehlert and S. Grimme., J. Chem. Theory Comput., 2019,
     15, 1652-1671. DOI: 10.1021/acs.jctc.8b01176
   * P. Pracht, E. Caldeweyher, S. Ehlert, S. Grimme, ChemRxiv, 2019, preprint.
     DOI: 10.26434/chemrxiv.8326202.v1
   
   for DFT-D4:
   * E. Caldeweyher, C. Bannwarth and S. Grimme, J. Chem. Phys., 2017,
     147, 034112. DOI: 10.1063/1.4993215
   * E. Caldeweyher, S. Ehlert, A. Hansen, H. Neugebauer, S. Spicher,
     C. Bannwarth and S. Grimme, J. Chem. Phys., 2019, 150, 154122.
     DOI: 10.1063/1.5090222
   
   for sTDA-xTB:
   * S. Grimme and C. Bannwarth, J. Chem. Phys., 2016, 145, 054103.
     DOI: 10.1063/1.4959605
   
   in the mass-spec context:
   * V. Asgeirsson, C. Bauer and S. Grimme, Chem. Sci., 2017, 8, 4879.
     DOI: 10.1039/c7sc00601b
   
   for metadynamics refer to:
   * S. Grimme, J. Chem. Theory Comput., 2019, 155, 2847-2862
     DOI: 10.1021/acs.jctc.9b00143
   
   with help from (in alphabetical order)
   C. Bannwarth, F. Bohle, G. Brandenburg, E. Caldeweyher, M. Checinski,
   S. Dohm, S. Ehlert, S. Ehrlich, F. März, H. Neugebauer, J. Pisarek,
   P. Pracht, P. Shushkov, and S. Spicher.
   
 * started run on 2020/04/08 at 23:04:52.379     

           -------------------------------------------------
          |                Calculation Setup                |
           -------------------------------------------------

          program call               : /home/tom/.local/bin/xtb SN2_PES_scan_4-7_xtb.xyz --chrg -1 --opt --input xcontrol_SN2_PES_scan_4-7
          coordinate file            : SN2_PES_scan_4-7_xtb.xyz
          omp threads                :                     1
          number of atoms            :                     6
          number of electrons        :                    22
          charge                     :                    -1
          spin                       :                   0.0
          first test random number   :      0.40108642964267

constraining bond 1 3 to    2.8050000 Å, actual value:    3.1047794 Å
constraining bond 2 3 to    3.8830000 Å, actual value:    3.5828540 Å

molecular fragmentation (1/2 indicates fragments):
122222
# atoms in fragment 1/2:     1     5
 fragment masses (1/2) :       19.00       50.49
CMA distance (Bohr)    :  10.621
constraining FC (au)   : 10.0000
########################################################################
[WARNING] Please study the warnings concerning your input carefully
-2- prog_main: XTBPATH is not set, using XTBHOME instead
-1- prog_main: XTBHOME is not set, using HOME instead
########################################################################
           ------------------------------------------------- 
          |                 G F N 2 - x T B                 |
          | Geometry, Frequencies, Noncovalent interactions |
          |            JCTC 2019 parametrisation            |
           ------------------------------------------------- 
             k(s)              :                1.8500
             k(p)              :                2.2300
             k(d)              :                2.2300
             k(f)              :                2.0000
             kEN (H0ij)        :               -2.0000
             D4 a1             :                0.5200
             D4 a2             :                5.0000
             D4 s6             :                1.0000
             D4 s8             :                2.7000
             D4 s9             :                5.0000
             alphaj            :                2.0000

  Z AO/shell   Hii/eV     exponent
  1     Wed Apr 25 08:07:45 CEST 2018   EN: 2.200 GM2: 0.406  GM3: 0.0800  RAES: 1.40
     1s    -10.707211    1.230000
  6     Wed Apr 25 08:07:45 CEST 2018   EN: 2.550 GM2: 0.538  GM3: 0.1500  RAES: 3.00
     2s    -13.970922    2.096432
     2p    -10.063292    1.800000
  9     Mon Apr 23 13:58:50 CEST 2018   EN: 3.980 GM2: 0.532  GM3: 0.1426  RAES: 2.40
     2s    -23.458179    2.416361
     2p    -15.746583    2.308399
 17     Mon Apr 23 14:09:22 CEST 2018   EN: 3.160 GM2: 0.249  GM3: 0.1495  RAES: 2.50
     3s    -29.278781    2.485265
     3p    -12.673758    2.199650
     3d     -0.240338    2.476089

           ------------------------------------------------- 
          |        Self-Consistent Charge Iterations        |
           ------------------------------------------------- 

          ...................................................
          :                      SETUP                      :
          :.................................................:
          :  # basis functions                  21          :
          :  # atomic orbitals                  20          :
          :  # shells                           10          :
          :  # electrons                        22          :
          :  max. iterations                   250          :
          :  Hamiltonian                  GFN2-xTB          :
          :  restarted?                      false          :
          :  GBSA solvation                  false          :
          :  PC potential                    false          :
          :  electronic temp.          300.0000000     K    :
          :  accuracy                    1.0000000          :
          :  -> integral cutoff          0.2500000E+02      :
          :  -> integral neglect         0.1000000E-07      :
          :  -> SCF convergence          0.1000000E-05 Eh   :
          :  -> wf. convergence          0.1000000E-03 e    :
          :  Broyden damping             0.4000000          :
          ...................................................

 iter      E             dE          RMSdq      gap      omega  full diag
   1    -12.8365656 -0.128366E+02  0.104E+01    1.28       0.0  T
   2    -12.1492737  0.687292E+00  0.106E+01    0.00       1.0  T
   3    -12.9728619 -0.823588E+00  0.545E+00    0.09       1.0  T
   4    -12.8853430  0.875189E-01  0.774E+00    1.45       1.0  T
   5    -12.4251439  0.460199E+00  0.108E+01    0.00       1.0  T
   6    -12.4268963 -0.175232E-02  0.108E+01    0.00       1.0  T
   7    -12.2899488  0.136947E+00  0.986E+00    0.01       1.0  T
   8    -12.5846952 -0.294746E+00  0.800E+00    0.05       1.0  T
   9    -12.9291258 -0.344431E+00  0.587E+00    0.84       1.0  T
  10    -13.0063219 -0.771962E-01  0.463E+00    0.33       1.0  T
  11    -12.3149738  0.691348E+00  0.948E+00    0.01       1.0  T
  12    -13.0031689 -0.688195E+00  0.446E+00    0.38       1.0  T
  13    -13.0222066 -0.190377E-01  0.374E+00    0.11       1.0  T
  14    -12.9299068  0.922999E-01  0.495E+00    0.09       1.0  T
  15    -12.8844912  0.454155E-01  0.544E+00    0.08       1.0  T
  16    -12.9375405 -0.530492E-01  0.488E+00    0.09       1.0  T
  17    -12.8709990  0.665414E-01  0.560E+00    0.08       1.0  T
  18    -12.9153354 -0.443364E-01  0.514E+00    0.08       1.0  T
  19    -12.9066500  0.868543E-02  0.524E+00    0.08       1.0  T
  20    -12.9062762  0.373758E-03  0.524E+00    0.08       1.0  T
  21    -12.9295010 -0.232248E-01  0.498E+00    0.09       1.0  T
  22    -12.9153028  0.141983E-01  0.513E+00    0.09       1.0  T
  23    -12.9482554 -0.329526E-01  0.473E+00    0.09       1.0  T
  24    -12.9630033 -0.147479E-01  0.454E+00    0.10       1.0  T
  25    -12.9872220 -0.242187E-01  0.421E+00    0.11       1.0  T
  26    -13.0139601 -0.267381E-01  0.382E+00    0.12       1.0  T
  27    -13.0391566 -0.251965E-01  0.341E+00    0.13       1.0  T
  28    -13.0312608  0.789587E-02  0.351E+00    0.12       1.0  T
  29    -12.6910842  0.340177E+00  0.710E+00    0.07       1.0  T
  30    -12.6446193  0.464648E-01  0.747E+00    0.06       1.0  T
  31    -13.0136075 -0.368988E+00  0.377E+00    0.12       1.0  T
  32    -13.0428368 -0.292294E-01  0.330E+00    0.13       1.0  T
  33    -12.4829091  0.559928E+00  0.982E+00    0.00       1.0  T
  34    -12.3846124  0.982967E-01  0.911E+00    0.09       1.0  T
  35    -12.5051557 -0.120543E+00  0.843E+00    0.10       1.0  T
  36    -12.9531803 -0.448025E+00  0.445E+00    0.17       1.0  T
  37    -13.0906842 -0.137504E+00  0.287E+00    0.23       1.0  T
  38    -13.0419844  0.486998E-01  0.409E+00    0.32       1.0  T
  39    -13.0609900 -0.190056E-01  0.319E+00    0.25       1.0  T
  40    -12.5894456  0.471544E+00  0.889E+00    0.02       1.0  T
  41    -13.0518180 -0.462372E+00  0.412E+00    0.28       1.0  T
  42    -13.0215407  0.302773E-01  0.404E+00    0.36       1.0  T
  43    -13.0407073 -0.191666E-01  0.357E+00    0.34       1.0  T
  44    -13.1089208 -0.682135E-01  0.152E+00    0.17       1.0  T
  45    -13.1166456 -0.772480E-02  0.113E+00    0.20       1.0  T
  46    -13.1009233  0.157224E-01  0.172E+00    0.16       1.0  T
  47    -13.1012507 -0.327403E-03  0.159E+00    0.17       1.0  T
  48    -13.1149529 -0.137022E-01  0.105E+00    0.18       1.0  T
  49    -13.1202199 -0.526696E-02  0.842E-01    0.16       1.0  T
  50    -13.1187700  0.144984E-02  0.650E-01    0.20       1.0  T
  51    -13.1090386  0.973145E-02  0.160E+00    0.13       1.0  T
  52    -13.1101289 -0.109035E-02  0.127E+00    0.20       1.0  T
  53    -13.1208787 -0.107498E-01  0.652E-01    0.15       1.0  T
  54    -13.1208351  0.435230E-04  0.610E-01    0.15       1.0  T
  55    -13.1220255 -0.119034E-02  0.260E-01    0.18       1.0  T
  56    -13.1209811  0.104437E-02  0.541E-01    0.15       1.0  T
  57    -13.1201408  0.840348E-03  0.524E-01    0.20       1.0  T
  58    -13.1201616 -0.208516E-04  0.621E-01    0.15       1.0  T
  59    -13.1201280  0.336410E-04  0.536E-01    0.20       1.0  T
  60    -13.1201799 -0.519109E-04  0.596E-01    0.15       1.0  T
  61    -13.1207285 -0.548635E-03  0.465E-01    0.19       1.0  T
  62    -13.1207881 -0.595382E-04  0.496E-01    0.15       1.0  T
  63    -13.1213810 -0.592936E-03  0.359E-01    0.19       1.0  T
  64    -13.1215057 -0.124666E-03  0.359E-01    0.16       1.0  T
  65    -13.1218949 -0.389199E-03  0.239E-01    0.18       1.0  T
  66    -13.1220003 -0.105448E-03  0.223E-01    0.16       1.0  T
  67    -13.1221755 -0.175136E-03  0.133E-01    0.17       1.0  T
  68    -13.1222223 -0.468037E-04  0.119E-01    0.16       1.0  T
  69    -13.1222782 -0.559670E-04  0.599E-02    0.17       1.0  T
  70    -13.1222888 -0.105587E-04  0.565E-02    0.17       1.0  T
  71    -13.1223024 -0.136439E-04  0.216E-02    0.17       1.9  T
  72    -13.1223033 -0.866805E-06  0.249E-02    0.17       1.6  T
  73    -13.1223060 -0.272891E-05  0.729E-03    0.17       5.6  T
  74    -13.1223056  0.376982E-06  0.121E-02    0.17       3.4  T
  75    -13.1223062 -0.533453E-06  0.546E-03    0.17       7.5  T
  76    -13.1223062 -0.314449E-07  0.347E-03    0.17      11.8  T
  77    -13.1223063 -0.647079E-07  0.497E-04    0.17      82.1  T
  78    -13.1223063 -0.110391E-08  0.346E-04    0.17     118.0  T

   *** convergence criteria satisfied after 78 iterations ***

         #    Occupation            Energy/Eh            Energy/eV
      -------------------------------------------------------------
         1        2.0000           -0.8571692             -23.3248
       ...           ...                  ...                  ...
         5        2.0000           -0.3742388             -10.1836
         6        1.9998           -0.2429992              -6.6123
         7        1.9911           -0.2395421              -6.5183
         8        1.9910           -0.2395405              -6.5182
         9        1.9849           -0.2390408              -6.5046
        10        1.9554           -0.2379979              -6.4763
        11        1.9554           -0.2379979              -6.4763 (HOMO)
        12        0.1224           -0.2318122              -6.3079 (LUMO)
        13                          0.2309940               6.2857
        14                          0.2491052               6.7785
        15                          0.2492844               6.7834
        16                          0.2492845               6.7834
       ...                                ...                  ...
        20                          0.3993947              10.8681
      -------------------------------------------------------------
                  HL-Gap            0.0061856 Eh            0.1683 eV
             Fermi-level           -0.2344061 Eh           -6.3785 eV

 SCC (total)                   0 d,  0 h,  0 min,  0.009 sec
 SCC setup                      ...        0 min,  0.000 sec (  0.659%)
 Dispersion                     ...        0 min,  0.000 sec (  0.129%)
 integral evaluation            ...        0 min,  0.001 sec (  6.992%)
 zeroth order Hamiltonian       ...        0 min,  0.000 sec (  0.139%)
 iterations                     ...        0 min,  0.008 sec ( 85.520%)
 molecular gradient             ...        0 min,  0.001 sec (  5.742%)
 printout                       ...        0 min,  0.000 sec (  0.584%)

         :::::::::::::::::::::::::::::::::::::::::::::::::::::
         ::                     SUMMARY                     ::
         :::::::::::::::::::::::::::::::::::::::::::::::::::::
         :: total energy              -6.636381565889 Eh    ::
         :: gradient norm             27.772522216863 Eh/a0 ::
         :: HOMO-LUMO gap              0.168319276743 eV    ::
         ::.................................................::
         :: SCC energy               -13.122306274667 Eh    ::
         :: -> isotropic ES            0.160076763738 Eh    ::
         :: -> anisotropic ES         -0.000909024432 Eh    ::
         :: -> anisotropic XC          0.006365866085 Eh    ::
         :: -> dispersion             -0.001520228605 Eh    ::
         :: repulsion energy           0.059610843804 Eh    ::
         :: add. restraining           6.426318499400 Eh    ::
         :::::::::::::::::::::::::::::::::::::::::::::::::::::

      ----------------------------------------------------------- 
     |                   =====================                   |
     |                        A N C O P T                        |
     |                   =====================                   |
     |               Approximate Normal Coordinate               |
     |                Rational Function Optimizer                |
      ----------------------------------------------------------- 

          ...................................................
          :                      SETUP                      :
          :.................................................:
          :   optimization level            normal          :
          :   max. optcycles                   200          :
          :   ANC micro-cycles                  20          :
          :   degrees of freedom                12          :
          :.................................................:
          :   RF solver                   davidson          :
          :   write xtbopt.log                true          :
          :   linear?                        false          :
          :   energy convergence         0.5000000E-05 Eh   :
          :   grad. convergence          0.1000000E-02 Eh/α :
          :   maximium RF displ.         1.0000000          :
          :   Hlow (freq-cutoff)         0.1000000E-01      :
          :   Hmax (freq-cutoff)         5.0000000          :
          :   S6 in model hess.         20.0000000          :
          ...................................................

generating ANC from model Hessian ...
Using Lindh-Hessian (1995)
 Shifting diagonal of input Hessian by   0.481274661207072     
 Lowest  eigenvalues of input Hessian
    0.010000    0.010213   -0.000000   -0.000000   -0.000000    0.000000
    0.000000    0.000000    0.481773    0.633855    0.634052    0.918583
    1.048879    1.049199    2.307180    2.307378   20.484888   60.481186
 Highest eigenvalues
    1.048879    1.049199    2.307180    2.307378   20.484888   60.481186
 

........................................................................
.............................. CYCLE    1 ..............................
........................................................................
   1    -13.1223063 -0.131223E+02  0.422E-04    0.17       0.0  T
   2    -13.1223059  0.400990E-06  0.703E-03    0.17       5.8  T
   3    -13.1223063 -0.380436E-06  0.189E-03    0.17      21.6  T
   4    -13.1223063 -0.218106E-07  0.939E-05    0.17     434.6  T
   5    -13.1223063 -0.442242E-10  0.580E-05    0.17     704.3  T
     SCC iter.                  ...        0 min,  0.000 sec
     gradient                   ...        0 min,  0.001 sec
 * total energy  :    -6.6363816 Eh     change       -0.5050179E-08 Eh
   gradient norm :    27.7725233 Eh/α   predicted     0.0000000E+00 (-100.00%)
   displ. norm   :     0.9140265 α      lambda       -0.2538482E+02
   maximum displ.:     0.9140264 α      in ANC's #11, #9, #8, ...

........................................................................
.............................. CYCLE    2 ..............................
........................................................................
   1    -13.0059324 -0.130059E+02  0.388E+00    0.51       0.0  T
   2    -12.3684621  0.637470E+00  0.976E+00    0.00       1.0  T
   3    -12.8450918 -0.476630E+00  0.710E+00    1.29       1.0  T
   4    -12.9857590 -0.140667E+00  0.459E+00    0.24       1.0  T
   5    -12.3219698  0.663789E+00  0.951E+00    0.00       1.0  T
   6    -12.6182277 -0.296258E+00  0.843E+00    0.24       1.0  T
   7    -12.8079040 -0.189676E+00  0.658E+00    0.34       1.0  T
   8    -13.0608136 -0.252910E+00  0.221E+00    0.28       1.0  T
   9    -13.0704125 -0.959886E-02  0.173E+00    0.30       1.0  T
  10    -13.0758432 -0.543068E-02  0.151E+00    0.22       1.0  T
  11    -13.0589437  0.168995E-01  0.214E+00    0.07       1.0  T
  12    -12.9595252  0.994185E-01  0.404E+00    0.04       1.0  T
  13    -12.9327892  0.267360E-01  0.441E+00    0.04       1.0  T
  14    -12.8943805  0.384087E-01  0.489E+00    0.03       1.0  T
  15    -12.9540784 -0.596979E-01  0.413E+00    0.04       1.0  T
  16    -13.0865433 -0.132465E+00  0.114E+00    0.09       1.0  T
  17    -13.0490823  0.374610E-01  0.240E+00    0.07       1.0  T
  18    -13.0937608 -0.446786E-01  0.464E-01    0.11       1.0  T
  19    -13.0804358  0.133250E-01  0.136E+00    0.09       1.0  T
  20    -13.0945223 -0.140865E-01  0.241E-01    0.12       1.0  T
  21    -13.0921806  0.234166E-02  0.597E-01    0.10       1.0  T
  22    -13.0946080 -0.242740E-02  0.157E-01    0.12       1.0  T
  23    -13.0944891  0.118877E-03  0.196E-01    0.11       1.0  T
  24    -13.0945609 -0.717490E-04  0.129E-01    0.12       1.0  T
  25    -13.0946727 -0.111840E-03  0.539E-02    0.12       1.0  T
  26    -13.0946580  0.147459E-04  0.626E-02    0.12       1.0  T
  27    -13.0946882 -0.302456E-04  0.173E-02    0.12       2.4  T
  28    -13.0946874  0.815510E-06  0.196E-02    0.12       2.1  T
  29    -13.0946801  0.725078E-05  0.351E-02    0.12       1.2  T
  30    -13.0946841 -0.395437E-05  0.275E-02    0.12       1.5  T
  31    -13.0946863 -0.218164E-05  0.221E-02    0.12       1.8  T
  32    -13.0946889 -0.260471E-05  0.133E-02    0.12       3.1  T
  33    -13.0946901 -0.122353E-05  0.561E-03    0.12       7.3  T
  34    -13.0946904 -0.269628E-06  0.766E-04    0.12      53.3  T
     SCC iter.                  ...        0 min,  0.002 sec
     gradient                   ...        0 min,  0.000 sec
 * total energy  :    -6.9527052 Eh     change       -0.3163236E+00 Eh
   gradient norm :    27.0943693 Eh/α   predicted    -0.2329621E+02 (7264.68%)
   displ. norm   :     0.3846156 α      lambda       -0.1042060E+02
   maximum displ.:     0.3845925 α      in ANC's #11, #3, #6, ...

........................................................................
.............................. CYCLE    3 ..............................
........................................................................
   1    -12.4670509 -0.124671E+02  0.925E+00    0.01       0.0  T
   2    -12.6735274 -0.206476E+00  0.931E+00    2.50       1.0  T
   3    -12.4288088  0.244719E+00  0.976E+00    0.10       1.0  T
   4    -12.9441506 -0.515342E+00  0.598E+00    0.90       1.0  T
   5    -13.0799518 -0.135801E+00  0.298E+00    0.44       1.0  T
   6    -13.0805040 -0.552156E-03  0.277E+00    0.40       1.0  T
   7    -13.0394825  0.410215E-01  0.378E+00    0.67       1.0  T
   8    -12.3810250  0.658457E+00  0.986E+00    0.00       1.0  T
   9    -12.3886437 -0.761876E-02  0.970E+00    0.00       1.0  T
  10    -13.0646265 -0.675983E+00  0.313E+00    0.56       1.0  T
  11    -13.0722496 -0.762309E-02  0.285E+00    0.53       1.0  T
  12    -13.0824487 -0.101992E-01  0.245E+00    0.48       1.0  T
  13    -13.0835269 -0.107811E-02  0.238E+00    0.47       1.0  T
  14    -13.0838016 -0.274794E-03  0.235E+00    0.47       1.0  T
  15    -13.0839428 -0.141158E-03  0.234E+00    0.47       1.0  T
  16    -13.0917175 -0.777464E-02  0.188E+00    0.27       1.0  T
  17    -13.1031757 -0.114582E-01  0.135E+00    0.19       1.0  T
  18    -13.1135852 -0.104095E-01  0.468E-01    0.12       1.0  T
  19    -13.0915781  0.220070E-01  0.186E+00    0.30       1.0  T
  20    -12.3847299  0.706848E+00  0.973E+00    0.00       1.0  T
  21    -12.5108580 -0.126128E+00  0.887E+00    0.01       1.0  T
  22    -13.0791014 -0.568243E+00  0.302E+00    0.44       1.0  T
  23    -13.0761653  0.293607E-02  0.301E+00    0.48       1.0  T
  24    -13.0838662 -0.770091E-02  0.237E+00    0.47       1.0  T
  25    -13.0875952 -0.372900E-02  0.207E+00    0.39       1.0  T
  26    -12.4446542  0.642941E+00  0.924E+00    0.00       1.0  T
  27    -13.0710604 -0.626406E+00  0.361E+00    0.46       1.0  T
  28    -13.0812841 -0.102238E-01  0.262E+00    0.47       1.0  T
  29    -13.0849034 -0.361926E-02  0.229E+00    0.47       1.0  T
  30    -13.1061760 -0.212726E-01  0.113E+00    0.10       1.0  T
  31    -13.0854777  0.206982E-01  0.226E+00    0.46       1.0  T
  32    -12.8831392  0.202339E+00  0.554E+00    0.04       1.0  T
  33    -13.0778298 -0.194691E+00  0.306E+00    0.46       1.0  T
  34    -13.0846740 -0.684425E-02  0.230E+00    0.47       1.0  T
  35    -13.1033384 -0.186644E-01  0.130E+00    0.19       1.0  T
  36    -12.4599181  0.643420E+00  0.914E+00    0.00       1.0  T
  37    -13.0698491 -0.609931E+00  0.371E+00    0.46       1.0  T
  38    -13.0825293 -0.126802E-01  0.252E+00    0.47       1.0  T
  39    -13.0859585 -0.342916E-02  0.219E+00    0.46       1.0  T
  40    -12.6460239  0.439935E+00  0.778E+00    0.02       1.0  T
  41    -13.0705936 -0.424570E+00  0.365E+00    0.46       1.0  T
  42    -13.0829615 -0.123679E-01  0.248E+00    0.47       1.0  T
  43    -13.0874886 -0.452718E-02  0.208E+00    0.42       1.0  T
  44    -12.4039309  0.683558E+00  0.954E+00    0.00       1.0  T
  45    -13.0661678 -0.662237E+00  0.395E+00    0.47       1.0  T
  46    -13.0825260 -0.163582E-01  0.252E+00    0.47       1.0  T
  47    -13.0871651 -0.463912E-02  0.210E+00    0.44       1.0  T
  48    -12.4001410  0.687024E+00  0.957E+00    0.00       1.0  T
  49    -13.0650375 -0.664896E+00  0.402E+00    0.47       1.0  T
  50    -13.0822966 -0.172591E-01  0.255E+00    0.47       1.0  T
  51    -13.0871311 -0.483452E-02  0.210E+00    0.44       1.0  T
  52    -12.4016225  0.685509E+00  0.956E+00    0.00       1.0  T
  53    -13.0634324 -0.661810E+00  0.412E+00    0.47       1.0  T
  54    -13.0816969 -0.182645E-01  0.262E+00    0.47       1.0  T
  55    -13.0864638 -0.476690E-02  0.215E+00    0.46       1.0  T
  56    -12.4147596  0.671704E+00  0.946E+00    0.00       1.0  T
  57    -13.0608780 -0.646118E+00  0.429E+00    0.47       1.0  T
  58    -13.0807444 -0.198664E-01  0.272E+00    0.47       1.0  T
  59    -13.0856931 -0.494867E-02  0.222E+00    0.46       1.0  T
  60    -12.4517014  0.633992E+00  0.920E+00    0.00       1.0  T
  61    -13.0588094 -0.607108E+00  0.443E+00    0.47       1.0  T
  62    -13.0798145 -0.210051E-01  0.283E+00    0.46       1.0  T
  63    -13.0852632 -0.544873E-02  0.226E+00    0.46       1.0  T
  64    -12.4623824  0.622881E+00  0.913E+00    0.01       1.0  T
  65    -13.0575470 -0.595165E+00  0.451E+00    0.47       1.0  T
  66    -13.0794458 -0.218988E-01  0.287E+00    0.46       1.0  T
  67    -13.0854432 -0.599743E-02  0.224E+00    0.46       1.0  T
  68    -12.4086067  0.676836E+00  0.951E+00    0.00       1.0  T
  69    -13.0572285 -0.648622E+00  0.452E+00    0.47       1.0  T
  70    -13.0798207 -0.225922E-01  0.283E+00    0.46       1.0  T
  71    -13.0863509 -0.653011E-02  0.216E+00    0.46       1.0  T
  72    -12.3874373  0.698914E+00  0.970E+00    0.00       1.0  T
  73    -13.0609289 -0.673492E+00  0.429E+00    0.47       1.0  T
  74    -13.0809371 -0.200081E-01  0.270E+00    0.47       1.0  T
  75    -13.0888992 -0.796212E-02  0.200E+00    0.35       1.0  T
  76    -12.3830605  0.705839E+00  0.976E+00    0.00       1.0  T
  77    -13.0631268 -0.680066E+00  0.415E+00    0.47       1.0  T
  78    -13.0811563 -0.180295E-01  0.268E+00    0.47       1.0  T
  79    -13.0887401 -0.758383E-02  0.201E+00    0.36       1.0  T
  80    -12.3857886  0.702951E+00  0.972E+00    0.00       1.0  T
  81    -13.0598468 -0.674058E+00  0.436E+00    0.47       1.0  T
  82    -13.0800946 -0.202478E-01  0.279E+00    0.46       1.0  T
  83    -13.0866407 -0.654609E-02  0.214E+00    0.46       1.0  T
  84    -12.3918094  0.694831E+00  0.965E+00    0.00       1.0  T
  85    -13.0555331 -0.663724E+00  0.461E+00    0.47       1.0  T
  86    -13.0788591 -0.233259E-01  0.293E+00    0.46       1.0  T
  87    -13.0857041 -0.684502E-02  0.221E+00    0.46       1.0  T
  88    -12.3970968  0.688607E+00  0.960E+00    0.00       1.0  T
  89    -13.0529316 -0.655835E+00  0.476E+00    0.47       1.0  T
  90    -13.0781507 -0.252191E-01  0.301E+00    0.46       1.0  T
  91    -13.0854857 -0.733495E-02  0.223E+00    0.46       1.0  T
  92    -12.3930792  0.692406E+00  0.964E+00    0.00       1.0  T
  93    -13.0535061 -0.660427E+00  0.473E+00    0.47       1.0  T
  94    -13.0785732 -0.250671E-01  0.296E+00    0.46       1.0  T
  95    -13.0862425 -0.766931E-02  0.217E+00    0.46       1.0  T
  96    -12.3853102  0.700932E+00  0.973E+00    0.00       1.0  T
  97    -13.0571361 -0.671826E+00  0.452E+00    0.47       1.0  T
  98    -13.0796904 -0.225543E-01  0.284E+00    0.46       1.0  T
  99    -13.0879228 -0.823237E-02  0.205E+00    0.40       1.0  T
 100    -12.3824418  0.705481E+00  0.977E+00    0.00       1.0  T
 101    -13.0589229 -0.676481E+00  0.442E+00    0.47       1.0  T
 102    -13.0799439 -0.210210E-01  0.281E+00    0.46       1.0  T
 103    -13.0881650 -0.822116E-02  0.204E+00    0.39       1.0  T
 104    -12.3834473  0.704718E+00  0.976E+00    0.00       1.0  T
 105    -13.0567162 -0.673269E+00  0.455E+00    0.47       1.0  T
 106    -13.0792453 -0.225290E-01  0.289E+00    0.46       1.0  T
 107    -13.0871064 -0.786111E-02  0.210E+00    0.45       1.0  T
 108    -12.3848124  0.702294E+00  0.974E+00    0.00       1.0  T
 109    -13.0544719 -0.669659E+00  0.468E+00    0.47       1.0  T
 110    -13.0786851 -0.242133E-01  0.295E+00    0.46       1.0  T
 111    -13.0867314 -0.804629E-02  0.213E+00    0.46       1.0  T
 112    -12.3847466  0.701985E+00  0.974E+00    0.00       1.0  T
 113    -13.0538206 -0.669074E+00  0.472E+00    0.47       1.0  T
 114    -13.0785968 -0.247763E-01  0.296E+00    0.46       1.0  T
 115    -13.0869200 -0.832315E-02  0.212E+00    0.46       1.0  T
 116    -12.3836219  0.703298E+00  0.975E+00    0.00       1.0  T
 117    -13.0543068 -0.670685E+00  0.469E+00    0.47       1.0  T
 118    -13.0787938 -0.244869E-01  0.293E+00    0.46       1.0  T
 119    -13.0873909 -0.859711E-02  0.208E+00    0.43       1.0  T
 120    -12.3828269  0.704564E+00  0.977E+00    0.00       1.0  T
 121    -13.0545017 -0.671675E+00  0.468E+00    0.47       1.0  T
 122    -13.0788624 -0.243608E-01  0.293E+00    0.46       1.0  T
 123    -13.0876537 -0.879124E-02  0.207E+00    0.42       1.0  T
 124    -12.3826700  0.704984E+00  0.977E+00    0.00       1.0  T
 125    -13.0539814 -0.671311E+00  0.471E+00    0.47       1.0  T
 126    -13.0787545 -0.247732E-01  0.294E+00    0.46       1.0  T
 127    -13.0876717 -0.891718E-02  0.207E+00    0.41       1.0  T
 128    -12.3826225  0.705049E+00  0.977E+00    0.00       1.0  T
 129    -13.0534091 -0.670787E+00  0.474E+00    0.47       1.0  T
 130    -13.0786691 -0.252600E-01  0.295E+00    0.46       1.0  T
 131    -13.0877485 -0.907941E-02  0.206E+00    0.41       1.0  T
 132    -12.3824947  0.705254E+00  0.977E+00    0.00       1.0  T
 133    -13.0530132 -0.670519E+00  0.477E+00    0.47       1.0  T
 134    -13.0786441 -0.256309E-01  0.295E+00    0.46       1.0  T
 135    -13.0879148 -0.927072E-02  0.205E+00    0.40       1.0  T
 136    -12.3823966  0.705518E+00  0.977E+00    0.00       1.0  T
 137    -13.0526408 -0.670244E+00  0.479E+00    0.47       1.0  T
 138    -13.0786311 -0.259903E-01  0.295E+00    0.46       1.0  T
 139    -13.0880930 -0.946192E-02  0.204E+00    0.39       1.0  T
 140    -12.3823743  0.705719E+00  0.977E+00    0.00       1.0  T
 141    -13.0522340 -0.669860E+00  0.481E+00    0.47       1.0  T
 142    -13.0786187 -0.263847E-01  0.296E+00    0.46       1.0  T
 143    -13.0882686 -0.964981E-02  0.203E+00    0.38       1.0  T
 144    -12.3824131  0.705855E+00  0.977E+00    0.00       1.0  T
 145    -13.0518161 -0.669403E+00  0.484E+00    0.47       1.0  T
 146    -13.0786138 -0.267977E-01  0.296E+00    0.46       1.0  T
 147    -13.0884542 -0.984037E-02  0.202E+00    0.37       1.0  T
 148    -12.3825145  0.705940E+00  0.977E+00    0.00       1.0  T
 149    -13.0513868 -0.668872E+00  0.486E+00    0.47       1.0  T
 150    -13.0786149 -0.272281E-01  0.296E+00    0.46       1.0  T
 151    -13.0886487 -0.100338E-01  0.201E+00    0.37       1.0  T
 152    -12.3826804  0.705968E+00  0.977E+00    0.00       1.0  T
 153    -13.0509476 -0.668267E+00  0.489E+00    0.47       1.0  T
 154    -13.0786219 -0.276743E-01  0.296E+00    0.46       1.0  T
 155    -13.0888534 -0.102315E-01  0.200E+00    0.36       1.0  T
 156    -12.3829148  0.705939E+00  0.976E+00    0.00       1.0  T
 157    -13.0504975 -0.667583E+00  0.491E+00    0.47       1.0  T
 158    -13.0786340 -0.281365E-01  0.296E+00    0.46       1.0  T
 159    -13.0890686 -0.104346E-01  0.199E+00    0.35       1.0  T
 160    -12.3832225  0.705846E+00  0.976E+00    0.00       1.0  T
 161    -13.0500360 -0.666813E+00  0.494E+00    0.47       1.0  T
 162    -13.0786509 -0.286149E-01  0.296E+00    0.46       1.0  T
 163    -13.0892958 -0.106449E-01  0.198E+00    0.34       1.0  T
 164    -12.3836113  0.705685E+00  0.975E+00    0.00       1.0  T
 165    -13.0495602 -0.665949E+00  0.496E+00    0.47       1.0  T
 166    -13.0786715 -0.291113E-01  0.296E+00    0.46       1.0  T
 167    -13.0895357 -0.108642E-01  0.197E+00    0.34       1.0  T
 168    -12.3840904  0.705445E+00  0.975E+00    0.00       1.0  T
 169    -13.0490676 -0.664977E+00  0.499E+00    0.47       1.0  T
 170    -13.0786952 -0.296275E-01  0.295E+00    0.46       1.0  T
 171    -13.0897905 -0.110954E-01  0.196E+00    0.33       1.0  T
 172    -12.3846752  0.705115E+00  0.974E+00    0.00       1.0  T
 173    -13.0485522 -0.663877E+00  0.502E+00    0.47       1.0  T
 174    -13.0787205 -0.301683E-01  0.295E+00    0.46       1.0  T
 175    -13.0900618 -0.113413E-01  0.194E+00    0.32       1.0  T
 176    -12.3853836  0.704678E+00  0.973E+00    0.00       1.0  T
 177    -13.0480098 -0.662626E+00  0.505E+00    0.47       1.0  T
 178    -13.0787468 -0.307370E-01  0.295E+00    0.46       1.0  T
 179    -13.0903538 -0.116070E-01  0.193E+00    0.32       1.0  T
 180    -12.3862482  0.704106E+00  0.971E+00    0.00       1.0  T
 181    -13.0474268 -0.661179E+00  0.508E+00    0.47       1.0  T
 182    -13.0787712 -0.313445E-01  0.295E+00    0.46       1.0  T
 183    -13.0906668 -0.118955E-01  0.191E+00    0.31       1.0  T
 184    -12.3872992  0.703368E+00  0.970E+00    0.00       1.0  T
 185    -13.0468041 -0.659505E+00  0.512E+00    0.47       1.0  T
 186    -13.0787950 -0.319908E-01  0.295E+00    0.46       1.0  T
 187    -13.0910139 -0.122189E-01  0.190E+00    0.30       1.0  T
 188    -12.3886320  0.702382E+00  0.968E+00    0.00       1.0  T
 189    -13.0460957 -0.657464E+00  0.516E+00    0.47       1.0  T
 190    -13.0788074 -0.327117E-01  0.295E+00    0.46       1.0  T
 191    -13.0913750 -0.125677E-01  0.188E+00    0.29       1.0  T
 192    -12.3902194  0.701156E+00  0.966E+00    0.00       1.0  T
 193    -13.0453905 -0.655171E+00  0.519E+00    0.47       1.0  T
 194    -13.0788322 -0.334417E-01  0.295E+00    0.46       1.0  T
 195    -13.0918467 -0.130144E-01  0.186E+00    0.29       1.0  T
 196    -12.3927490  0.699098E+00  0.964E+00    0.00       1.0  T
 197    -13.0442670 -0.651518E+00  0.525E+00    0.48       1.0  T
 198    -13.0787648 -0.344977E-01  0.296E+00    0.46       1.0  T
 199    -13.0920708 -0.133060E-01  0.185E+00    0.28       1.0  T
 200    -12.3937340  0.698337E+00  0.963E+00    0.00       1.0  T
 201    -13.0444883 -0.650754E+00  0.524E+00    0.47       1.0  T
 202    -13.0790495 -0.345613E-01  0.293E+00    0.46       1.0  T
 203    -13.0939463 -0.148967E-01  0.177E+00    0.26       1.0  T
 204    -12.4241468  0.669799E+00  0.939E+00    0.00       1.0  T
 205    -13.0356910 -0.611544E+00  0.567E+00    0.48       1.0  T
 206    -13.0768396 -0.411486E-01  0.318E+00    0.46       1.0  T
 207    -13.0886355 -0.117958E-01  0.202E+00    0.35       1.0  T
 208    -12.3799487  0.708687E+00  0.982E+00    0.00       1.0  T
 209    -13.0617534 -0.681805E+00  0.427E+00    0.47       1.0  T
 210    -13.0827924 -0.210390E-01  0.251E+00    0.47       1.0  T
 211    -12.6753471  0.407445E+00  0.756E+00    0.02       1.0  T
 212    -13.0340780 -0.358731E+00  0.576E+00    0.48       1.0  T
 213    -13.0753962 -0.413182E-01  0.331E+00    0.46       1.0  T
 214    -13.0865453 -0.111491E-01  0.214E+00    0.47       1.0  T
 215    -12.3788114  0.707734E+00  0.985E+00    0.00       1.0  T
 216    -13.0647476 -0.685936E+00  0.407E+00    0.47       1.0  T
 217    -13.0834285 -0.186809E-01  0.244E+00    0.47       1.0  T
 218    -12.4722277  0.611201E+00  0.907E+00    0.01       1.0  T
 219    -13.0289596 -0.556732E+00  0.596E+00    0.48       1.0  T
 220    -13.0745748 -0.456152E-01  0.340E+00    0.45       1.0  T
 221    -13.0861517 -0.115769E-01  0.217E+00    0.47       1.0  T
 222    -12.3792749  0.706877E+00  0.984E+00    0.00       1.0  T
 223    -13.0625006 -0.683226E+00  0.422E+00    0.47       1.0  T
 224    -13.0826748 -0.201741E-01  0.252E+00    0.46       1.0  T
 225    -13.0169446  0.657302E-01  0.368E+00    0.06       1.0  T
 226    -13.0598524 -0.429078E-01  0.442E+00    0.47       1.0  T
 227    -13.0818558 -0.220035E-01  0.261E+00    0.46       1.0  T
 228    -13.0392369  0.426190E-01  0.324E+00    0.06       1.0  T
 229    -13.0663201 -0.270832E-01  0.400E+00    0.46       1.0  T
 230    -13.0842070 -0.178869E-01  0.236E+00    0.46       1.0  T
 231    -12.3835762  0.700631E+00  0.976E+00    0.00       1.0  T
 232    -13.0640033 -0.680427E+00  0.413E+00    0.47       1.0  T
 233    -13.0850577 -0.210544E-01  0.227E+00    0.47       1.0  T
 234    -12.3819514  0.703106E+00  0.979E+00    0.00       1.0  T
 235    -13.0608101 -0.678859E+00  0.431E+00    0.47       1.0  T
 236    -13.0830493 -0.222393E-01  0.248E+00    0.47       1.0  T
 237    -12.7039783  0.379071E+00  0.733E+00    0.02       1.0  T
 238    -13.0352717 -0.331293E+00  0.569E+00    0.48       1.0  T
 239    -13.0758378 -0.405661E-01  0.326E+00    0.46       1.0  T
 240    -13.0865089 -0.106711E-01  0.214E+00    0.47       1.0  T
 241    -12.3806189  0.705890E+00  0.981E+00    0.00       1.0  T
 242    -13.0631660 -0.682547E+00  0.417E+00    0.47       1.0  T
 243    -13.0833007 -0.201348E-01  0.245E+00    0.46       1.0  T
 244    -12.6621143  0.421186E+00  0.767E+00    0.02       1.0  T
 245    -13.0335077 -0.371393E+00  0.578E+00    0.48       1.0  T
 246    -13.0755958 -0.420881E-01  0.328E+00    0.46       1.0  T
 247    -13.0865558 -0.109600E-01  0.214E+00    0.47       1.0  T
 248    -12.3804884  0.706067E+00  0.981E+00    0.00       1.0  T
 249    -13.0639164 -0.683428E+00  0.413E+00    0.47       1.0  T
 250    -13.0834605 -0.195442E-01  0.244E+00    0.46       1.0  T
     SCC iter.                  ...        0 min,  0.112 sec
     gradient                   ...        0 min,  0.000 sec
 * total energy  :   -12.9001810 Eh     change       -0.5947476E+01 Eh
   gradient norm :     3.9953922 Eh/α   predicted    -0.5981056E+01 (   0.56%)
   displ. norm   :     0.0733620 α      lambda       -0.2654031E+00
   maximum displ.:     0.0661786 α      in ANC's #11, #3, #6, ...

........................................................................
.............................. CYCLE    4 ..............................
........................................................................
   1    -12.4476551 -0.124477E+02  0.983E+00    0.00       0.0  T
   2    -12.6811398 -0.233485E+00  0.930E+00    2.45       1.0  T
   3    -12.3896961  0.291444E+00  0.997E+00    0.08       1.0  T
   4    -12.9708482 -0.581152E+00  0.559E+00    0.73       1.0  T
   5    -12.8905097  0.803384E-01  0.590E+00    0.21       1.0  T
   6    -12.9316441 -0.411344E-01  0.529E+00    0.23       1.0  T
   7    -12.3836337  0.548010E+00  0.101E+01    0.00       1.0  T
   8    -12.4012160 -0.175823E-01  0.974E+00    0.00       1.0  T
   9    -13.0167060 -0.615490E+00  0.464E+00    0.70       1.0  T
  10    -13.0323907 -0.156848E-01  0.415E+00    0.63       1.0  T
  11    -13.0555847 -0.231940E-01  0.354E+00    0.55       1.0  T
  12    -13.0840968 -0.285121E-01  0.269E+00    0.44       1.0  T
  13    -13.0879602 -0.386343E-02  0.252E+00    0.42       1.0  T
  14    -13.0891280 -0.116784E-02  0.242E+00    0.42       1.0  T
  15    -13.0903794 -0.125140E-02  0.232E+00    0.41       1.0  T
  16    -13.0907182 -0.338783E-03  0.227E+00    0.42       1.0  T
  17    -13.1061797 -0.154615E-01  0.153E+00    0.10       1.0  T
  18    -13.0808533  0.253265E-01  0.284E+00    0.45       1.0  T
  19    -13.0914181 -0.105649E-01  0.220E+00    0.42       1.0  T
  20    -13.1169131 -0.254949E-01  0.707E-01    0.16       1.0  T
  21    -13.0899200  0.269930E-01  0.225E+00    0.44       1.0  T
  22    -13.1187314 -0.288114E-01  0.517E-01    0.12       1.0  T
  23    -13.0910991  0.276324E-01  0.221E+00    0.43       1.0  T
  24    -13.1102708 -0.191718E-01  0.119E+00    0.19       1.0  T
  25    -13.0990021  0.112687E-01  0.179E+00    0.26       1.0  T
  26    -13.1194862 -0.204841E-01  0.251E-01    0.13       1.0  T
  27    -13.0946100  0.248762E-01  0.200E+00    0.36       1.0  T
  28    -13.1193962 -0.247862E-01  0.244E-01    0.13       1.0  T
  29    -13.0943390  0.250572E-01  0.201E+00    0.37       1.0  T
  30    -13.1183833 -0.240444E-01  0.432E-01    0.14       1.0  T
  31    -13.0966803  0.217031E-01  0.190E+00    0.30       1.0  T
  32    -13.1193671 -0.226868E-01  0.192E-01    0.13       1.0  T
  33    -13.0981992  0.211679E-01  0.182E+00    0.28       1.0  T
  34    -13.1193147 -0.211156E-01  0.197E-01    0.12       1.0  T
  35    -13.0989422  0.203725E-01  0.178E+00    0.27       1.0  T
  36    -13.1182937 -0.193514E-01  0.427E-01    0.12       1.0  T
  37    -13.1003171  0.179765E-01  0.172E+00    0.26       1.0  T
  38    -13.1180167 -0.176996E-01  0.468E-01    0.12       1.0  T
  39    -13.1028070  0.152097E-01  0.159E+00    0.23       1.0  T
  40    -13.1187419 -0.159349E-01  0.337E-01    0.12       1.0  T
  41    -13.1065649  0.121770E-01  0.140E+00    0.21       1.0  T
  42    -13.1194269 -0.128619E-01  0.124E-01    0.13       1.0  T
  43    -13.1111921  0.823473E-02  0.111E+00    0.18       1.0  T
  44    -13.1194980 -0.830588E-02  0.783E-02    0.13       1.0  T
  45    -13.1155913  0.390675E-02  0.763E-01    0.16       1.0  T
  46    -13.1193489 -0.375766E-02  0.167E-01    0.13       1.0  T
  47    -13.1184063  0.942648E-03  0.407E-01    0.14       1.0  T
  48    -13.1194242 -0.101789E-02  0.128E-01    0.13       1.0  T
  49    -13.1194149  0.924776E-05  0.132E-01    0.13       1.0  T
  50    -13.1189258  0.489102E-03  0.298E-01    0.12       1.0  T
  51    -13.1188751  0.506668E-04  0.312E-01    0.12       1.0  T
  52    -13.1194614 -0.586228E-03  0.106E-01    0.13       1.0  T
  53    -13.1194874 -0.259902E-04  0.841E-02    0.13       1.0  T
  54    -13.1194877 -0.327450E-06  0.846E-02    0.13       1.0  T
  55    -13.1194766  0.110681E-04  0.930E-02    0.13       1.0  T
  56    -13.1195265 -0.498764E-04  0.371E-02    0.13       1.1  T
  57    -13.1195349 -0.843336E-05  0.126E-02    0.13       3.2  T
  58    -13.1195354 -0.496874E-06  0.944E-03    0.13       4.3  T
  59    -13.1195349  0.513121E-06  0.128E-02    0.13       3.2  T
  60    -13.1195330  0.190487E-05  0.210E-02    0.13       1.9  T
  61    -13.1195320  0.102523E-05  0.243E-02    0.13       1.7  T
  62    -13.1195290  0.298096E-05  0.320E-02    0.13       1.3  T
  63    -13.1195265  0.247574E-05  0.373E-02    0.13       1.1  T
  64    -13.1195218  0.468000E-05  0.455E-02    0.13       1.0  T
  65    -13.1195171  0.472334E-05  0.526E-02    0.13       1.0  T
  66    -13.1195099  0.725877E-05  0.618E-02    0.13       1.0  T
  67    -13.1195024  0.743207E-05  0.701E-02    0.13       1.0  T
  68    -13.1194921  0.103207E-04  0.801E-02    0.13       1.0  T
  69    -13.1194822  0.994558E-05  0.888E-02    0.13       1.0  T
  70    -13.1194691  0.130487E-04  0.988E-02    0.13       1.0  T
  71    -13.1194578  0.113606E-04  0.107E-01    0.13       1.0  T
  72    -13.1194435  0.142883E-04  0.116E-01    0.13       1.0  T
  73    -13.1194326  0.108363E-04  0.123E-01    0.13       1.0  T
  74    -13.1194196  0.130191E-04  0.130E-01    0.12       1.0  T
  75    -13.1194116  0.804549E-05  0.135E-01    0.13       1.0  T
  76    -13.1194026  0.895040E-05  0.140E-01    0.12       1.0  T
  77    -13.1193992  0.343781E-05  0.142E-01    0.13       1.0  T
  78    -13.1193963  0.284413E-05  0.143E-01    0.12       1.0  T
  79    -13.1193982 -0.189118E-05  0.142E-01    0.13       1.0  T
  80    -13.1194020 -0.372796E-05  0.140E-01    0.12       1.0  T
  81    -13.1194086 -0.665426E-05  0.137E-01    0.13       1.0  T
  82    -13.1194177 -0.908187E-05  0.131E-01    0.12       1.0  T
  83    -13.1194276 -0.986808E-05  0.126E-01    0.13       1.0  T
  84    -13.1194397 -0.121269E-04  0.119E-01    0.13       1.0  T
  85    -13.1194508 -0.111362E-04  0.112E-01    0.13       1.0  T
  86    -13.1194635 -0.126772E-04  0.103E-01    0.13       1.0  T
  87    -13.1194741 -0.106471E-04  0.952E-02    0.13       1.0  T
  88    -13.1194854 -0.112964E-04  0.859E-02    0.13       1.0  T
  89    -13.1194944 -0.896995E-05  0.781E-02    0.13       1.0  T
  90    -13.1195033 -0.888509E-05  0.691E-02    0.13       1.0  T
  91    -13.1195101 -0.678293E-05  0.616E-02    0.13       1.0  T
  92    -13.1195164 -0.628144E-05  0.536E-02    0.13       1.0  T
  93    -13.1195210 -0.464985E-05  0.469E-02    0.13       1.0  T
  94    -13.1195250 -0.403472E-05  0.401E-02    0.13       1.0  T
  95    -13.1195280 -0.291293E-05  0.344E-02    0.13       1.2  T
  96    -13.1195304 -0.241707E-05  0.287E-02    0.13       1.4  T
  97    -13.1195321 -0.175155E-05  0.239E-02    0.13       1.7  T
  98    -13.1195335 -0.139497E-05  0.192E-02    0.13       2.1  T
  99    -13.1195345 -0.985610E-06  0.149E-02    0.13       2.7  T
 100    -13.1195352 -0.720329E-06  0.108E-02    0.13       3.8  T
 101    -13.1195357 -0.452486E-06  0.716E-03    0.13       5.7  T
 102    -13.1195359 -0.251924E-06  0.380E-03    0.13      10.8  T
 103    -13.1195360 -0.880454E-07  0.124E-03    0.13      33.0  T
     SCC iter.                  ...        0 min,  0.012 sec
     gradient                   ...        0 min,  0.000 sec
 * total energy  :   -13.0648661 Eh     change       -0.1646851E+00 Eh
   gradient norm :     0.0289441 Eh/α   predicted    -0.1334158E+00 ( -18.99%)
   displ. norm   :     0.0664519 α      lambda       -0.6202885E-03
   maximum displ.:     0.0436290 α      in ANC's #1, #2, #3, ...

........................................................................
.............................. CYCLE    5 ..............................
........................................................................
   1    -13.1221263 -0.131221E+02  0.136E-01    0.13       0.0  T
   2    -13.1091634  0.129629E-01  0.130E+00    0.20       1.0  T
   3    -13.1211187 -0.119553E-01  0.449E-01    0.12       1.0  T
   4    -13.1222001 -0.108146E-02  0.872E-02    0.13       1.0  T
   5    -13.1220025  0.197623E-03  0.195E-01    0.12       1.0  T
   6    -13.1222276 -0.225114E-03  0.144E-02    0.13       2.8  T
   7    -13.1222247  0.297720E-05  0.253E-02    0.13       1.6  T
   8    -13.1222283 -0.362664E-05  0.916E-03    0.13       4.5  T
   9    -13.1222288 -0.519317E-06  0.118E-03    0.13      34.6  T
  10    -13.1222288 -0.916075E-08  0.148E-04    0.13     275.9  T
     SCC iter.                  ...        0 min,  0.001 sec
     gradient                   ...        0 min,  0.000 sec
 * total energy  :   -13.0653108 Eh     change       -0.4446641E-03 Eh
   gradient norm :     0.0230790 Eh/α   predicted    -0.3115112E-03 ( -29.94%)
   displ. norm   :     0.2388382 α      lambda       -0.3061375E-02
   maximum displ.:     0.1931790 α      in ANC's #3, #1, #2, ...

........................................................................
.............................. CYCLE    6 ..............................
........................................................................
   1    -13.1254923 -0.131255E+02  0.120E+00    0.10       0.0  T
   2    -13.1057697  0.197226E-01  0.235E+00    0.40       1.0  T
   3    -13.1050896  0.680108E-03  0.201E+00    0.35       1.0  T
   4    -13.1124651 -0.737554E-02  0.183E+00    0.35       1.0  T
   5    -13.0868653  0.255998E-01  0.269E+00    0.07       1.0  T
   6    -13.1257351 -0.388699E-01  0.123E+00    0.10       1.0  T
   7    -13.1298142 -0.407910E-02  0.868E-01    0.17       1.0  T
   8    -13.1350097 -0.519546E-02  0.191E-01    0.13       1.0  T
   9    -13.1348704  0.139297E-03  0.260E-01    0.12       1.0  T
  10    -13.1351835 -0.313148E-03  0.108E-01    0.13       1.0  T
  11    -13.1352364 -0.528733E-04  0.550E-02    0.13       1.0  T
  12    -13.1352469 -0.105211E-04  0.371E-02    0.13       1.1  T
  13    -13.1352543 -0.734964E-05  0.134E-02    0.13       3.0  T
  14    -13.1352547 -0.414314E-06  0.111E-02    0.13       3.7  T
  15    -13.1352544  0.275257E-06  0.126E-02    0.13       3.2  T
  16    -13.1352553 -0.925004E-06  0.513E-03    0.13       8.0  T
  17    -13.1352555 -0.158863E-06  0.633E-04    0.13      64.5  T
     SCC iter.                  ...        0 min,  0.001 sec
     gradient                   ...        0 min,  0.000 sec
 * total energy  :   -13.0658854 Eh     change       -0.5745778E-03 Eh
   gradient norm :     0.1222702 Eh/α   predicted    -0.1617995E-02 ( 181.60%)
   displ. norm   :     0.0944494 α      lambda       -0.1300383E-02
   maximum displ.:     0.0740720 α      in ANC's #1, #2, #6, ...

........................................................................
.............................. CYCLE    7 ..............................
........................................................................
   1    -13.1314984 -0.131315E+02  0.426E-01    0.14       0.0  T
   2    -12.4253188  0.706180E+00  0.981E+00    0.00       1.0  T
   3    -13.1136636 -0.688345E+00  0.159E+00    0.17       1.0  T
   4    -13.1321691 -0.185055E-01  0.244E-01    0.13       1.0  T
   5    -13.1322995 -0.130476E-03  0.171E-01    0.13       1.0  T
   6    -13.1324440 -0.144450E-03  0.635E-02    0.13       1.0  T
   7    -13.1324463 -0.229017E-05  0.599E-02    0.13       1.0  T
   8    -13.1324645 -0.182400E-04  0.703E-03    0.13       5.8  T
   9    -13.1324648 -0.231726E-06  0.361E-03    0.13      11.3  T
  10    -13.1324648 -0.782445E-07  0.105E-03    0.13      38.8  T
     SCC iter.                  ...        0 min,  0.001 sec
     gradient                   ...        0 min,  0.000 sec
 * total energy  :   -13.0666204 Eh     change       -0.7350683E-03 Eh
   gradient norm :     0.0741005 Eh/α   predicted    -0.6559920E-03 ( -10.76%)
   displ. norm   :     0.0703406 α      lambda       -0.1547182E-02
   maximum displ.:     0.0464937 α      in ANC's #6, #2, #1, ...

........................................................................
.............................. CYCLE    8 ..............................
........................................................................
   1    -13.1200542 -0.131201E+02  0.107E+00    0.16       0.0  T
   2    -12.3767911  0.743263E+00  0.103E+01    0.00       1.0  T
   3    -12.9688059 -0.592015E+00  0.466E+00    0.22       1.0  T
   4    -13.1235690 -0.154763E+00  0.647E-01    0.11       1.0  T
   5    -13.1250241 -0.145517E-02  0.497E-01    0.14       1.0  T
   6    -13.1264055 -0.138137E-02  0.973E-02    0.13       1.0  T
   7    -13.1258457  0.559790E-03  0.324E-01    0.12       1.0  T
   8    -13.1264256 -0.579915E-03  0.509E-02    0.13       1.0  T
   9    -13.1264434 -0.177504E-04  0.192E-02    0.13       2.1  T
  10    -13.1264438 -0.399641E-06  0.181E-02    0.13       2.3  T
  11    -13.1264443 -0.540470E-06  0.155E-02    0.13       2.6  T
  12    -13.1264455 -0.119588E-05  0.539E-03    0.13       7.6  T
  13    -13.1264457 -0.167354E-06  0.158E-04    0.13     258.8  T
     SCC iter.                  ...        0 min,  0.001 sec
     gradient                   ...        0 min,  0.000 sec
 * total energy  :   -13.0666452 Eh     change       -0.2475892E-04 Eh
   gradient norm :     0.1624582 Eh/α   predicted    -0.7774192E-03 (3039.96%)
   displ. norm   :     0.0595360 α      lambda       -0.1162564E-02
   maximum displ.:     0.0562094 α      in ANC's #3, #2, #1, ...

........................................................................
.............................. CYCLE    9 ..............................
........................................................................
   1    -13.1271386 -0.131271E+02  0.420E-01    0.12       0.0  T
   2    -13.1009165  0.262221E-01  0.215E+00    0.42       1.0  T
   3    -13.1157641 -0.148476E-01  0.126E+00    0.18       1.0  T
   4    -13.1246739 -0.890983E-02  0.745E-01    0.16       1.0  T
   5    -13.1264391 -0.176516E-02  0.543E-01    0.11       1.0  T
   6    -13.1283448 -0.190578E-02  0.828E-02    0.13       1.0  T
   7    -13.1280947  0.250155E-03  0.200E-01    0.14       1.0  T
   8    -13.1283777 -0.282977E-03  0.172E-02    0.13       2.4  T
   9    -13.1283799 -0.226386E-05  0.580E-04    0.13      70.4  T
  10    -13.1283798  0.116056E-06  0.398E-03    0.13      10.3  T
     SCC iter.                  ...        0 min,  0.001 sec
     gradient                   ...        0 min,  0.000 sec
 * total energy  :   -13.0673737 Eh     change       -0.7285613E-03 Eh
   gradient norm :     0.0306848 Eh/α   predicted    -0.5833416E-03 ( -19.93%)
   displ. norm   :     0.0711131 α      lambda       -0.3092812E-03
   maximum displ.:     0.0682263 α      in ANC's #3, #2, #6, ...

........................................................................
.............................. CYCLE   10 ..............................
........................................................................
   1    -13.1277386 -0.131277E+02  0.247E-01    0.12       0.0  T
   2    -13.0822710  0.454677E-01  0.244E+00    0.24       1.0  T
   3    -13.1263529 -0.440820E-01  0.555E-01    0.15       1.0  T
   4    -13.1280568 -0.170385E-02  0.132E-01    0.13       1.0  T
   5    -13.1280790 -0.222122E-04  0.989E-02    0.13       1.0  T
   6    -13.1281219 -0.429403E-04  0.515E-02    0.13       1.0  T
   7    -13.1281315 -0.954362E-05  0.287E-02    0.13       1.4  T
   8    -13.1281357 -0.416343E-05  0.996E-03    0.13       4.1  T
   9    -13.1281361 -0.484141E-06  0.421E-03    0.13       9.7  T
  10    -13.1281362 -0.854933E-07  0.202E-03    0.13      20.3  T
     SCC iter.                  ...        0 min,  0.001 sec
     gradient                   ...        0 min,  0.000 sec
 * total energy  :   -13.0675844 Eh     change       -0.2106988E-03 Eh
   gradient norm :     0.0123040 Eh/α   predicted    -0.1554205E-03 ( -26.24%)
   displ. norm   :     0.0716267 α      lambda       -0.1299186E-03
   maximum displ.:     0.0594313 α      in ANC's #3, #1, #2, ...

........................................................................
.............................. CYCLE   11 ..............................
........................................................................
   1    -13.1269239 -0.131269E+02  0.217E-01    0.13       0.0  T
   2    -13.0940748  0.328491E-01  0.206E+00    0.22       1.0  T
   3    -13.1270462 -0.329714E-01  0.187E-01    0.13       1.0  T
   4    -13.1268505  0.195723E-03  0.233E-01    0.12       1.0  T
   5    -13.1272167 -0.366230E-03  0.148E-02    0.13       2.8  T
   6    -13.1272022  0.144974E-04  0.499E-02    0.13       1.0  T
   7    -13.1272167 -0.145178E-04  0.437E-03    0.13       9.3  T
   8    -13.1272168 -0.888821E-07  0.168E-03    0.13      24.3  T
   9    -13.1272168  0.120193E-07  0.210E-03    0.13      19.4  T
     SCC iter.                  ...        0 min,  0.001 sec
     gradient                   ...        0 min,  0.000 sec
 * total energy  :   -13.0676274 Eh     change       -0.4291016E-04 Eh
   gradient norm :     0.0134907 Eh/α   predicted    -0.6529093E-04 (  52.16%)
   displ. norm   :     0.0527328 α      lambda       -0.5935525E-04
   maximum displ.:     0.0406904 α      in ANC's #2, #1, #3, ...

........................................................................
.............................. CYCLE   12 ..............................
........................................................................
   1    -13.1270077 -0.131270E+02  0.669E-02    0.13       0.0  T
   2    -13.1248102  0.219752E-02  0.529E-01    0.15       1.0  T
   3    -13.1262840 -0.147384E-02  0.356E-01    0.12       1.0  T
   4    -13.1269584 -0.674368E-03  0.113E-01    0.13       1.0  T
   5    -13.1270217 -0.633126E-04  0.153E-02    0.13       2.7  T
   6    -13.1270226 -0.937326E-06  0.637E-03    0.13       6.4  T
   7    -13.1270229 -0.231240E-06  0.583E-04    0.13      70.0  T
   8    -13.1270229  0.102378E-07  0.140E-03    0.13      29.2  T
     SCC iter.                  ...        0 min,  0.001 sec
     gradient                   ...        0 min,  0.000 sec
 * total energy  :   -13.0676337 Eh     change       -0.6315486E-05 Eh
   gradient norm :     0.0046725 Eh/α   predicted    -0.2975860E-04 ( 371.20%)
   displ. norm   :     0.0262049 α      lambda       -0.2395032E-04
   maximum displ.:     0.0168027 α      in ANC's #3, #2, #1, ...

........................................................................
.............................. CYCLE   13 ..............................
........................................................................
   1    -13.1273899 -0.131274E+02  0.651E-02    0.13       0.0  T
   2    -13.1221724  0.521749E-02  0.821E-01    0.11       1.0  T
   3    -13.1259195 -0.374708E-02  0.519E-01    0.14       1.0  T
   4    -13.1274012 -0.148167E-02  0.548E-02    0.13       1.0  T
   5    -13.1274122 -0.110626E-04  0.253E-02    0.13       1.6  T
   6    -13.1274154 -0.315843E-05  0.168E-03    0.13      24.3  T
   7    -13.1274154 -0.167358E-08  0.122E-03    0.13      33.4  T
   8    -13.1274154 -0.867273E-08  0.229E-04    0.13     178.2  T
     SCC iter.                  ...        0 min,  0.001 sec
     gradient                   ...        0 min,  0.000 sec
 * total energy  :   -13.0676458 Eh     change       -0.1215602E-04 Eh
   gradient norm :     0.0008307 Eh/α   predicted    -0.1198294E-04 (  -1.42%)
   displ. norm   :     0.0031757 α      lambda       -0.2021946E-06
   maximum displ.:     0.0023043 α      in ANC's #2, #3, #1, ...

........................................................................
.............................. CYCLE   14 ..............................
........................................................................
   1    -13.1273394 -0.131273E+02  0.928E-03    0.13       0.0  T
   2    -13.1272946  0.448269E-04  0.891E-02    0.13       1.0  T
   3    -13.1273190 -0.243487E-04  0.562E-02    0.13       1.0  T
   4    -13.1273395 -0.205326E-04  0.865E-03    0.13       4.7  T
   5    -13.1273398 -0.295570E-06  0.364E-03    0.13      11.2  T
   6    -13.1273399 -0.679949E-07  0.160E-04    0.13     255.1  T
   7    -13.1273399 -0.858993E-10  0.760E-05    0.13     537.0  T
     SCC iter.                  ...        0 min,  0.000 sec
     gradient                   ...        0 min,  0.001 sec
 * total energy  :   -13.0676459 Eh     change       -0.8010235E-07 Eh
   gradient norm :     0.0005784 Eh/α   predicted    -0.9980392E-07 (  24.60%)
   displ. norm   :     0.0011286 α      lambda       -0.6602242E-07
   maximum displ.:     0.0007791 α      in ANC's #1, #3, #2, ...

   *** GEOMETRY OPTIMIZATION CONVERGED AFTER 14 ITERATIONS ***

------------------------------------------------------------------------
 total energy gain   :        -6.4312643 Eh    -4035.6793 kcal/mol
 total RMSD          :         0.2660976 a0        0.1408 Å
 total power (kW/mol):     -1206.0915867 (step)********** (real)
------------------------------------------------------------------------

 ANCopt (total)                0 d,  0 h,  0 min,  0.151 sec
 optimizer setup                ...        0 min,  0.000 sec (  0.034%)
 model hessian                  ...        0 min,  0.000 sec (  0.043%)
 ANC generation                 ...        0 min,  0.000 sec (  0.042%)
 coordinate transformation      ...        0 min,  0.000 sec (  0.041%)
 single point calculation       ...        0 min,  0.150 sec ( 99.116%)
 optimization log               ...        0 min,  0.000 sec (  0.207%)
 hessian update                 ...        0 min,  0.000 sec (  0.031%)
 rational function              ...        0 min,  0.000 sec (  0.239%)

================
 final structure:
================
6
 xtb: 6.2.3 (830e466)
F        -3.66722444117103   -0.22835316932573    0.08031421436486
Cl        3.00779575289608    0.15787349488024   -0.03732872829045
C        -0.86974371218377   -0.04226277044662    0.00867304054598
H        -0.85215317350542   -0.62499072046182   -0.88606167458361
H        -0.82987807313728   -0.52489395529143    0.96069572646645
H        -0.93172635290004    1.02253712064486   -0.04759257850369
 
 Bond Distances (Angstroems)
 ---------------------------
C3-H4=1.0679         C3-H5=1.0681         C3-H6=1.0681         H4-C3=1.0679         H5-C3=1.0681         H6-C3=1.0681         
 C  H  Rav=1.0680 sigma=0.0001  Rmin=1.0679  Rmax=1.0681     3
 
 selected bond angles (degree)
 --------------------
H5-C3-H4=119.97                H6-C3-H4=120.05                H6-C3-H5=119.97                
 
 selected dihedral angles (degree)
 ---------------------------------

 
 CMA Distance (Angstroems)
 ---------------------------
R(CMA):  5.5309
           -------------------------------------------------
          |                Final Singlepoint                |
           -------------------------------------------------

          ...................................................
          :                      SETUP                      :
          :.................................................:
          :  # basis functions                  21          :
          :  # atomic orbitals                  20          :
          :  # shells                           10          :
          :  # electrons                        22          :
          :  max. iterations                   250          :
          :  Hamiltonian                  GFN2-xTB          :
          :  restarted?                      false          :
          :  GBSA solvation                  false          :
          :  PC potential                    false          :
          :  electronic temp.          300.0000000     K    :
          :  accuracy                    1.0000000          :
          :  -> integral cutoff          0.2500000E+02      :
          :  -> integral neglect         0.1000000E-07      :
          :  -> SCF convergence          0.1000000E-05 Eh   :
          :  -> wf. convergence          0.1000000E-03 e    :
          :  Broyden damping             0.4000000          :
          ...................................................

 iter      E             dE          RMSdq      gap      omega  full diag
   1    -13.1273399 -0.131273E+02  0.409E-05    0.13       0.0  T
   2    -13.1273398  0.599435E-08  0.969E-04    0.13      42.1  T
   3    -13.1273399 -0.459727E-08  0.468E-04    0.13      87.2  T

   *** convergence criteria satisfied after 3 iterations ***

         #    Occupation            Energy/Eh            Energy/eV
      -------------------------------------------------------------
         1        2.0000           -0.8529400             -23.2097
       ...           ...                  ...                  ...
         5        2.0000           -0.3746129             -10.1937
         6        2.0000           -0.2499305              -6.8010
         7        2.0000           -0.2453030              -6.6750
         8        2.0000           -0.2453015              -6.6750
         9        1.9560           -0.2353304              -6.4037
        10        1.9046           -0.2345703              -6.3830
        11        1.9045           -0.2345701              -6.3830 (HOMO)
        12        0.2350           -0.2298107              -6.2535 (LUMO)
        13                          0.2312150               6.2917
        14                          0.2546608               6.9297
        15                          0.2547221               6.9313
        16                          0.2547223               6.9313
       ...                                ...                  ...
        20                          0.3994071              10.8684
      -------------------------------------------------------------
                  HL-Gap            0.0047594 Eh            0.1295 eV
             Fermi-level           -0.2317265 Eh           -6.3056 eV

 SCC (total)                   0 d,  0 h,  0 min,  0.001 sec
 SCC setup                      ...        0 min,  0.000 sec (  3.214%)
 Dispersion                     ...        0 min,  0.000 sec (  0.464%)
 integral evaluation            ...        0 min,  0.001 sec ( 41.302%)
 zeroth order Hamiltonian       ...        0 min,  0.000 sec (  0.736%)
 iterations                     ...        0 min,  0.000 sec ( 15.558%)
 molecular gradient             ...        0 min,  0.001 sec ( 34.250%)
 printout                       ...        0 min,  0.000 sec (  3.022%)

         :::::::::::::::::::::::::::::::::::::::::::::::::::::
         ::                     SUMMARY                     ::
         :::::::::::::::::::::::::::::::::::::::::::::::::::::
         :: total energy             -13.067645925224 Eh    ::
         :: gradient norm              0.000578228377 Eh/a0 ::
         :: HOMO-LUMO gap              0.129508569413 eV    ::
         ::.................................................::
         :: SCC energy               -13.127339852873 Eh    ::
         :: -> isotropic ES            0.159790451230 Eh    ::
         :: -> anisotropic ES         -0.000850376239 Eh    ::
         :: -> anisotropic XC          0.006206687339 Eh    ::
         :: -> dispersion             -0.001435242360 Eh    ::
         :: repulsion energy           0.059691996663 Eh    ::
         :: add. restraining           0.000006369773 Eh    ::
         :::::::::::::::::::::::::::::::::::::::::::::::::::::

           -------------------------------------------------
          |                Property Printout                |
           -------------------------------------------------

    * Orbital Energies and Occupations

         #    Occupation            Energy/Eh            Energy/eV
      -------------------------------------------------------------
         1        2.0000           -0.8529400             -23.2097
         2        2.0000           -0.5316663             -14.4674
         3        2.0000           -0.4722724             -12.8512
         4        2.0000           -0.3748530             -10.2003
         5        2.0000           -0.3746129             -10.1937
         6        2.0000           -0.2499305              -6.8010
         7        2.0000           -0.2453030              -6.6750
         8        2.0000           -0.2453015              -6.6750
         9        1.9560           -0.2353304              -6.4037
        10        1.9046           -0.2345703              -6.3830
        11        1.9045           -0.2345701              -6.3830 (HOMO)
        12        0.2350           -0.2298107              -6.2535 (LUMO)
        13                          0.2312150               6.2917
        14                          0.2546608               6.9297
        15                          0.2547221               6.9313
        16                          0.2547223               6.9313
        17                          0.2549881               6.9386
        18                          0.2549881               6.9386
        19                          0.3988791              10.8541
        20                          0.3994071              10.8684
      -------------------------------------------------------------
                  HL-Gap            0.0047594 Eh            0.1295 eV
             Fermi-level           -0.2317265 Eh           -6.3056 eV

     #   Z        covCN         q      C6AA      α(0)
     1   9 F      0.000    -0.538    15.881     4.642
     2  17 Cl     0.000    -0.660   113.836    16.238
     3   6 C      2.780    -0.067    29.656     8.920
     4   1 H      0.927     0.088     1.896     2.153
     5   1 H      0.927     0.089     1.889     2.149
     6   1 H      0.927     0.088     1.900     2.155

 Mol. C6AA /au·bohr⁶  :        580.407822
 Mol. C8AA /au·bohr⁸  :      16501.668916
 Mol. α(0) /au        :         36.256789


Wiberg/Mayer (AO) data.
largest (>0.10) Wiberg bond orders for each atom
          total WBO             WBO to atom ...
     1  F   0.553        C    3 0.553
     2  Cl  0.124        C    3 0.124
     3  C   3.649        H    6 0.991    H    4 0.991    H    5 0.991    F    1 0.553    Cl   2 0.124
     4  H   0.992        C    3 0.991
     5  H   0.992        C    3 0.991
     6  H   0.992        C    3 0.991

molecular dipole:
                 x           y           z       tot (Debye)
 q only:       -0.347       0.018      -0.031
   full:       -0.350       0.018      -0.031       0.894
molecular quadrupole (traceless):
                xx          xy          yy          xz          yz          zz
 q only:      -47.067      -4.094      23.424       1.246       0.073      23.643
  q+dip:      -48.160      -4.187      23.969       1.273       0.075      24.191
   full:      -47.261      -4.110      23.521       1.251       0.074      23.740

           -------------------------------------------------
          |                Geometry Summary                 |
           -------------------------------------------------

      molecular mass/u    :       69.4858989
   center of mass at/Å    :        0.3437102       0.0089625       0.0048046
  moments of inertia/u·Å² :        0.3461357E+01   0.5831898E+03   0.5832009E+03
rotational constants/cm⁻¹ :        0.4870237E+01   0.2890591E-01   0.2890536E-01

 * 3 selected distances

     #   Z        #   Z                                     value/Å
     3   6 C      4   1 H                                 1.0679099 (min)
     3   6 C      5   1 H                                 1.0681148 (max)
     3   6 C      6   1 H                                 1.0680854

 * 1 distinct bonds (by element types)

   Z      Z             #   av. dist./Å        max./Å        min./Å
   1 H    6 C           3     1.0680367     1.0681148     1.0679099


optimized geometry written to: xtbopt.xyz


           -------------------------------------------------
          | TOTAL ENERGY              -13.067645925224 Eh   |
          | GRADIENT NORM               0.000578228377 Eh/α |
          | HOMO-LUMO GAP               0.129508569413 eV   |
           -------------------------------------------------
########################################################################
[WARNING] Runtime exception occurred
-1- scf: Self consistent charge iterator did not converge
########################################################################

------------------------------------------------------------------------
 * finished run on 2020/04/08 at 23:04:52.548     
------------------------------------------------------------------------
 total:
 * wall-time:     0 d,  0 h,  0 min,  0.169 sec
 *  cpu-time:     0 d,  0 h,  0 min,  0.169 sec
 * ratio c/w:     0.998 speedup
 SCF:
 * wall-time:     0 d,  0 h,  0 min,  0.009 sec
 *  cpu-time:     0 d,  0 h,  0 min,  0.009 sec
 * ratio c/w:     1.000 speedup
 ANC optimizer:
 * wall-time:     0 d,  0 h,  0 min,  0.153 sec
 *  cpu-time:     0 d,  0 h,  0 min,  0.153 sec
 * ratio c/w:     0.999 speedup

