      -----------------------------------------------------------      
     |                   =====================                   |     
     |                           x T B                           |     
     |                   =====================                   |     
     |                         S. Grimme                         |     
     |          Mulliken Center for Theoretical Chemistry        |     
     |                    University of Bonn                     |     
      -----------------------------------------------------------      

   * xtb version 6.2.3 (830e466) compiled by 'ehlert@majestix' on 2020-03-16

   xtb is free software: you can redistribute it and/or modify it under
   the terms of the GNU Lesser General Public License as published by
   the Free Software Foundation, either version 3 of the License, or
   (at your option) any later version.
   
   xtb is distributed in the hope that it will be useful,
   but WITHOUT ANY WARRANTY; without even the implied warranty of
   MERCHANTABILITY or FITNESS FOR A PARTICULAR PURPOSE.  See the
   GNU Lesser General Public License for more details.
   
   Cite this work as:
   * S. Grimme, C. Bannwarth, P. Shushkov, J. Chem. Theory Comput., 2017,
     13, 1989-2009. DOI: 10.1021/acs.jctc.7b00118
   * C. Bannwarth, S. Ehlert and S. Grimme., J. Chem. Theory Comput., 2019,
     15, 1652-1671. DOI: 10.1021/acs.jctc.8b01176
   * P. Pracht, E. Caldeweyher, S. Ehlert, S. Grimme, ChemRxiv, 2019, preprint.
     DOI: 10.26434/chemrxiv.8326202.v1
   
   for DFT-D4:
   * E. Caldeweyher, C. Bannwarth and S. Grimme, J. Chem. Phys., 2017,
     147, 034112. DOI: 10.1063/1.4993215
   * E. Caldeweyher, S. Ehlert, A. Hansen, H. Neugebauer, S. Spicher,
     C. Bannwarth and S. Grimme, J. Chem. Phys., 2019, 150, 154122.
     DOI: 10.1063/1.5090222
   
   for sTDA-xTB:
   * S. Grimme and C. Bannwarth, J. Chem. Phys., 2016, 145, 054103.
     DOI: 10.1063/1.4959605
   
   in the mass-spec context:
   * V. Asgeirsson, C. Bauer and S. Grimme, Chem. Sci., 2017, 8, 4879.
     DOI: 10.1039/c7sc00601b
   
   for metadynamics refer to:
   * S. Grimme, J. Chem. Theory Comput., 2019, 155, 2847-2862
     DOI: 10.1021/acs.jctc.9b00143
   
   with help from (in alphabetical order)
   C. Bannwarth, F. Bohle, G. Brandenburg, E. Caldeweyher, M. Checinski,
   S. Dohm, S. Ehlert, S. Ehrlich, F. März, H. Neugebauer, J. Pisarek,
   P. Pracht, P. Shushkov, and S. Spicher.
   
 * started run on 2020/04/08 at 13:05:41.834     

           -------------------------------------------------
          |                Calculation Setup                |
           -------------------------------------------------

          program call               : /home/tom/.local/bin/xtb SN2_PES_scan_5-5_xtb.xyz --chrg -1 --opt --input xcontrol_SN2_PES_scan_5-5
          coordinate file            : SN2_PES_scan_5-5_xtb.xyz
          omp threads                :                     8
          number of atoms            :                     6
          number of electrons        :                    22
          charge                     :                    -1
          spin                       :                   0.0
          first test random number   :      0.11574938839241

constraining bond 1 3 to    1.5000000 Å, actual value:    1.9984829 Å
constraining bond 2 3 to    4.0000000 Å, actual value:    3.5558366 Å

molecular fragmentation (1/2 indicates fragments):
122222
# atoms in fragment 1/2:     1     5
 fragment masses (1/2) :       19.00       50.49
CMA distance (Bohr)    :   8.511
constraining FC (au)   : 10.0000
########################################################################
[WARNING] Please study the warnings concerning your input carefully
-2- prog_main: XTBPATH is not set, using XTBHOME instead
-1- prog_main: XTBHOME is not set, using HOME instead
########################################################################
           ------------------------------------------------- 
          |                 G F N 2 - x T B                 |
          | Geometry, Frequencies, Noncovalent interactions |
          |            JCTC 2019 parametrisation            |
           ------------------------------------------------- 
             k(s)              :                1.8500
             k(p)              :                2.2300
             k(d)              :                2.2300
             k(f)              :                2.0000
             kEN (H0ij)        :               -2.0000
             D4 a1             :                0.5200
             D4 a2             :                5.0000
             D4 s6             :                1.0000
             D4 s8             :                2.7000
             D4 s9             :                5.0000
             alphaj            :                2.0000

  Z AO/shell   Hii/eV     exponent
  1     Wed Apr 25 08:07:45 CEST 2018   EN: 2.200 GM2: 0.406  GM3: 0.0800  RAES: 1.40
     1s    -10.707211    1.230000
  6     Wed Apr 25 08:07:45 CEST 2018   EN: 2.550 GM2: 0.538  GM3: 0.1500  RAES: 3.00
     2s    -13.970922    2.096432
     2p    -10.063292    1.800000
  9     Mon Apr 23 13:58:50 CEST 2018   EN: 3.980 GM2: 0.532  GM3: 0.1426  RAES: 2.40
     2s    -23.458179    2.416361
     2p    -15.746583    2.308399
 17     Mon Apr 23 14:09:22 CEST 2018   EN: 3.160 GM2: 0.249  GM3: 0.1495  RAES: 2.50
     3s    -29.278781    2.485265
     3p    -12.673758    2.199650
     3d     -0.240338    2.476089

           ------------------------------------------------- 
          |        Self-Consistent Charge Iterations        |
           ------------------------------------------------- 

          ...................................................
          :                      SETUP                      :
          :.................................................:
          :  # basis functions                  21          :
          :  # atomic orbitals                  20          :
          :  # shells                           10          :
          :  # electrons                        22          :
          :  max. iterations                   250          :
          :  Hamiltonian                  GFN2-xTB          :
          :  restarted?                      false          :
          :  GBSA solvation                  false          :
          :  PC potential                    false          :
          :  electronic temp.          300.0000000     K    :
          :  accuracy                    1.0000000          :
          :  -> integral cutoff          0.2500000E+02      :
          :  -> integral neglect         0.1000000E-07      :
          :  -> SCF convergence          0.1000000E-05 Eh   :
          :  -> wf. convergence          0.1000000E-03 e    :
          :  Broyden damping             0.4000000          :
          ...................................................

 iter      E             dE          RMSdq      gap      omega  full diag
   1    -13.0767811 -0.130768E+02  0.695E+00    3.80       0.0  T
   2    -13.0523687  0.244124E-01  0.442E+00    1.23       1.0  T
   3    -13.1424866 -0.901179E-01  0.420E+00    1.02       1.0  T
   4    -12.2793120  0.863175E+00  0.102E+01    0.00       1.0  T
   5    -13.1649332 -0.885621E+00  0.233E+00    0.68       1.0  T
   6    -13.1757142 -0.107810E-01  0.107E+00    0.86       1.0  T
   7    -13.1765832 -0.868943E-03  0.931E-01    0.81       1.0  T
   8    -13.1774043 -0.821106E-03  0.799E-01    0.73       1.0  T
   9    -13.1783376 -0.933302E-03  0.659E-01    0.61       1.0  T
  10    -13.1792289 -0.891316E-03  0.519E-01    0.51       1.0  T
  11    -13.1792246  0.429470E-05  0.520E-01    0.51       1.0  T
  12    -13.1807546 -0.153000E-02  0.182E-01    0.33       1.0  T
  13    -13.1806622  0.923620E-04  0.132E-01    0.35       1.0  T
  14    -13.1807354 -0.731702E-04  0.888E-02    0.34       1.0  T
  15    -13.1807267  0.867953E-05  0.786E-02    0.34       1.0  T
  16    -13.1807461 -0.194041E-04  0.555E-02    0.33       1.0  T
  17    -13.1807563 -0.101906E-04  0.370E-02    0.33       1.1  T
  18    -13.1807615 -0.523757E-05  0.168E-02    0.32       2.4  T
  19    -13.1807619 -0.367549E-06  0.418E-03    0.32       9.8  T
  20    -13.1807620 -0.459873E-07  0.698E-04    0.32      58.4  T
  21    -13.1807620 -0.321757E-08  0.340E-05    0.32    1199.3  T

   *** convergence criteria satisfied after 21 iterations ***

         #    Occupation            Energy/Eh            Energy/eV
      -------------------------------------------------------------
         1        2.0000           -0.8073562             -21.9693
       ...           ...                  ...                  ...
         5        2.0000           -0.3813932             -10.3782
         6        2.0000           -0.3244785              -8.8295
         7        2.0000           -0.2944944              -8.0136
         8        2.0000           -0.2944881              -8.0134
         9        1.9997           -0.2025617              -5.5120
        10        1.9971           -0.2003481              -5.4518
        11        1.9971           -0.2003469              -5.4517 (HOMO)
        12        0.0060           -0.1886236              -5.1327 (LUMO)
        13                          0.2366269               6.4389
        14                          0.3127714               8.5109
        15                          0.3129510               8.5158
        16                          0.3129533               8.5159
       ...                                ...                  ...
        20                          0.3807669              10.3612
      -------------------------------------------------------------
                  HL-Gap            0.0117233 Eh            0.3190 eV
             Fermi-level           -0.1941330 Eh           -5.2826 eV

 SCC (total)                   0 d,  0 h,  0 min,  0.006 sec
 SCC setup                      ...        0 min,  0.000 sec (  1.162%)
 Dispersion                     ...        0 min,  0.000 sec (  0.284%)
 integral evaluation            ...        0 min,  0.001 sec (  9.962%)
 zeroth order Hamiltonian       ...        0 min,  0.000 sec (  0.235%)
 iterations                     ...        0 min,  0.005 sec ( 72.804%)
 molecular gradient             ...        0 min,  0.001 sec ( 14.224%)
 printout                       ...        0 min,  0.000 sec (  0.938%)

         :::::::::::::::::::::::::::::::::::::::::::::::::::::
         ::                     SUMMARY                     ::
         :::::::::::::::::::::::::::::::::::::::::::::::::::::
         :: total energy               2.796134511697 Eh    ::
         :: gradient norm             43.721910713438 Eh/a0 ::
         :: HOMO-LUMO gap              0.319006178956 eV    ::
         ::.................................................::
         :: SCC energy               -13.180761959540 Eh    ::
         :: -> isotropic ES            0.169106681526 Eh    ::
         :: -> anisotropic ES         -0.001847128896 Eh    ::
         :: -> anisotropic XC          0.005487937123 Eh    ::
         :: -> dispersion             -0.001620408229 Eh    ::
         :: repulsion energy           0.058296174109 Eh    ::
         :: add. restraining          15.918601647330 Eh    ::
         :::::::::::::::::::::::::::::::::::::::::::::::::::::

      ----------------------------------------------------------- 
     |                   =====================                   |
     |                        A N C O P T                        |
     |                   =====================                   |
     |               Approximate Normal Coordinate               |
     |                Rational Function Optimizer                |
      ----------------------------------------------------------- 

          ...................................................
          :                      SETUP                      :
          :.................................................:
          :   optimization level            normal          :
          :   max. optcycles                   200          :
          :   ANC micro-cycles                  20          :
          :   degrees of freedom                12          :
          :.................................................:
          :   RF solver                   davidson          :
          :   write xtbopt.log                true          :
          :   linear?                        false          :
          :   energy convergence         0.5000000E-05 Eh   :
          :   grad. convergence          0.1000000E-02 Eh/α :
          :   maximium RF displ.         1.0000000          :
          :   Hlow (freq-cutoff)         0.1000000E-01      :
          :   Hmax (freq-cutoff)         5.0000000          :
          :   S6 in model hess.         20.0000000          :
          ...................................................

generating ANC from model Hessian ...
Using Lindh-Hessian (1995)
 Shifting diagonal of input Hessian by   0.496757597544596     
 Lowest  eigenvalues of input Hessian
    0.010000    0.010582   -0.000000   -0.000000    0.000000    0.000000
    0.000000    0.000000    0.526737    0.634604    0.634917    0.939797
    1.191675    1.192490    7.198454    7.198635   20.536519   60.655738
 Highest eigenvalues
    1.191675    1.192490    7.198454    7.198635   20.536519   60.655738
 

........................................................................
.............................. CYCLE    1 ..............................
........................................................................
   1    -13.1807620 -0.131808E+02  0.209E-05    0.32       0.0  T
   2    -13.1807620  0.942713E-11  0.577E-05    0.32     707.9  T
   3    -13.1807620 -0.653344E-11  0.398E-05    0.32    1026.1  T
     SCC iter.                  ...        0 min,  0.001 sec
     gradient                   ...        0 min,  0.000 sec
 * total energy  :     2.7961345 Eh     change        0.1603659E-08 Eh
   gradient norm :    43.7219095 Eh/α   predicted     0.0000000E+00 (-100.00%)
   displ. norm   :     0.9444540 α      lambda       -0.4129332E+02
   maximum displ.:     0.9439505 α      in ANC's #9, #12, #6, ...

........................................................................
.............................. CYCLE    2 ..............................
........................................................................
   1    -13.1779482 -0.131779E+02  0.251E+00    9.07       0.0  T
   2    -13.1913203 -0.133721E-01  0.135E+00    8.05       1.0  T
   3    -13.1926030 -0.128273E-02  0.734E-01    7.77       1.0  T
   4    -13.1927348 -0.131802E-03  0.281E-01    7.43       1.0  T
   5    -13.1927691 -0.343329E-04  0.282E-02    7.39       1.4  T
   6    -13.1927695 -0.350310E-06  0.130E-02    7.39       3.1  T
   7    -13.1927695 -0.528140E-07  0.123E-03    7.39      33.3  T
   8    -13.1927695 -0.137372E-08  0.663E-04    7.39      61.6  T
     SCC iter.                  ...        0 min,  0.002 sec
     gradient                   ...        0 min,  0.001 sec
 * total energy  :   -11.7379296 Eh     change       -0.1453406E+02 Eh
   gradient norm :    13.0883840 Eh/α   predicted    -0.3906336E+02 ( 168.77%)
   displ. norm   :     0.2416662 α      lambda       -0.2825096E+01
   maximum displ.:     0.2083549 α      in ANC's #9, #12, #3, ...

........................................................................
.............................. CYCLE    3 ..............................
........................................................................
   1    -13.2089476 -0.132089E+02  0.424E-01    5.69       0.0  T
   2    -13.2092290 -0.281497E-03  0.231E-01    5.86       1.0  T
   3    -13.2092772 -0.481792E-04  0.121E-01    5.95       1.0  T
   4    -13.2092783 -0.110054E-05  0.123E-02    5.97       3.3  T
   5    -13.2092785 -0.206247E-06  0.878E-03    5.97       4.7  T
   6    -13.2092786 -0.896669E-07  0.323E-03    5.97      12.6  T
   7    -13.2092786 -0.152205E-07  0.150E-03    5.97      27.1  T
     SCC iter.                  ...        0 min,  0.002 sec
     gradient                   ...        0 min,  0.001 sec
 * total energy  :   -13.1085998 Eh     change       -0.1370670E+01 Eh
   gradient norm :     1.6249623 Eh/α   predicted    -0.1495044E+01 (   9.07%)
   displ. norm   :     0.2685728 α      lambda       -0.4229082E+00
   maximum displ.:     0.2564375 α      in ANC's #12, #3, #6, ...

........................................................................
.............................. CYCLE    4 ..............................
........................................................................
   1    -13.2039347 -0.132039E+02  0.518E-01    2.83       0.0  T
   2    -13.2041325 -0.197786E-03  0.300E-01    2.97       1.0  T
   3    -13.2041713 -0.387553E-04  0.105E-01    3.09       1.0  T
   4    -13.2041743 -0.303174E-05  0.209E-02    3.09       2.0  T
   5    -13.2041748 -0.499171E-06  0.142E-02    3.09       2.9  T
   6    -13.2041749 -0.144177E-06  0.425E-03    3.09       9.6  T
   7    -13.2041750 -0.249221E-07  0.238E-03    3.09      17.1  T
     SCC iter.                  ...        0 min,  0.002 sec
     gradient                   ...        0 min,  0.000 sec
 * total energy  :   -12.8159220 Eh     change        0.2926778E+00 Eh
   gradient norm :     4.1625409 Eh/α   predicted    -0.2267065E+00 (-177.46%)
   displ. norm   :     0.1782632 α      lambda       -0.6945844E+00
   maximum displ.:     0.1727442 α      in ANC's #12, #9, #3, ...

........................................................................
.............................. CYCLE    5 ..............................
........................................................................
   1    -13.2177731 -0.132178E+02  0.367E-01    5.23       0.0  T
   2    -13.2178230 -0.498577E-04  0.216E-01    5.15       1.0  T
   3    -13.2178362 -0.132728E-04  0.455E-02    5.07       1.0  T
   4    -13.2178375 -0.127566E-05  0.117E-02    5.08       3.5  T
   5    -13.2178376 -0.546233E-07  0.680E-03    5.08       6.0  T
   6    -13.2178376 -0.358701E-07  0.240E-03    5.08      17.0  T
   7    -13.2178376 -0.803635E-08  0.117E-03    5.08      34.9  T
     SCC iter.                  ...        0 min,  0.002 sec
     gradient                   ...        0 min,  0.000 sec
 * total energy  :   -13.1757984 Eh     change       -0.3598764E+00 Eh
   gradient norm :     0.1432086 Eh/α   predicted    -0.3583284E+00 (  -0.43%)
   displ. norm   :     0.0806831 α      lambda       -0.4892007E-02
   maximum displ.:     0.0687431 α      in ANC's #3, #6, #12, ...

........................................................................
.............................. CYCLE    6 ..............................
........................................................................
   1    -13.2276161 -0.132276E+02  0.676E-02    5.19       0.0  T
   2    -13.2276196 -0.350690E-05  0.437E-02    5.20       1.0  T
   3    -13.2276202 -0.647331E-06  0.183E-02    5.21       2.2  T
   4    -13.2276203 -0.258457E-07  0.240E-03    5.21      17.0  T
   5    -13.2276203 -0.860674E-08  0.823E-04    5.21      49.6  T
     SCC iter.                  ...        0 min,  0.001 sec
     gradient                   ...        0 min,  0.001 sec
 * total energy  :   -13.1794925 Eh     change       -0.3694149E-02 Eh
   gradient norm :     0.0326954 Eh/α   predicted    -0.2461934E-02 ( -33.36%)
   displ. norm   :     0.1572601 α      lambda       -0.4010632E-02
   maximum displ.:     0.1127425 α      in ANC's #3, #1, #2, ...

........................................................................
.............................. CYCLE    7 ..............................
........................................................................
   1    -13.2399206 -0.132399E+02  0.131E-01    5.22       0.0  T
   2    -13.2399306 -0.992323E-05  0.838E-02    5.24       1.0  T
   3    -13.2399325 -0.195132E-05  0.279E-02    5.27       1.5  T
   4    -13.2399326 -0.110209E-06  0.448E-03    5.26       9.1  T
   5    -13.2399326 -0.124348E-07  0.120E-03    5.26      34.1  T
     SCC iter.                  ...        0 min,  0.001 sec
     gradient                   ...        0 min,  0.001 sec
 * total energy  :   -13.1812233 Eh     change       -0.1730729E-02 Eh
   gradient norm :     0.0478101 Eh/α   predicted    -0.2054895E-02 (  18.73%)
   displ. norm   :     0.4612943 α      lambda       -0.4303242E-02
   maximum displ.:     0.3229698 α      in ANC's #1, #2, #3, ...

........................................................................
.............................. CYCLE    8 ..............................
........................................................................
   1    -13.2447409 -0.132447E+02  0.394E-01    5.11       0.0  T
   2    -13.2447648 -0.238661E-04  0.240E-01    5.13       1.0  T
   3    -13.2447708 -0.597332E-05  0.376E-02    5.16       1.1  T
   4    -13.2447713 -0.504011E-06  0.138E-02    5.15       3.0  T
   5    -13.2447714 -0.102393E-06  0.307E-03    5.15      13.3  T
   6    -13.2447714 -0.908422E-08  0.155E-03    5.15      26.4  T
     SCC iter.                  ...        0 min,  0.002 sec
     gradient                   ...        0 min,  0.001 sec
 * total energy  :   -13.1740297 Eh     change        0.7193578E-02 Eh
   gradient norm :     0.1188732 Eh/α   predicted    -0.2609373E-02 (-136.27%)
   displ. norm   :     0.3050112 α      lambda       -0.1345147E-01
   maximum displ.:     0.2161589 α      in ANC's #1, #2, #3, ...

........................................................................
.............................. CYCLE    9 ..............................
........................................................................
   1    -13.2408575 -0.132409E+02  0.270E-01    5.29       0.0  T
   2    -13.2408725 -0.149410E-04  0.161E-01    5.26       1.0  T
   3    -13.2408760 -0.357404E-05  0.315E-02    5.23       1.3  T
   4    -13.2408763 -0.284702E-06  0.317E-03    5.24      12.9  T
   5    -13.2408763 -0.629304E-08  0.183E-03    5.24      22.3  T
     SCC iter.                  ...        0 min,  0.001 sec
     gradient                   ...        0 min,  0.001 sec
 * total energy  :   -13.1816894 Eh     change       -0.7659755E-02 Eh
   gradient norm :     0.0242481 Eh/α   predicted    -0.7351440E-02 (  -4.03%)
   displ. norm   :     0.0665222 α      lambda       -0.3469465E-03
   maximum displ.:     0.0648086 α      in ANC's #2, #1, #6, ...

........................................................................
.............................. CYCLE   10 ..............................
........................................................................
   1    -13.2395643 -0.132396E+02  0.706E-02    5.25       0.0  T
   2    -13.2395647 -0.419783E-06  0.432E-02    5.24       1.0  T
   3    -13.2395648 -0.863490E-07  0.484E-03    5.24       8.4  T
   4    -13.2395648 -0.147000E-07  0.208E-03    5.24      19.6  T
     SCC iter.                  ...        0 min,  0.001 sec
     gradient                   ...        0 min,  0.001 sec
 * total energy  :   -13.1818086 Eh     change       -0.1191382E-03 Eh
   gradient norm :     0.0119492 Eh/α   predicted    -0.1742433E-03 (  46.25%)
   displ. norm   :     0.1904305 α      lambda       -0.6649910E-03
   maximum displ.:     0.1804927 α      in ANC's #1, #2, #6, ...

........................................................................
.............................. CYCLE   11 ..............................
........................................................................
   1    -13.2363952 -0.132364E+02  0.184E-01    5.23       0.0  T
   2    -13.2363987 -0.353585E-05  0.113E-01    5.22       1.0  T
   3    -13.2363995 -0.732410E-06  0.137E-02    5.22       3.0  T
   4    -13.2363996 -0.125157E-06  0.597E-03    5.22       6.8  T
   5    -13.2363996 -0.239744E-07  0.140E-03    5.22      29.1  T
   6    -13.2363996 -0.238107E-08  0.648E-04    5.22      63.0  T
     SCC iter.                  ...        0 min,  0.002 sec
     gradient                   ...        0 min,  0.000 sec
 * total energy  :   -13.1806122 Eh     change        0.1196415E-02 Eh
   gradient norm :     0.0729521 Eh/α   predicted    -0.3445768E-03 (-128.80%)
   displ. norm   :     0.1503244 α      lambda       -0.2521015E-02
   maximum displ.:     0.1458109 α      in ANC's #1, #2, #6, ...

........................................................................
.............................. CYCLE   12 ..............................
........................................................................
   1    -13.2392298 -0.132392E+02  0.143E-01    5.24       0.0  T
   2    -13.2392316 -0.179932E-05  0.881E-02    5.24       1.0  T
   3    -13.2392321 -0.491562E-06  0.995E-03    5.24       4.1  T
   4    -13.2392322 -0.523812E-07  0.304E-03    5.24      13.4  T
   5    -13.2392322 -0.788447E-08  0.952E-04    5.24      42.9  T
     SCC iter.                  ...        0 min,  0.001 sec
     gradient                   ...        0 min,  0.000 sec
 * total energy  :   -13.1819129 Eh     change       -0.1300745E-02 Eh
   gradient norm :     0.0042437 Eh/α   predicted    -0.1288995E-02 (  -0.90%)
   displ. norm   :     0.0086931 α      lambda       -0.2208307E-04
   maximum displ.:     0.0055983 α      in ANC's #3, #1, #6, ...

........................................................................
.............................. CYCLE   13 ..............................
........................................................................
   1    -13.2390214 -0.132390E+02  0.996E-03    5.24       0.0  T
   2    -13.2390214 -0.649160E-07  0.567E-03    5.24       7.2  T
   3    -13.2390214 -0.264983E-08  0.231E-03    5.24      17.7  T
   4    -13.2390214 -0.119081E-08  0.440E-04    5.24      92.7  T
     SCC iter.                  ...        0 min,  0.001 sec
     gradient                   ...        0 min,  0.001 sec
 * total energy  :   -13.1819304 Eh     change       -0.1749366E-04 Eh
   gradient norm :     0.0027216 Eh/α   predicted    -0.1104312E-04 ( -36.87%)
   displ. norm   :     0.0137288 α      lambda       -0.2688756E-04
   maximum displ.:     0.0118615 α      in ANC's #3, #6, #1, ...

........................................................................
.............................. CYCLE   14 ..............................
........................................................................
   1    -13.2385226 -0.132385E+02  0.171E-02    5.24       0.0  T
   2    -13.2385229 -0.291130E-06  0.909E-03    5.24       4.5  T
   3    -13.2385229 -0.929008E-08  0.437E-03    5.24       9.3  T
   4    -13.2385229 -0.315227E-08  0.732E-04    5.24      55.8  T
   5    -13.2385229 -0.419265E-09  0.337E-04    5.24     121.1  T
     SCC iter.                  ...        0 min,  0.001 sec
     gradient                   ...        0 min,  0.001 sec
 * total energy  :   -13.1819451 Eh     change       -0.1466978E-04 Eh
   gradient norm :     0.0010381 Eh/α   predicted    -0.1344556E-04 (  -8.35%)
   displ. norm   :     0.0036585 α      lambda       -0.7909778E-06
   maximum displ.:     0.0027192 α      in ANC's #1, #3, #6, ...

........................................................................
.............................. CYCLE   15 ..............................
........................................................................
   1    -13.2384095 -0.132384E+02  0.388E-03    5.24       0.0  T
   2    -13.2384095 -0.104173E-07  0.217E-03    5.24      18.8  T
   3    -13.2384095 -0.416746E-09  0.924E-04    5.24      44.2  T
   4    -13.2384095 -0.216929E-09  0.195E-04    5.24     209.5  T
     SCC iter.                  ...        0 min,  0.001 sec
     gradient                   ...        0 min,  0.001 sec
 * total energy  :   -13.1819455 Eh     change       -0.4707852E-06 Eh
   gradient norm :     0.0003622 Eh/α   predicted    -0.3933025E-06 ( -16.46%)
   displ. norm   :     0.0008547 α      lambda       -0.8614075E-07
   maximum displ.:     0.0006679 α      in ANC's #3, #6, #2, ...

   *** GEOMETRY OPTIMIZATION CONVERGED AFTER 15 ITERATIONS ***

------------------------------------------------------------------------
 total energy gain   :       -15.9780800 Eh   -10026.3966 kcal/mol
 total RMSD          :         0.3350520 a0        0.1773 Å
 total power (kW/mol):     -2796.6962279 (step)********** (real)
------------------------------------------------------------------------

 ANCopt (total)                0 d,  0 h,  0 min,  0.045 sec
 optimizer setup                ...        0 min,  0.000 sec (  0.133%)
 model hessian                  ...        0 min,  0.000 sec (  0.884%)
 ANC generation                 ...        0 min,  0.000 sec (  0.464%)
 coordinate transformation      ...        0 min,  0.000 sec (  0.166%)
 single point calculation       ...        0 min,  0.042 sec ( 93.627%)
 optimization log               ...        0 min,  0.000 sec (  0.801%)
 hessian update                 ...        0 min,  0.001 sec (  1.670%)
 rational function              ...        0 min,  0.001 sec (  1.223%)

================
 final structure:
================
6
 xtb: 6.2.3 (830e466)
F        -2.75265715049251   -0.15586559901306    0.04333781124299
Cl        2.73576196788838    0.17026669236726   -0.03140045749897
C        -1.25628685654471   -0.07550719008213    0.01980387530439
H        -0.93959265275243   -0.62650666623173   -0.85594607094550
H        -0.91789953068407   -0.52953375995057    0.94210384134309
H        -1.01224577741462    0.97707652291021   -0.03917899944601
 
 Bond Distances (Angstroems)
 ---------------------------
F1-C3=1.4987         C3-F1=1.4987         C3-H4=1.0821         C3-H5=1.0823         C3-H6=1.0821         H4-C3=1.0821         
H5-C3=1.0823         H6-C3=1.0821         
 C  H  Rav=1.0821 sigma=0.0001  Rmin=1.0821  Rmax=1.0823     3
 F  C  Rav=1.4987 sigma=0.0000  Rmin=1.4987  Rmax=1.4987     1
 
 selected bond angles (degree)
 --------------------
H4-C3-F1=106.12                H5-C3-F1=106.04                H5-C3-H4=112.62                H6-C3-F1=106.15                
H6-C3-H4=112.66                H6-C3-H5=112.58                
 
 selected dihedral angles (degree)
 ---------------------------------

 
 CMA Distance (Angstroems)
 ---------------------------
R(CMA):  4.3255
           -------------------------------------------------
          |                Final Singlepoint                |
           -------------------------------------------------

          ...................................................
          :                      SETUP                      :
          :.................................................:
          :  # basis functions                  21          :
          :  # atomic orbitals                  20          :
          :  # shells                           10          :
          :  # electrons                        22          :
          :  max. iterations                   250          :
          :  Hamiltonian                  GFN2-xTB          :
          :  restarted?                      false          :
          :  GBSA solvation                  false          :
          :  PC potential                    false          :
          :  electronic temp.          300.0000000     K    :
          :  accuracy                    1.0000000          :
          :  -> integral cutoff          0.2500000E+02      :
          :  -> integral neglect         0.1000000E-07      :
          :  -> SCF convergence          0.1000000E-05 Eh   :
          :  -> wf. convergence          0.1000000E-03 e    :
          :  Broyden damping             0.4000000          :
          ...................................................

 iter      E             dE          RMSdq      gap      omega  full diag
   1    -13.2384095 -0.132384E+02  0.902E-05    5.24       0.0  T
   2    -13.2384095 -0.468781E-11  0.724E-05    5.24     564.0  T
   3    -13.2384095 -0.912870E-11  0.215E-05    5.24    1902.3  T

   *** convergence criteria satisfied after 3 iterations ***

         #    Occupation            Energy/Eh            Energy/eV
      -------------------------------------------------------------
         1        2.0000           -0.7764620             -21.1286
       ...           ...                  ...                  ...
         5        2.0000           -0.4128416             -11.2340
         6        2.0000           -0.4127597             -11.2318
         7        2.0000           -0.3481748              -9.4743
         8        2.0000           -0.3481197              -9.4728
         9        2.0000           -0.1801046              -4.9009
        10        2.0000           -0.1794070              -4.8819
        11        2.0000           -0.1794063              -4.8819 (HOMO)
        12                          0.0130854               0.3561 (LUMO)
        13                          0.2451339               6.6704
        14                          0.3270909               8.9006
        15                          0.3276452               8.9157
        16                          0.3519168               9.5761
       ...                                ...                  ...
        20                          0.3524161               9.5897
      -------------------------------------------------------------
                  HL-Gap            0.1924917 Eh            5.2380 eV
             Fermi-level           -0.0831604 Eh           -2.2629 eV

 SCC (total)                   0 d,  0 h,  0 min,  0.002 sec
 SCC setup                      ...        0 min,  0.000 sec (  2.236%)
 Dispersion                     ...        0 min,  0.000 sec (  0.351%)
 integral evaluation            ...        0 min,  0.001 sec ( 37.334%)
 zeroth order Hamiltonian       ...        0 min,  0.000 sec (  0.586%)
 iterations                     ...        0 min,  0.001 sec ( 34.427%)
 molecular gradient             ...        0 min,  0.000 sec ( 21.648%)
 printout                       ...        0 min,  0.000 sec (  2.407%)

         :::::::::::::::::::::::::::::::::::::::::::::::::::::
         ::                     SUMMARY                     ::
         :::::::::::::::::::::::::::::::::::::::::::::::::::::
         :: total energy             -13.181945536797 Eh    ::
         :: gradient norm              0.000362554413 Eh/a0 ::
         :: HOMO-LUMO gap              5.237966799506 eV    ::
         ::.................................................::
         :: SCC energy               -13.238409515477 Eh    ::
         :: -> isotropic ES            0.172216345400 Eh    ::
         :: -> anisotropic ES         -0.000955836705 Eh    ::
         :: -> anisotropic XC          0.000827051596 Eh    ::
         :: -> dispersion             -0.001392036845 Eh    ::
         :: repulsion energy           0.056405235118 Eh    ::
         :: add. restraining           0.000059462608 Eh    ::
         :::::::::::::::::::::::::::::::::::::::::::::::::::::

           -------------------------------------------------
          |                Property Printout                |
           -------------------------------------------------

    * Orbital Energies and Occupations

         #    Occupation            Energy/Eh            Energy/eV
      -------------------------------------------------------------
         1        2.0000           -0.7764620             -21.1286
         2        2.0000           -0.6789019             -18.4739
         3        2.0000           -0.4975128             -13.5380
         4        2.0000           -0.4148992             -11.2900
         5        2.0000           -0.4128416             -11.2340
         6        2.0000           -0.4127597             -11.2318
         7        2.0000           -0.3481748              -9.4743
         8        2.0000           -0.3481197              -9.4728
         9        2.0000           -0.1801046              -4.9009
        10        2.0000           -0.1794070              -4.8819
        11        2.0000           -0.1794063              -4.8819 (HOMO)
        12                          0.0130854               0.3561 (LUMO)
        13                          0.2451339               6.6704
        14                          0.3270909               8.9006
        15                          0.3276452               8.9157
        16                          0.3519168               9.5761
        17                          0.3520430               9.5796
        18                          0.3520439               9.5796
        19                          0.3524161               9.5897
        20                          0.3524161               9.5897
      -------------------------------------------------------------
                  HL-Gap            0.1924917 Eh            5.2380 eV
             Fermi-level           -0.0831604 Eh           -2.2629 eV

     #   Z        covCN         q      C6AA      α(0)
     1   9 F      0.769    -0.308    12.415     4.162
     2  17 Cl     0.000    -1.000   127.007    17.151
     3   6 C      3.545     0.050    20.749     6.668
     4   1 H      0.925     0.086     1.921     2.167
     5   1 H      0.925     0.086     1.919     2.166
     6   1 H      0.925     0.086     1.915     2.164

 Mol. C6AA /au·bohr⁶  :        547.475973
 Mol. C8AA /au·bohr⁸  :      15842.420408
 Mol. α(0) /au        :         34.479018


Wiberg/Mayer (AO) data.
largest (>0.10) Wiberg bond orders for each atom
          total WBO             WBO to atom ...
     1  F   0.931        C    3 0.906
     2  Cl  0.000
     3  C   3.860        H    4 0.985    H    5 0.985    H    6 0.984    F    1 0.906
     4  H   0.993        C    3 0.985
     5  H   0.993        C    3 0.985
     6  H   0.993        C    3 0.984

molecular dipole:
                 x           y           z       tot (Debye)
 q only:       -4.152      -0.266       0.044
   full:       -3.965      -0.256       0.041      10.101
molecular quadrupole (traceless):
                xx          xy          yy          xz          yz          zz
 q only:      -34.364      -3.141      17.092       0.640       0.039      17.272
  q+dip:      -36.509      -3.312      18.161       0.692       0.042      18.348
   full:      -35.811      -3.256      17.813       0.676       0.041      17.999

           -------------------------------------------------
          |                Geometry Summary                 |
           -------------------------------------------------

      molecular mass/u    :       69.4858989
   center of mass at/Å    :        0.3844413       0.0286098      -0.0000673
  moments of inertia/u·Å² :        0.3269421E+01   0.4239709E+03   0.4239729E+03
rotational constants/cm⁻¹ :        0.5156152E+01   0.3976130E-01   0.3976111E-01

 * 3 selected distances

     #   Z        #   Z                                     value/Å
     3   6 C      4   1 H                                 1.0820507 (min)
     3   6 C      5   1 H                                 1.0822584 (max)
     3   6 C      6   1 H                                 1.0821125

 * 1 distinct bonds (by element types)

   Z      Z             #   av. dist./Å        max./Å        min./Å
   1 H    6 C           3     1.0821405     1.0822584     1.0820507


optimized geometry written to: xtbopt.xyz


           -------------------------------------------------
          | TOTAL ENERGY              -13.181945536797 Eh   |
          | GRADIENT NORM               0.000362554413 Eh/α |
          | HOMO-LUMO GAP               5.237966799506 eV   |
           -------------------------------------------------

------------------------------------------------------------------------
 * finished run on 2020/04/08 at 13:05:41.930     
------------------------------------------------------------------------
 total:
 * wall-time:     0 d,  0 h,  0 min,  0.096 sec
 *  cpu-time:     0 d,  0 h,  0 min,  0.347 sec
 * ratio c/w:     3.628 speedup
 SCF:
 * wall-time:     0 d,  0 h,  0 min,  0.007 sec
 *  cpu-time:     0 d,  0 h,  0 min,  0.026 sec
 * ratio c/w:     3.950 speedup
 ANC optimizer:
 * wall-time:     0 d,  0 h,  0 min,  0.048 sec
 *  cpu-time:     0 d,  0 h,  0 min,  0.189 sec
 * ratio c/w:     3.971 speedup

