      -----------------------------------------------------------      
     |                   =====================                   |     
     |                           x T B                           |     
     |                   =====================                   |     
     |                         S. Grimme                         |     
     |          Mulliken Center for Theoretical Chemistry        |     
     |                    University of Bonn                     |     
      -----------------------------------------------------------      

   * xtb version 6.2.3 (830e466) compiled by 'ehlert@majestix' on 2020-03-16

   xtb is free software: you can redistribute it and/or modify it under
   the terms of the GNU Lesser General Public License as published by
   the Free Software Foundation, either version 3 of the License, or
   (at your option) any later version.
   
   xtb is distributed in the hope that it will be useful,
   but WITHOUT ANY WARRANTY; without even the implied warranty of
   MERCHANTABILITY or FITNESS FOR A PARTICULAR PURPOSE.  See the
   GNU Lesser General Public License for more details.
   
   Cite this work as:
   * S. Grimme, C. Bannwarth, P. Shushkov, J. Chem. Theory Comput., 2017,
     13, 1989-2009. DOI: 10.1021/acs.jctc.7b00118
   * C. Bannwarth, S. Ehlert and S. Grimme., J. Chem. Theory Comput., 2019,
     15, 1652-1671. DOI: 10.1021/acs.jctc.8b01176
   * P. Pracht, E. Caldeweyher, S. Ehlert, S. Grimme, ChemRxiv, 2019, preprint.
     DOI: 10.26434/chemrxiv.8326202.v1
   
   for DFT-D4:
   * E. Caldeweyher, C. Bannwarth and S. Grimme, J. Chem. Phys., 2017,
     147, 034112. DOI: 10.1063/1.4993215
   * E. Caldeweyher, S. Ehlert, A. Hansen, H. Neugebauer, S. Spicher,
     C. Bannwarth and S. Grimme, J. Chem. Phys., 2019, 150, 154122.
     DOI: 10.1063/1.5090222
   
   for sTDA-xTB:
   * S. Grimme and C. Bannwarth, J. Chem. Phys., 2016, 145, 054103.
     DOI: 10.1063/1.4959605
   
   in the mass-spec context:
   * V. Asgeirsson, C. Bauer and S. Grimme, Chem. Sci., 2017, 8, 4879.
     DOI: 10.1039/c7sc00601b
   
   for metadynamics refer to:
   * S. Grimme, J. Chem. Theory Comput., 2019, 155, 2847-2862
     DOI: 10.1021/acs.jctc.9b00143
   
   with help from (in alphabetical order)
   C. Bannwarth, F. Bohle, G. Brandenburg, E. Caldeweyher, M. Checinski,
   S. Dohm, S. Ehlert, S. Ehrlich, F. März, H. Neugebauer, J. Pisarek,
   P. Pracht, P. Shushkov, and S. Spicher.
   
 * started run on 2020/04/08 at 23:04:06.136     

           -------------------------------------------------
          |                Calculation Setup                |
           -------------------------------------------------

          program call               : /home/tom/.local/bin/xtb SN2_PES_scan_5-2_xtb.xyz --chrg -1 --opt --input xcontrol_SN2_PES_scan_5-2
          coordinate file            : SN2_PES_scan_5-2_xtb.xyz
          omp threads                :                     1
          number of atoms            :                     6
          number of electrons        :                    22
          charge                     :                    -1
          spin                       :                   0.0
          first test random number   :      0.40302645240782

constraining bond 1 3 to    1.5000000 Å, actual value:    1.9994741 Å
constraining bond 2 3 to    2.6680000 Å, actual value:    2.2238522 Å

molecular fragmentation (1/2 indicates fragments):
122222
# atoms in fragment 1/2:     1     5
 fragment masses (1/2) :       19.00       50.49
CMA distance (Bohr)    :   6.724
constraining FC (au)   : 10.0000
########################################################################
[WARNING] Please study the warnings concerning your input carefully
-2- prog_main: XTBPATH is not set, using XTBHOME instead
-1- prog_main: XTBHOME is not set, using HOME instead
########################################################################
           ------------------------------------------------- 
          |                 G F N 2 - x T B                 |
          | Geometry, Frequencies, Noncovalent interactions |
          |            JCTC 2019 parametrisation            |
           ------------------------------------------------- 
             k(s)              :                1.8500
             k(p)              :                2.2300
             k(d)              :                2.2300
             k(f)              :                2.0000
             kEN (H0ij)        :               -2.0000
             D4 a1             :                0.5200
             D4 a2             :                5.0000
             D4 s6             :                1.0000
             D4 s8             :                2.7000
             D4 s9             :                5.0000
             alphaj            :                2.0000

  Z AO/shell   Hii/eV     exponent
  1     Wed Apr 25 08:07:45 CEST 2018   EN: 2.200 GM2: 0.406  GM3: 0.0800  RAES: 1.40
     1s    -10.707211    1.230000
  6     Wed Apr 25 08:07:45 CEST 2018   EN: 2.550 GM2: 0.538  GM3: 0.1500  RAES: 3.00
     2s    -13.970922    2.096432
     2p    -10.063292    1.800000
  9     Mon Apr 23 13:58:50 CEST 2018   EN: 3.980 GM2: 0.532  GM3: 0.1426  RAES: 2.40
     2s    -23.458179    2.416361
     2p    -15.746583    2.308399
 17     Mon Apr 23 14:09:22 CEST 2018   EN: 3.160 GM2: 0.249  GM3: 0.1495  RAES: 2.50
     3s    -29.278781    2.485265
     3p    -12.673758    2.199650
     3d     -0.240338    2.476089

           ------------------------------------------------- 
          |        Self-Consistent Charge Iterations        |
           ------------------------------------------------- 

          ...................................................
          :                      SETUP                      :
          :.................................................:
          :  # basis functions                  21          :
          :  # atomic orbitals                  20          :
          :  # shells                           10          :
          :  # electrons                        22          :
          :  max. iterations                   250          :
          :  Hamiltonian                  GFN2-xTB          :
          :  restarted?                      false          :
          :  GBSA solvation                  false          :
          :  PC potential                    false          :
          :  electronic temp.          300.0000000     K    :
          :  accuracy                    1.0000000          :
          :  -> integral cutoff          0.2500000E+02      :
          :  -> integral neglect         0.1000000E-07      :
          :  -> SCF convergence          0.1000000E-05 Eh   :
          :  -> wf. convergence          0.1000000E-03 e    :
          :  Broyden damping             0.4000000          :
          ...................................................

 iter      E             dE          RMSdq      gap      omega  full diag
   1    -13.1080042 -0.131080E+02  0.687E+00    4.55       0.0  T
   2    -13.1765019 -0.684977E-01  0.281E+00    2.38       1.0  T
   3    -13.2036305 -0.271286E-01  0.218E+00    3.87       1.0  T
   4    -13.2111059 -0.747537E-02  0.505E-01    3.41       1.0  T
   5    -13.2112413 -0.135489E-03  0.174E-01    3.29       1.0  T
   6    -13.2113132 -0.718066E-04  0.847E-02    3.34       1.0  T
   7    -13.2113206 -0.744558E-05  0.387E-02    3.34       1.1  T
   8    -13.2113196  0.950554E-06  0.393E-02    3.31       1.0  T
   9    -13.2113268 -0.714182E-05  0.496E-03    3.33       8.2  T
  10    -13.2113268 -0.589694E-07  0.192E-03    3.33      21.3  T
  11    -13.2113269 -0.706331E-08  0.254E-04    3.33     161.0  T
  12    -13.2113269 -0.161672E-09  0.782E-05    3.33     522.3  T

   *** convergence criteria satisfied after 12 iterations ***

         #    Occupation            Energy/Eh            Energy/eV
      -------------------------------------------------------------
         1        2.0000           -0.8511756             -23.1617
       ...           ...                  ...                  ...
         5        2.0000           -0.3281908              -8.9305
         6        2.0000           -0.2698726              -7.3436
         7        2.0000           -0.2280015              -6.2042
         8        2.0000           -0.2279913              -6.2040
         9        2.0000           -0.1998290              -5.4376
        10        2.0000           -0.1970652              -5.3624
        11        2.0000           -0.1970588              -5.3622 (HOMO)
        12                         -0.0748104              -2.0357 (LUMO)
        13                          0.2525558               6.8724
        14                          0.2525878               6.8733
        15                          0.2526231               6.8742
        16                          0.2529352               6.8827
       ...                                ...                  ...
        20                          0.4469778              12.1629
      -------------------------------------------------------------
                  HL-Gap            0.1222485 Eh            3.3265 eV
             Fermi-level           -0.1359346 Eh           -3.6990 eV

 SCC (total)                   0 d,  0 h,  0 min,  0.003 sec
 SCC setup                      ...        0 min,  0.000 sec (  2.303%)
 Dispersion                     ...        0 min,  0.000 sec (  0.486%)
 integral evaluation            ...        0 min,  0.001 sec ( 24.184%)
 zeroth order Hamiltonian       ...        0 min,  0.000 sec (  1.772%)
 iterations                     ...        0 min,  0.001 sec ( 42.753%)
 molecular gradient             ...        0 min,  0.001 sec ( 25.479%)
 printout                       ...        0 min,  0.000 sec (  2.267%)

         :::::::::::::::::::::::::::::::::::::::::::::::::::::
         ::                     SUMMARY                     ::
         :::::::::::::::::::::::::::::::::::::::::::::::::::::
         :: total energy               2.801891190389 Eh    ::
         :: gradient norm             43.722246208396 Eh/a0 ::
         :: HOMO-LUMO gap              3.326549648445 eV    ::
         ::.................................................::
         :: SCC energy               -13.211326853933 Eh    ::
         :: -> isotropic ES            0.176729197122 Eh    ::
         :: -> anisotropic ES          0.000700873965 Eh    ::
         :: -> anisotropic XC          0.004243114345 Eh    ::
         :: -> dispersion             -0.002017848623 Eh    ::
         :: repulsion energy           0.059788622730 Eh    ::
         :: add. restraining          15.953429557610 Eh    ::
         :::::::::::::::::::::::::::::::::::::::::::::::::::::

      ----------------------------------------------------------- 
     |                   =====================                   |
     |                        A N C O P T                        |
     |                   =====================                   |
     |               Approximate Normal Coordinate               |
     |                Rational Function Optimizer                |
      ----------------------------------------------------------- 

          ...................................................
          :                      SETUP                      :
          :.................................................:
          :   optimization level            normal          :
          :   max. optcycles                   200          :
          :   ANC micro-cycles                  20          :
          :   degrees of freedom                12          :
          :.................................................:
          :   RF solver                   davidson          :
          :   write xtbopt.log                true          :
          :   linear?                        false          :
          :   energy convergence         0.5000000E-05 Eh   :
          :   grad. convergence          0.1000000E-02 Eh/α :
          :   maximium RF displ.         1.0000000          :
          :   Hlow (freq-cutoff)         0.1000000E-01      :
          :   Hmax (freq-cutoff)         5.0000000          :
          :   S6 in model hess.         20.0000000          :
          ...................................................

generating ANC from model Hessian ...
Using Lindh-Hessian (1995)
 Shifting diagonal of input Hessian by    2.10236667687100     
 Lowest  eigenvalues of input Hessian
    0.010000    0.015668   -0.000000   -0.000000   -0.000000   -0.000000
    0.000000    0.000000    2.123999    2.254472    2.254621    2.539743
    2.800620    2.800714    6.782606    6.787575   22.171336   62.353295
 Highest eigenvalues
    2.800620    2.800714    6.782606    6.787575   22.171336   62.353295
 

........................................................................
.............................. CYCLE    1 ..............................
........................................................................
   1    -13.2113269 -0.132113E+02  0.158E-05    3.33       0.0  T
   2    -13.2113269 -0.621725E-12  0.850E-06    3.33    4802.7  T
   3    -13.2113269 -0.763833E-13  0.585E-06    3.33    6979.3  T
     SCC iter.                  ...        0 min,  0.000 sec
     gradient                   ...        0 min,  0.001 sec
 * total energy  :     2.8018912 Eh     change        0.1943061E-08 Eh
   gradient norm :    43.7222450 Eh/α   predicted     0.0000000E+00 (-100.00%)
   displ. norm   :     0.9444543 α      lambda       -0.4129366E+02
   maximum displ.:     0.9439029 α      in ANC's #9, #12, #3, ...

........................................................................
.............................. CYCLE    2 ..............................
........................................................................
   1    -13.2102015 -0.132102E+02  0.351E+00   11.60       0.0  T
   2    -13.2298664 -0.196649E-01  0.180E+00   12.35       1.0  T
   3    -13.2332945 -0.342808E-02  0.909E-01   11.12       1.0  T
   4    -13.2334856 -0.191149E-03  0.321E-01   10.67       1.0  T
   5    -13.2335485 -0.628500E-04  0.144E-01   10.64       1.0  T
   6    -13.2335892 -0.407618E-04  0.249E-02   10.70       1.6  T
   7    -13.2335899 -0.690574E-06  0.120E-02   10.70       3.4  T
   8    -13.2335900 -0.682957E-07  0.751E-04   10.70      54.4  T
   9    -13.2335900 -0.334204E-09  0.384E-04   10.70     106.2  T
     SCC iter.                  ...        0 min,  0.001 sec
     gradient                   ...        0 min,  0.001 sec
 * total energy  :   -11.7718603 Eh     change       -0.1457375E+02 Eh
   gradient norm :    12.9969984 Eh/α   predicted    -0.3906368E+02 ( 168.04%)
   displ. norm   :     0.2399210 α      lambda       -0.2791373E+01
   maximum displ.:     0.2075335 α      in ANC's #9, #12, #6, ...

........................................................................
.............................. CYCLE    3 ..............................
........................................................................
   1    -13.2348844 -0.132349E+02  0.457E-01    7.49       0.0  T
   2    -13.2352718 -0.387373E-03  0.245E-01    7.64       1.0  T
   3    -13.2353280 -0.561940E-04  0.125E-01    7.78       1.0  T
   4    -13.2353314 -0.343843E-05  0.515E-02    7.82       1.0  T
   5    -13.2353320 -0.559248E-06  0.556E-03    7.82       7.3  T
   6    -13.2353320 -0.265504E-07  0.233E-03    7.82      17.5  T
     SCC iter.                  ...        0 min,  0.000 sec
     gradient                   ...        0 min,  0.001 sec
 * total energy  :   -13.1209714 Eh     change       -0.1349111E+01 Eh
   gradient norm :     1.6322417 Eh/α   predicted    -0.1476026E+01 (   9.41%)
   displ. norm   :     0.2614567 α      lambda       -0.4234599E+00
   maximum displ.:     0.2578136 α      in ANC's #12, #9, #6, ...

........................................................................
.............................. CYCLE    4 ..............................
........................................................................
   1    -13.2278223 -0.132278E+02  0.521E-01    4.57       0.0  T
   2    -13.2280809 -0.258644E-03  0.310E-01    4.76       1.0  T
   3    -13.2281351 -0.541663E-04  0.115E-01    4.93       1.0  T
   4    -13.2281417 -0.661089E-05  0.453E-02    4.93       1.0  T
   5    -13.2281440 -0.230624E-05  0.333E-02    4.94       1.2  T
   6    -13.2281458 -0.181689E-05  0.999E-03    4.94       4.1  T
   7    -13.2281459 -0.131275E-06  0.335E-03    4.94      12.2  T
   8    -13.2281460 -0.224827E-07  0.397E-04    4.94     102.9  T
     SCC iter.                  ...        0 min,  0.001 sec
     gradient                   ...        0 min,  0.001 sec
 * total energy  :   -12.8210163 Eh     change        0.2999551E+00 Eh
   gradient norm :     4.1890868 Eh/α   predicted    -0.2262037E+00 (-175.41%)
   displ. norm   :     0.1772451 α      lambda       -0.7018322E+00
   maximum displ.:     0.1738133 α      in ANC's #12, #9, #6, ...

........................................................................
.............................. CYCLE    5 ..............................
........................................................................
   1    -13.2345992 -0.132346E+02  0.359E-01    7.10       0.0  T
   2    -13.2346914 -0.921429E-04  0.214E-01    6.97       1.0  T
   3    -13.2347150 -0.236587E-04  0.709E-02    6.84       1.0  T
   4    -13.2347178 -0.274108E-05  0.259E-02    6.84       1.6  T
   5    -13.2347183 -0.581975E-06  0.199E-02    6.84       2.0  T
   6    -13.2347190 -0.687863E-06  0.516E-03    6.83       7.9  T
   7    -13.2347191 -0.279191E-07  0.131E-03    6.83      31.1  T
     SCC iter.                  ...        0 min,  0.001 sec
     gradient                   ...        0 min,  0.001 sec
 * total energy  :   -13.1834282 Eh     change       -0.3624119E+00 Eh
   gradient norm :     0.1292165 Eh/α   predicted    -0.3619404E+00 (  -0.13%)
   displ. norm   :     0.0139454 α      lambda       -0.9454619E-03
   maximum displ.:     0.0096163 α      in ANC's #1, #6, #12, ...

........................................................................
.............................. CYCLE    6 ..............................
........................................................................
   1    -13.2359040 -0.132359E+02  0.216E-02    6.90       0.0  T
   2    -13.2359042 -0.188111E-06  0.125E-02    6.90       3.3  T
   3    -13.2359043 -0.158138E-07  0.415E-03    6.90       9.8  T
   4    -13.2359043 -0.729671E-08  0.863E-04    6.90      47.3  T
     SCC iter.                  ...        0 min,  0.000 sec
     gradient                   ...        0 min,  0.001 sec
 * total energy  :   -13.1839611 Eh     change       -0.5328886E-03 Eh
   gradient norm :     0.0176651 Eh/α   predicted    -0.4728214E-03 ( -11.27%)
   displ. norm   :     0.1554258 α      lambda       -0.4212250E-03
   maximum displ.:     0.1546227 α      in ANC's #1, #6, #2, ...

........................................................................
.............................. CYCLE    7 ..............................
........................................................................
   1    -13.2365674 -0.132366E+02  0.247E-01    6.91       0.0  T
   2    -13.2365728 -0.537229E-05  0.155E-01    6.91       1.0  T
   3    -13.2365743 -0.150197E-05  0.162E-02    6.92       2.5  T
   4    -13.2365745 -0.196777E-06  0.440E-03    6.92       9.3  T
   5    -13.2365745 -0.229903E-07  0.213E-03    6.92      19.1  T
   6    -13.2365745 -0.625551E-08  0.859E-04    6.92      47.5  T
     SCC iter.                  ...        0 min,  0.000 sec
     gradient                   ...        0 min,  0.001 sec
 * total energy  :   -13.1822577 Eh     change        0.1703426E-02 Eh
   gradient norm :     0.0651601 Eh/α   predicted    -0.2157080E-03 (-112.66%)
   displ. norm   :     0.1408677 α      lambda       -0.3699127E-02
   maximum displ.:     0.1407471 α      in ANC's #1, #2, #6, ...

........................................................................
.............................. CYCLE    8 ..............................
........................................................................
   1    -13.2378515 -0.132379E+02  0.226E-01    6.92       0.0  T
   2    -13.2378558 -0.431683E-05  0.142E-01    6.92       1.0  T
   3    -13.2378570 -0.121824E-05  0.146E-02    6.92       2.8  T
   4    -13.2378572 -0.174544E-06  0.239E-03    6.92      17.1  T
   5    -13.2378572 -0.443747E-08  0.144E-03    6.92      28.4  T
     SCC iter.                  ...        0 min,  0.000 sec
     gradient                   ...        0 min,  0.001 sec
 * total energy  :   -13.1841654 Eh     change       -0.1907777E-02 Eh
   gradient norm :     0.0343581 Eh/α   predicted    -0.1886275E-02 (  -1.13%)
   displ. norm   :     0.0608581 α      lambda       -0.1975381E-03
   maximum displ.:     0.0597710 α      in ANC's #2, #6, #1, ...

........................................................................
.............................. CYCLE    9 ..............................
........................................................................
   1    -13.2387777 -0.132388E+02  0.782E-02    6.91       0.0  T
   2    -13.2387786 -0.974385E-06  0.487E-02    6.91       1.0  T
   3    -13.2387789 -0.235583E-06  0.726E-03    6.91       5.6  T
   4    -13.2387789 -0.337846E-07  0.304E-03    6.91      13.4  T
   5    -13.2387789 -0.903372E-08  0.113E-03    6.91      36.0  T
     SCC iter.                  ...        0 min,  0.000 sec
     gradient                   ...        0 min,  0.001 sec
 * total energy  :   -13.1840400 Eh     change        0.1254721E-03 Eh
   gradient norm :     0.0254203 Eh/α   predicted    -0.9913707E-04 (-179.01%)
   displ. norm   :     0.0613478 α      lambda       -0.7093491E-03
   maximum displ.:     0.0550183 α      in ANC's #2, #6, #1, ...

........................................................................
.............................. CYCLE   10 ..............................
........................................................................
   1    -13.2411890 -0.132412E+02  0.831E-02    6.89       0.0  T
   2    -13.2411907 -0.169726E-05  0.508E-02    6.90       1.0  T
   3    -13.2411909 -0.246997E-06  0.114E-02    6.90       3.6  T
   4    -13.2411910 -0.663602E-07  0.405E-03    6.90      10.1  T
   5    -13.2411910 -0.153567E-07  0.178E-03    6.90      23.0  T
     SCC iter.                  ...        0 min,  0.000 sec
     gradient                   ...        0 min,  0.001 sec
 * total energy  :   -13.1843981 Eh     change       -0.3581093E-03 Eh
   gradient norm :     0.0143102 Eh/α   predicted    -0.3560127E-03 (  -0.59%)
   displ. norm   :     0.0195827 α      lambda       -0.1127461E-03
   maximum displ.:     0.0179365 α      in ANC's #1, #6, #2, ...

........................................................................
.............................. CYCLE   11 ..............................
........................................................................
   1    -13.2420088 -0.132420E+02  0.308E-02    6.91       0.0  T
   2    -13.2420090 -0.213674E-06  0.188E-02    6.91       2.2  T
   3    -13.2420091 -0.239518E-07  0.412E-03    6.91       9.9  T
   4    -13.2420091 -0.981077E-08  0.140E-03    6.91      29.1  T
   5    -13.2420091 -0.189176E-08  0.684E-04    6.91      59.7  T
     SCC iter.                  ...        0 min,  0.000 sec
     gradient                   ...        0 min,  0.001 sec
 * total energy  :   -13.1844659 Eh     change       -0.6779640E-04 Eh
   gradient norm :     0.0107200 Eh/α   predicted    -0.5639523E-04 ( -16.82%)
   displ. norm   :     0.0105863 α      lambda       -0.4078086E-04
   maximum displ.:     0.0083046 α      in ANC's #6, #1, #3, ...

........................................................................
.............................. CYCLE   12 ..............................
........................................................................
   1    -13.2428514 -0.132429E+02  0.158E-02    6.91       0.0  T
   2    -13.2428516 -0.241877E-06  0.845E-03    6.91       4.8  T
   3    -13.2428516 -0.107680E-07  0.427E-03    6.91       9.6  T
   4    -13.2428516 -0.607095E-08  0.115E-03    6.91      35.6  T
   5    -13.2428516 -0.170034E-08  0.612E-04    6.91      66.7  T
     SCC iter.                  ...        0 min,  0.000 sec
     gradient                   ...        0 min,  0.001 sec
 * total energy  :   -13.1844937 Eh     change       -0.2783260E-04 Eh
   gradient norm :     0.0056178 Eh/α   predicted    -0.2039077E-04 ( -26.74%)
   displ. norm   :     0.0079536 α      lambda       -0.2409494E-04
   maximum displ.:     0.0052681 α      in ANC's #3, #6, #2, ...

........................................................................
.............................. CYCLE   13 ..............................
........................................................................
   1    -13.2432111 -0.132432E+02  0.115E-02    6.92       0.0  T
   2    -13.2432113 -0.146595E-06  0.635E-03    6.92       6.4  T
   3    -13.2432113 -0.523950E-08  0.318E-03    6.92      12.8  T
   4    -13.2432113 -0.274749E-08  0.753E-04    6.92      54.2  T
   5    -13.2432113 -0.783684E-09  0.384E-04    6.92     106.3  T
     SCC iter.                  ...        0 min,  0.000 sec
     gradient                   ...        0 min,  0.001 sec
 * total energy  :   -13.1845127 Eh     change       -0.1896368E-04 Eh
   gradient norm :     0.0055775 Eh/α   predicted    -0.1204902E-04 ( -36.46%)
   displ. norm   :     0.0145685 α      lambda       -0.4414346E-04
   maximum displ.:     0.0125756 α      in ANC's #3, #6, #2, ...

........................................................................
.............................. CYCLE   14 ..............................
........................................................................
   1    -13.2433872 -0.132434E+02  0.198E-02    6.92       0.0  T
   2    -13.2433877 -0.451270E-06  0.116E-02    6.93       3.5  T
   3    -13.2433877 -0.146675E-07  0.561E-03    6.92       7.3  T
   4    -13.2433877 -0.507226E-08  0.996E-04    6.92      41.0  T
   5    -13.2433877 -0.101656E-08  0.575E-04    6.93      71.0  T
     SCC iter.                  ...        0 min,  0.000 sec
     gradient                   ...        0 min,  0.001 sec
 * total energy  :   -13.1845447 Eh     change       -0.3201503E-04 Eh
   gradient norm :     0.0095823 Eh/α   predicted    -0.2207526E-04 ( -31.05%)
   displ. norm   :     0.0144826 α      lambda       -0.3784107E-04
   maximum displ.:     0.0139510 α      in ANC's #3, #6, #1, ...

........................................................................
.............................. CYCLE   15 ..............................
........................................................................
   1    -13.2430319 -0.132430E+02  0.181E-02    6.94       0.0  T
   2    -13.2430322 -0.326967E-06  0.114E-02    6.94       3.6  T
   3    -13.2430322 -0.142422E-07  0.507E-03    6.94       8.0  T
   4    -13.2430322 -0.308734E-08  0.880E-04    6.94      46.4  T
   5    -13.2430322 -0.747097E-09  0.323E-04    6.94     126.3  T
     SCC iter.                  ...        0 min,  0.000 sec
     gradient                   ...        0 min,  0.001 sec
 * total energy  :   -13.1845699 Eh     change       -0.2518853E-04 Eh
   gradient norm :     0.0083096 Eh/α   predicted    -0.1892599E-04 ( -24.86%)
   displ. norm   :     0.0065991 α      lambda       -0.1338617E-04
   maximum displ.:     0.0057619 α      in ANC's #3, #1, #2, ...

........................................................................
.............................. CYCLE   16 ..............................
........................................................................
   1    -13.2425421 -0.132425E+02  0.760E-03    6.94       0.0  T
   2    -13.2425422 -0.266042E-07  0.504E-03    6.94       8.1  T
   3    -13.2425422 -0.342400E-08  0.122E-03    6.94      33.4  T
   4    -13.2425422 -0.710253E-09  0.433E-04    6.94      94.3  T
     SCC iter.                  ...        0 min,  0.000 sec
     gradient                   ...        0 min,  0.001 sec
 * total energy  :   -13.1845780 Eh     change       -0.8076423E-05 Eh
   gradient norm :     0.0030083 Eh/α   predicted    -0.6691542E-05 ( -17.15%)
   displ. norm   :     0.0020527 α      lambda       -0.1552989E-05
   maximum displ.:     0.0016282 α      in ANC's #6, #2, #1, ...

........................................................................
.............................. CYCLE   17 ..............................
........................................................................
   1    -13.2423626 -0.132424E+02  0.303E-03    6.94       0.0  T
   2    -13.2423626 -0.813144E-08  0.162E-03    6.94      25.2  T
   3    -13.2423626 -0.472578E-09  0.815E-04    6.94      50.1  T
   4    -13.2423626 -0.253342E-09  0.249E-04    6.94     163.6  T
     SCC iter.                  ...        0 min,  0.000 sec
     gradient                   ...        0 min,  0.001 sec
 * total energy  :   -13.1845788 Eh     change       -0.8735201E-06 Eh
   gradient norm :     0.0004095 Eh/α   predicted    -0.7762248E-06 ( -11.14%)
   displ. norm   :     0.0009167 α      lambda       -0.6216267E-07
   maximum displ.:     0.0006777 α      in ANC's #3, #6, #2, ...

   *** GEOMETRY OPTIMIZATION CONVERGED AFTER 17 ITERATIONS ***

------------------------------------------------------------------------
 total energy gain   :       -15.9864700 Eh   -10031.6614 kcal/mol
 total RMSD          :         0.3020578 a0        0.1598 Å
 total power (kW/mol):     -2468.9688996 (step)********** (real)
------------------------------------------------------------------------

 ANCopt (total)                0 d,  0 h,  0 min,  0.031 sec
 optimizer setup                ...        0 min,  0.000 sec (  0.176%)
 model hessian                  ...        0 min,  0.000 sec (  0.292%)
 ANC generation                 ...        0 min,  0.000 sec (  0.205%)
 coordinate transformation      ...        0 min,  0.000 sec (  0.234%)
 single point calculation       ...        0 min,  0.029 sec ( 94.860%)
 optimization log               ...        0 min,  0.000 sec (  1.188%)
 hessian update                 ...        0 min,  0.000 sec (  0.178%)
 rational function              ...        0 min,  0.000 sec (  1.360%)

================
 final structure:
================
6
 xtb: 6.2.3 (830e466)
F        -2.52617133384817   -0.14761155305843    0.04651961820390
Cl        1.63339789688648    0.09751647609379   -0.02373540028369
C        -1.02986910056545   -0.06022418292151    0.01795391226788
H        -0.72274896324483   -0.60980502418758   -0.85822610463722
H        -0.69579945138905   -0.51239863299804    0.93875681108333
H        -0.80175904783897    0.99244291707179   -0.04256883663421
 
 Bond Distances (Angstroems)
 ---------------------------
F1-C3=1.4991         C3-F1=1.4991         C3-H4=1.0789         C3-H5=1.0789         C3-H6=1.0788         H4-C3=1.0789         
H5-C3=1.0789         H6-C3=1.0788         
 C  H  Rav=1.0789 sigma=0.0000  Rmin=1.0788  Rmax=1.0789     3
 F  C  Rav=1.4991 sigma=0.0000  Rmin=1.4991  Rmax=1.4991     1
 
 selected bond angles (degree)
 --------------------
H4-C3-F1=105.66                H5-C3-F1=105.57                H5-C3-H4=113.05                H6-C3-F1=105.60                
H6-C3-H4=113.04                H6-C3-H5=113.04                
 
 selected dihedral angles (degree)
 ---------------------------------

 
 CMA Distance (Angstroems)
 ---------------------------
R(CMA):  3.3902
           -------------------------------------------------
          |                Final Singlepoint                |
           -------------------------------------------------

          ...................................................
          :                      SETUP                      :
          :.................................................:
          :  # basis functions                  21          :
          :  # atomic orbitals                  20          :
          :  # shells                           10          :
          :  # electrons                        22          :
          :  max. iterations                   250          :
          :  Hamiltonian                  GFN2-xTB          :
          :  restarted?                      false          :
          :  GBSA solvation                  false          :
          :  PC potential                    false          :
          :  electronic temp.          300.0000000     K    :
          :  accuracy                    1.0000000          :
          :  -> integral cutoff          0.2500000E+02      :
          :  -> integral neglect         0.1000000E-07      :
          :  -> SCF convergence          0.1000000E-05 Eh   :
          :  -> wf. convergence          0.1000000E-03 e    :
          :  Broyden damping             0.4000000          :
          ...................................................

 iter      E             dE          RMSdq      gap      omega  full diag
   1    -13.2423626 -0.132424E+02  0.135E-04    6.94       0.0  T
   2    -13.2423626 -0.116476E-10  0.109E-04    6.94     374.6  T
   3    -13.2423626 -0.218936E-10  0.369E-05    6.94    1106.0  T

   *** convergence criteria satisfied after 3 iterations ***

         #    Occupation            Energy/Eh            Energy/eV
      -------------------------------------------------------------
         1        2.0000           -0.7900634             -21.4987
       ...           ...                  ...                  ...
         5        2.0000           -0.3668578              -9.9827
         6        2.0000           -0.3668390              -9.9822
         7        2.0000           -0.3050728              -8.3015
         8        2.0000           -0.3050417              -8.3006
         9        2.0000           -0.1902752              -5.1777
        10        2.0000           -0.1900901              -5.1726
        11        2.0000           -0.1900898              -5.1726 (HOMO)
        12                          0.0650096               1.7690 (LUMO)
        13                          0.2956262               8.0444
        14                          0.3321043               9.0370
        15                          0.3321463               9.0382
        16                          0.3354892               9.1291
       ...                                ...                  ...
        20                          0.3854058              10.4874
      -------------------------------------------------------------
                  HL-Gap            0.2550994 Eh            6.9416 eV
             Fermi-level           -0.0625401 Eh           -1.7018 eV

 SCC (total)                   0 d,  0 h,  0 min,  0.002 sec
 SCC setup                      ...        0 min,  0.000 sec (  3.015%)
 Dispersion                     ...        0 min,  0.000 sec (  0.483%)
 integral evaluation            ...        0 min,  0.001 sec ( 37.632%)
 zeroth order Hamiltonian       ...        0 min,  0.000 sec (  0.732%)
 iterations                     ...        0 min,  0.000 sec ( 14.242%)
 molecular gradient             ...        0 min,  0.001 sec ( 39.666%)
 printout                       ...        0 min,  0.000 sec (  2.942%)

         :::::::::::::::::::::::::::::::::::::::::::::::::::::
         ::                     SUMMARY                     ::
         :::::::::::::::::::::::::::::::::::::::::::::::::::::
         :: total energy             -13.184578831661 Eh    ::
         :: gradient norm              0.000410558593 Eh/a0 ::
         :: HOMO-LUMO gap              6.941608353655 eV    ::
         ::.................................................::
         :: SCC energy               -13.242362597408 Eh    ::
         :: -> isotropic ES            0.164931967018 Eh    ::
         :: -> anisotropic ES         -0.001452864309 Eh    ::
         :: -> anisotropic XC          0.001018350143 Eh    ::
         :: -> dispersion             -0.001918961334 Eh    ::
         :: repulsion energy           0.057754038392 Eh    ::
         :: add. restraining           0.000029813489 Eh    ::
         :::::::::::::::::::::::::::::::::::::::::::::::::::::

           -------------------------------------------------
          |                Property Printout                |
           -------------------------------------------------

    * Orbital Energies and Occupations

         #    Occupation            Energy/Eh            Energy/eV
      -------------------------------------------------------------
         1        2.0000           -0.7900634             -21.4987
         2        2.0000           -0.6358728             -17.3030
         3        2.0000           -0.4490577             -12.2195
         4        2.0000           -0.3683039             -10.0221
         5        2.0000           -0.3668578              -9.9827
         6        2.0000           -0.3668390              -9.9822
         7        2.0000           -0.3050728              -8.3015
         8        2.0000           -0.3050417              -8.3006
         9        2.0000           -0.1902752              -5.1777
        10        2.0000           -0.1900901              -5.1726
        11        2.0000           -0.1900898              -5.1726 (HOMO)
        12                          0.0650096               1.7690 (LUMO)
        13                          0.2956262               8.0444
        14                          0.3321043               9.0370
        15                          0.3321463               9.0382
        16                          0.3354892               9.1291
        17                          0.3354909               9.1292
        18                          0.3361596               9.1474
        19                          0.3851979              10.4818
        20                          0.3854058              10.4874
      -------------------------------------------------------------
                  HL-Gap            0.2550994 Eh            6.9416 eV
             Fermi-level           -0.0625401 Eh           -1.7018 eV

     #   Z        covCN         q      C6AA      α(0)
     1   9 F      0.768    -0.344    12.840     4.232
     2  17 Cl     0.050    -0.974   125.983    17.082
     3   6 C      3.595     0.071    19.977     6.471
     4   1 H      0.926     0.082     1.955     2.186
     5   1 H      0.926     0.083     1.951     2.184
     6   1 H      0.926     0.083     1.952     2.185

 Mol. C6AA /au·bohr⁶  :        545.771121
 Mol. C8AA /au·bohr⁸  :      15744.727879
 Mol. α(0) /au        :         34.340416


Wiberg/Mayer (AO) data.
largest (>0.10) Wiberg bond orders for each atom
          total WBO             WBO to atom ...
     1  F   0.904        C    3 0.865
     2  Cl  0.049
     3  C   3.852        H    4 0.985    H    6 0.985    H    5 0.985    F    1 0.865
     4  H   0.993        C    3 0.985
     5  H   0.993        C    3 0.985
     6  H   0.993        C    3 0.985

molecular dipole:
                 x           y           z       tot (Debye)
 q only:       -1.848      -0.112       0.022
   full:       -1.713      -0.104       0.019       4.363
molecular quadrupole (traceless):
                xx          xy          yy          xz          yz          zz
 q only:      -16.821      -1.495       8.370       0.411       0.023       8.451
  q+dip:      -19.507      -1.732       9.706       0.485       0.028       9.801
   full:      -18.647      -1.656       9.278       0.462       0.027       9.369

           -------------------------------------------------
          |                Geometry Summary                 |
           -------------------------------------------------

      molecular mass/u    :       69.4858989
   center of mass at/Å    :       -0.0675229      -0.0028965       0.0042629
  moments of inertia/u·Å² :        0.3264807E+01   0.2324015E+03   0.2324020E+03
rotational constants/cm⁻¹ :        0.5163439E+01   0.7253667E-01   0.7253651E-01

 * 3 selected distances

     #   Z        #   Z                                     value/Å
     3   6 C      4   1 H                                 1.0789130 (max)
     3   6 C      5   1 H                                 1.0788615
     3   6 C      6   1 H                                 1.0787980 (min)

 * 1 distinct bonds (by element types)

   Z      Z             #   av. dist./Å        max./Å        min./Å
   1 H    6 C           3     1.0788575     1.0789130     1.0787980


optimized geometry written to: xtbopt.xyz


           -------------------------------------------------
          | TOTAL ENERGY              -13.184578831661 Eh   |
          | GRADIENT NORM               0.000410558593 Eh/α |
          | HOMO-LUMO GAP               6.941608353655 eV   |
           -------------------------------------------------

------------------------------------------------------------------------
 * finished run on 2020/04/08 at 23:04:06.179     
------------------------------------------------------------------------
 total:
 * wall-time:     0 d,  0 h,  0 min,  0.042 sec
 *  cpu-time:     0 d,  0 h,  0 min,  0.042 sec
 * ratio c/w:     0.999 speedup
 SCF:
 * wall-time:     0 d,  0 h,  0 min,  0.003 sec
 *  cpu-time:     0 d,  0 h,  0 min,  0.003 sec
 * ratio c/w:     1.000 speedup
 ANC optimizer:
 * wall-time:     0 d,  0 h,  0 min,  0.033 sec
 *  cpu-time:     0 d,  0 h,  0 min,  0.033 sec
 * ratio c/w:     1.000 speedup

