      -----------------------------------------------------------      
     |                   =====================                   |     
     |                           x T B                           |     
     |                   =====================                   |     
     |                         S. Grimme                         |     
     |          Mulliken Center for Theoretical Chemistry        |     
     |                    University of Bonn                     |     
      -----------------------------------------------------------      

   * xtb version 6.2.3 (830e466) compiled by 'ehlert@majestix' on 2020-03-16

   xtb is free software: you can redistribute it and/or modify it under
   the terms of the GNU Lesser General Public License as published by
   the Free Software Foundation, either version 3 of the License, or
   (at your option) any later version.
   
   xtb is distributed in the hope that it will be useful,
   but WITHOUT ANY WARRANTY; without even the implied warranty of
   MERCHANTABILITY or FITNESS FOR A PARTICULAR PURPOSE.  See the
   GNU Lesser General Public License for more details.
   
   Cite this work as:
   * S. Grimme, C. Bannwarth, P. Shushkov, J. Chem. Theory Comput., 2017,
     13, 1989-2009. DOI: 10.1021/acs.jctc.7b00118
   * C. Bannwarth, S. Ehlert and S. Grimme., J. Chem. Theory Comput., 2019,
     15, 1652-1671. DOI: 10.1021/acs.jctc.8b01176
   * P. Pracht, E. Caldeweyher, S. Ehlert, S. Grimme, ChemRxiv, 2019, preprint.
     DOI: 10.26434/chemrxiv.8326202.v1
   
   for DFT-D4:
   * E. Caldeweyher, C. Bannwarth and S. Grimme, J. Chem. Phys., 2017,
     147, 034112. DOI: 10.1063/1.4993215
   * E. Caldeweyher, S. Ehlert, A. Hansen, H. Neugebauer, S. Spicher,
     C. Bannwarth and S. Grimme, J. Chem. Phys., 2019, 150, 154122.
     DOI: 10.1063/1.5090222
   
   for sTDA-xTB:
   * S. Grimme and C. Bannwarth, J. Chem. Phys., 2016, 145, 054103.
     DOI: 10.1063/1.4959605
   
   in the mass-spec context:
   * V. Asgeirsson, C. Bauer and S. Grimme, Chem. Sci., 2017, 8, 4879.
     DOI: 10.1039/c7sc00601b
   
   for metadynamics refer to:
   * S. Grimme, J. Chem. Theory Comput., 2019, 155, 2847-2862
     DOI: 10.1021/acs.jctc.9b00143
   
   with help from (in alphabetical order)
   C. Bannwarth, F. Bohle, G. Brandenburg, E. Caldeweyher, M. Checinski,
   S. Dohm, S. Ehlert, S. Ehrlich, F. März, H. Neugebauer, J. Pisarek,
   P. Pracht, P. Shushkov, and S. Spicher.
   
 * started run on 2020/04/08 at 23:03:30.156     

           -------------------------------------------------
          |                Calculation Setup                |
           -------------------------------------------------

          program call               : /home/tom/.local/bin/xtb SN2_PES_scan_0-1_xtb.xyz --chrg -1 --opt --input xcontrol_SN2_PES_scan_0-1
          coordinate file            : SN2_PES_scan_0-1_xtb.xyz
          omp threads                :                     1
          number of atoms            :                     6
          number of electrons        :                    22
          charge                     :                    -1
          spin                       :                   0.0
          first test random number   :      0.03951732272234

constraining bond 1 3 to    4.0000000 Å, actual value:    3.9999480 Å
constraining bond 2 3 to    2.2240000 Å, actual value:    1.7801263 Å

molecular fragmentation (1/2 indicates fragments):
122222
# atoms in fragment 1/2:     1     5
 fragment masses (1/2) :       19.00       50.49
CMA distance (Bohr)    :   9.882
constraining FC (au)   : 10.0000
########################################################################
[WARNING] Please study the warnings concerning your input carefully
-2- prog_main: XTBPATH is not set, using XTBHOME instead
-1- prog_main: XTBHOME is not set, using HOME instead
########################################################################
           ------------------------------------------------- 
          |                 G F N 2 - x T B                 |
          | Geometry, Frequencies, Noncovalent interactions |
          |            JCTC 2019 parametrisation            |
           ------------------------------------------------- 
             k(s)              :                1.8500
             k(p)              :                2.2300
             k(d)              :                2.2300
             k(f)              :                2.0000
             kEN (H0ij)        :               -2.0000
             D4 a1             :                0.5200
             D4 a2             :                5.0000
             D4 s6             :                1.0000
             D4 s8             :                2.7000
             D4 s9             :                5.0000
             alphaj            :                2.0000

  Z AO/shell   Hii/eV     exponent
  1     Wed Apr 25 08:07:45 CEST 2018   EN: 2.200 GM2: 0.406  GM3: 0.0800  RAES: 1.40
     1s    -10.707211    1.230000
  6     Wed Apr 25 08:07:45 CEST 2018   EN: 2.550 GM2: 0.538  GM3: 0.1500  RAES: 3.00
     2s    -13.970922    2.096432
     2p    -10.063292    1.800000
  9     Mon Apr 23 13:58:50 CEST 2018   EN: 3.980 GM2: 0.532  GM3: 0.1426  RAES: 2.40
     2s    -23.458179    2.416361
     2p    -15.746583    2.308399
 17     Mon Apr 23 14:09:22 CEST 2018   EN: 3.160 GM2: 0.249  GM3: 0.1495  RAES: 2.50
     3s    -29.278781    2.485265
     3p    -12.673758    2.199650
     3d     -0.240338    2.476089

           ------------------------------------------------- 
          |        Self-Consistent Charge Iterations        |
           ------------------------------------------------- 

          ...................................................
          :                      SETUP                      :
          :.................................................:
          :  # basis functions                  21          :
          :  # atomic orbitals                  20          :
          :  # shells                           10          :
          :  # electrons                        22          :
          :  max. iterations                   250          :
          :  Hamiltonian                  GFN2-xTB          :
          :  restarted?                      false          :
          :  GBSA solvation                  false          :
          :  PC potential                    false          :
          :  electronic temp.          300.0000000     K    :
          :  accuracy                    1.0000000          :
          :  -> integral cutoff          0.2500000E+02      :
          :  -> integral neglect         0.1000000E-07      :
          :  -> SCF convergence          0.1000000E-05 Eh   :
          :  -> wf. convergence          0.1000000E-03 e    :
          :  Broyden damping             0.4000000          :
          ...................................................

 iter      E             dE          RMSdq      gap      omega  full diag
   1    -13.1211226 -0.131211E+02  0.572E+00    5.37       0.0  T
   2    -13.1859084 -0.647858E-01  0.325E+00    2.14       1.0  T
   3    -13.1869932 -0.108484E-02  0.176E+00    1.10       1.0  T
   4    -11.8357167  0.135128E+01  0.100E+01    0.00       1.0  T
   5    -11.8326700  0.304669E-02  0.101E+01    0.00       1.0  T
   6    -11.8360308 -0.336075E-02  0.998E+00    0.00       1.0  T
   7    -11.8296529  0.637785E-02  0.102E+01    0.00       1.0  T
   8    -11.8296145  0.384085E-04  0.102E+01    0.00       1.0  T
   9    -11.8070269  0.225876E-01  0.109E+01    0.00       1.0  T
  10      2.8315045  0.146385E+02  0.327E+01    0.12       1.0  T
  11    -11.7892023 -0.146207E+02  0.113E+01    0.00       1.0  T
  12      2.8490846  0.146383E+02  0.328E+01    0.13       1.0  T
  13      2.8727634  0.236788E-01  0.330E+01    0.13       1.0  T
  14    -11.8127366 -0.146855E+02  0.106E+01    0.01       1.0  T
  15    -11.8160035 -0.326698E-02  0.107E+01    0.01       1.0  T
  16    -13.1832491 -0.136725E+01  0.945E-01    0.17       1.0  T
  17    -11.7879256  0.139532E+01  0.112E+01    0.03       1.0  T
  18    -11.7881641 -0.238476E-03  0.110E+01    0.02       1.0  T
  19    -13.1819921 -0.139383E+01  0.960E-01    0.15       1.0  T
  20    -13.1806770  0.131513E-02  0.126E+00    1.15       1.0  T
  21    -13.1834436 -0.276666E-02  0.968E-01    0.44       1.0  T
  22    -13.1829536  0.490034E-03  0.106E+00    0.87       1.0  T
  23    -13.1834766 -0.522974E-03  0.183E+00    0.99       1.0  T
  24    -13.1826200  0.856512E-03  0.267E+00    2.03       1.0  T
  25    -13.1827543 -0.134238E-03  0.241E+00    1.76       1.0  T
  26    -13.1831891 -0.434854E-03  0.190E+00    1.11       1.0  T
  27    -13.1835391 -0.349980E-03  0.160E+00    0.58       1.0  T
  28    -13.1859318 -0.239269E-02  0.125E+00    0.18       1.0  T
  29    -11.8702793  0.131565E+01  0.952E+00    0.02       1.0  T
  30    -13.1766551 -0.130638E+01  0.184E+00    2.22       1.0  T
  31    -13.1816536 -0.499849E-02  0.143E+00    0.53       1.0  T
  32    -11.8845433  0.129711E+01  0.942E+00    0.01       1.0  T
  33    -13.1742580 -0.128971E+01  0.191E+00    2.56       1.0  T
  34    -13.1828288 -0.857080E-02  0.123E+00    0.36       1.0  T
  35    -11.8742266  0.130860E+01  0.945E+00    0.00       1.0  T
  36    -13.1734575 -0.129923E+01  0.196E+00    2.89       1.0  T
  37    -13.1830893 -0.963184E-02  0.118E+00    0.36       1.0  T
  38    -13.1852026 -0.211330E-02  0.104E+00    0.22       1.0  T
  39    -13.1839031  0.129953E-02  0.109E+00    0.55       1.0  T
  40    -11.8810493  0.130285E+01  0.949E+00    0.00       1.0  T
  41    -13.1787743 -0.129772E+01  0.154E+00    1.61       1.0  T
  42    -13.1849772 -0.620295E-02  0.874E-01    0.46       1.0  T
  43    -11.8620974  0.132288E+01  0.959E+00    0.00       1.0  T
  44    -13.1793394 -0.131724E+01  0.150E+00    1.70       1.0  T
  45    -13.1854881 -0.614869E-02  0.781E-01    0.45       1.0  T
  46    -11.9223763  0.126311E+01  0.938E+00    0.00       1.0  T
  47    -13.1803453 -0.125797E+01  0.143E+00    1.77       1.0  T
  48    -13.1858991 -0.555375E-02  0.701E-01    0.48       1.0  T
  49    -12.6192246  0.566674E+00  0.641E+00    0.01       1.0  T
  50    -13.1837689 -0.564544E+00  0.105E+00    1.30       1.0  T
  51    -13.1877027 -0.393382E-02  0.387E-01    0.24       1.0  T
  52    -13.1328981  0.548047E-01  0.206E+00    0.09       1.0  T
  53    -13.1868223 -0.539243E-01  0.456E-01    0.41       1.0  T
  54    -12.2107779  0.976044E+00  0.835E+00    0.00       1.0  T
  55    -13.1835939 -0.972816E+00  0.110E+00    1.38       1.0  T
  56    -13.1865559 -0.296206E-02  0.542E-01    0.54       1.0  T
  57    -13.1881120 -0.155611E-02  0.151E-01    0.23       1.0  T
  58    -13.1881946 -0.825647E-04  0.525E-02    0.21       1.0  T
  59    -13.1794143  0.878029E-02  0.840E-01    0.14       1.0  T
  60    -13.1877482 -0.833394E-02  0.224E-01    0.27       1.0  T
  61    -13.1191577  0.685905E-01  0.232E+00    0.09       1.0  T
  62    -13.1867843 -0.676266E-01  0.471E-01    0.53       1.0  T
  63    -13.1831468  0.363752E-02  0.632E-01    0.15       1.0  T
  64    -13.1874975 -0.435071E-02  0.271E-01    0.31       1.0  T
  65    -13.1720914  0.154061E-01  0.113E+00    0.12       1.0  T
  66    -13.1872890 -0.151976E-01  0.319E-01    0.35       1.0  T
  67    -13.1807225  0.656652E-02  0.774E-01    0.14       1.0  T
  68    -13.1874966 -0.677413E-02  0.270E-01    0.31       1.0  T
  69    -13.1833761  0.412052E-02  0.624E-01    0.15       1.0  T
  70    -13.1876997 -0.432365E-02  0.223E-01    0.28       1.0  T
  71    -13.1852809  0.241883E-02  0.487E-01    0.16       1.0  T
  72    -13.1878935 -0.261257E-02  0.172E-01    0.26       1.0  T
  73    -13.1865044  0.138913E-02  0.373E-01    0.17       1.0  T
  74    -13.1880539 -0.154954E-02  0.119E-01    0.24       1.0  T
  75    -13.1872602  0.793704E-03  0.278E-01    0.18       1.0  T
  76    -13.1881560 -0.895777E-03  0.685E-02    0.23       1.0  T
  77    -13.1877042  0.451754E-03  0.203E-01    0.19       1.0  T
  78    -13.1881983 -0.494069E-03  0.263E-02    0.22       1.6  T
  79    -13.1879483  0.249967E-03  0.145E-01    0.19       1.0  T
  80    -13.1882003 -0.251964E-03  0.180E-02    0.21       2.3  T
  81    -13.1880724  0.127876E-03  0.104E-01    0.20       1.0  T
  82    -13.1881844 -0.112027E-03  0.396E-02    0.21       1.0  T
  83    -13.1881342  0.502459E-04  0.755E-02    0.20       1.0  T
  84    -13.1881758 -0.415642E-04  0.477E-02    0.21       1.0  T
  85    -13.1881600  0.157839E-04  0.598E-02    0.20       1.0  T
  86    -13.1881755 -0.155186E-04  0.479E-02    0.21       1.0  T
  87    -13.1881726  0.290338E-05  0.504E-02    0.21       1.0  T
  88    -13.1881790 -0.643857E-05  0.448E-02    0.21       1.0  T
  89    -13.1881802 -0.116354E-05  0.438E-02    0.21       1.0  T
  90    -13.1881885 -0.828395E-05  0.351E-02    0.21       1.2  T
  91    -13.1881918 -0.333073E-05  0.310E-02    0.21       1.3  T
  92    -13.1881967 -0.487406E-05  0.236E-02    0.21       1.7  T
  93    -13.1881992 -0.254375E-05  0.186E-02    0.21       2.2  T
  94    -13.1882016 -0.239180E-05  0.123E-02    0.21       3.3  T
  95    -13.1882027 -0.112198E-05  0.757E-03    0.21       5.4  T
  96    -13.1882034 -0.609209E-06  0.263E-03    0.21      15.5  T
  97    -13.1882034 -0.786455E-07  0.652E-04    0.22      62.6  T
  98    -13.1882034 -0.427481E-08  0.270E-04    0.22     151.2  T

   *** convergence criteria satisfied after 98 iterations ***

         #    Occupation            Energy/Eh            Energy/eV
      -------------------------------------------------------------
         1        2.0000           -0.9497135             -25.8430
       ...           ...                  ...                  ...
         5        2.0000           -0.3889410             -10.5836
         6        2.0000           -0.3233233              -8.7981
         7        2.0000           -0.3092804              -8.4159
         8        2.0000           -0.3092727              -8.4157
         9        1.9861           -0.0620256              -1.6878
        10        1.9816           -0.0617588              -1.6805
        11        1.9816           -0.0617586              -1.6805 (HOMO)
        12        0.0507           -0.0538446              -1.4652 (LUMO)
        13                          0.1289894               3.5100
        14                          0.1289923               3.5101
        15                          0.1333214               3.6279
        16                          0.1333242               3.6279
       ...                                ...                  ...
        20                          0.3281091               8.9283
      -------------------------------------------------------------
                  HL-Gap            0.0079141 Eh            0.2154 eV
             Fermi-level           -0.0573121 Eh           -1.5595 eV

 SCC (total)                   0 d,  0 h,  0 min,  0.016 sec
 SCC setup                      ...        0 min,  0.000 sec (  0.444%)
 Dispersion                     ...        0 min,  0.000 sec (  0.094%)
 integral evaluation            ...        0 min,  0.001 sec (  4.754%)
 zeroth order Hamiltonian       ...        0 min,  0.000 sec (  0.108%)
 iterations                     ...        0 min,  0.014 sec ( 89.319%)
 molecular gradient             ...        0 min,  0.001 sec (  4.715%)
 printout                       ...        0 min,  0.000 sec (  0.408%)

         :::::::::::::::::::::::::::::::::::::::::::::::::::::
         ::                     SUMMARY                     ::
         :::::::::::::::::::::::::::::::::::::::::::::::::::::
         :: total energy              -6.095732756704 Eh    ::
         :: gradient norm             23.732039722223 Eh/a0 ::
         :: HOMO-LUMO gap              0.215353224866 eV    ::
         ::.................................................::
         :: SCC energy               -13.188203438760 Eh    ::
         :: -> isotropic ES            0.262821447017 Eh    ::
         :: -> anisotropic ES         -0.000711031419 Eh    ::
         :: -> anisotropic XC          0.000752562839 Eh    ::
         :: -> dispersion             -0.001619310471 Eh    ::
         :: repulsion energy           0.056623638086 Eh    ::
         :: add. restraining           7.035848793845 Eh    ::
         :::::::::::::::::::::::::::::::::::::::::::::::::::::

      ----------------------------------------------------------- 
     |                   =====================                   |
     |                        A N C O P T                        |
     |                   =====================                   |
     |               Approximate Normal Coordinate               |
     |                Rational Function Optimizer                |
      ----------------------------------------------------------- 

          ...................................................
          :                      SETUP                      :
          :.................................................:
          :   optimization level            normal          :
          :   max. optcycles                   200          :
          :   ANC micro-cycles                  20          :
          :   degrees of freedom                12          :
          :.................................................:
          :   RF solver                   davidson          :
          :   write xtbopt.log                true          :
          :   linear?                        false          :
          :   energy convergence         0.5000000E-05 Eh   :
          :   grad. convergence          0.1000000E-02 Eh/α :
          :   maximium RF displ.         1.0000000          :
          :   Hlow (freq-cutoff)         0.1000000E-01      :
          :   Hmax (freq-cutoff)         5.0000000          :
          :   S6 in model hess.         20.0000000          :
          ...................................................

generating ANC from model Hessian ...
Using Lindh-Hessian (1995)
 Shifting diagonal of input Hessian by    8.75158446042500     
 Lowest  eigenvalues of input Hessian
    0.010000    0.010018   -0.000000   -0.000000   -0.000000    0.000000
    0.000000    0.000000    8.783217    8.783220    8.868143    8.868153
    8.874206    9.229261    9.500580    9.500627   28.961830   69.613841
 Highest eigenvalues
    8.874206    9.229261    9.500580    9.500627   28.961830   69.613841
 

........................................................................
.............................. CYCLE    1 ..............................
........................................................................
   1    -13.1882034 -0.131882E+02  0.139E-05    0.22       0.0  T
   2    -13.1882034  0.216911E-10  0.451E-05    0.22     905.7  T
   3    -13.1882034 -0.223146E-10  0.811E-06    0.22    5033.1  T
     SCC iter.                  ...        0 min,  0.000 sec
     gradient                   ...        0 min,  0.001 sec
 * total energy  :    -6.0957328 Eh     change        0.3057409E-08 Eh
   gradient norm :    23.7320547 Eh/α   predicted     0.0000000E+00 (-100.00%)
   displ. norm   :     0.9001904 α      lambda       -0.2136337E+02
   maximum displ.:     0.7836490 α      in ANC's #3, #12, #6, ...

........................................................................
.............................. CYCLE    2 ..............................
........................................................................
   1    -12.1680568 -0.121681E+02  0.111E+01    0.00       0.0  T
   2    -12.8297998 -0.661743E+00  0.884E+00    5.10       1.0  T
   3    -13.1008976 -0.271098E+00  0.393E+00    2.34       1.0  T
   4    -13.1348702 -0.339726E-01  0.250E+00    1.44       1.0  T
   5    -12.1949603  0.939910E+00  0.939E+00    0.00       1.0  T
   6    -13.1118309 -0.916871E+00  0.369E+00    2.27       1.0  T
   7    -13.1200057 -0.817481E-02  0.309E+00    2.25       1.0  T
   8    -13.1223181 -0.231243E-02  0.290E+00    2.09       1.0  T
   9      2.5001451  0.156225E+02  0.339E+01    0.06       1.0  T
  10      2.5007359  0.590727E-03  0.339E+01    0.06       1.0  T
  11      2.4690476 -0.316883E-01  0.331E+01    0.07       1.0  T
  12      2.4652559 -0.379170E-02  0.329E+01    0.07       1.0  T
  13    -12.1423915 -0.146076E+02  0.102E+01    0.00       1.0  T
  14    -12.6274088 -0.485017E+00  0.137E+01    0.42       1.0  T
  15    -12.6378448 -0.104359E-01  0.136E+01    0.43       1.0  T
  16    -13.1181779 -0.480333E+00  0.521E+00    1.49       1.0  T
  17    -12.9774865  0.140691E+00  0.873E+00    0.95       1.0  T
  18    -12.9825128 -0.502629E-02  0.852E+00    0.96       1.0  T
  19    -12.9821955  0.317349E-03  0.826E+00    0.96       1.0  T
  20    -12.9859139 -0.371844E-02  0.781E+00    0.98       1.0  T
  21    -12.9751501  0.107638E-01  0.790E+00    0.97       1.0  T
  22    -13.0054141 -0.302640E-01  0.752E+00    1.02       1.0  T
  23    -13.0696372 -0.642231E-01  0.646E+00    1.19       1.0  T
  24    -13.1110250 -0.413879E-01  0.534E+00    1.44       1.0  T
  25    -13.1311171 -0.200920E-01  0.339E+00    1.69       1.0  T
  26    -13.1351845 -0.406746E-02  0.216E+00    1.08       1.0  T
  27    -12.1757328  0.959452E+00  0.970E+00    0.00       1.0  T
  28    -13.1064794 -0.930747E+00  0.624E+00    1.78       1.0  T
  29    -13.1314956 -0.250162E-01  0.278E+00    2.05       1.0  T
  30    -13.1472459 -0.157503E-01  0.165E+00    0.24       1.0  T
  31    -12.1768775  0.970368E+00  0.944E+00    0.00       1.0  T
  32    -13.0852998 -0.908422E+00  0.614E+00    2.20       1.0  T
  33    -13.1391752 -0.538754E-01  0.219E+00    0.22       1.0  T
  34    -12.1756150  0.963560E+00  0.939E+00    0.00       1.0  T
  35    -13.0766346 -0.901020E+00  0.582E+00    2.43       1.0  T
  36    -12.1811175  0.895517E+00  0.923E+00    0.00       1.0  T
  37    -13.0201281 -0.839011E+00  0.712E+00    2.96       1.0  T
  38    -13.0772064 -0.570783E-01  0.395E+00    0.74       1.0  T
  39    -12.1762498  0.900957E+00  0.961E+00    0.00       1.0  T
  40    -13.0546137 -0.878364E+00  0.555E+00    2.94       1.0  T
  41    -12.1813897  0.873224E+00  0.933E+00    0.00       1.0  T
  42    -13.0148945 -0.833505E+00  0.675E+00    3.26       1.0  T
  43    -13.0643131 -0.494186E-01  0.434E+00    1.83       1.0  T
  44    -12.8619568  0.202356E+00  0.521E+00    0.03       1.0  T
  45    -13.0199619 -0.158005E+00  0.630E+00    3.40       1.0  T
  46    -13.0705825 -0.506206E-01  0.422E+00    2.24       1.0  T
  47    -13.1062104 -0.356279E-01  0.312E+00    0.46       1.0  T
  48    -12.1754456  0.930765E+00  0.942E+00    0.00       1.0  T
  49    -13.0438861 -0.868441E+00  0.625E+00    2.92       1.0  T
  50    -13.1143702 -0.704841E-01  0.327E+00    2.48       1.0  T
  51    -13.1266293 -0.122591E-01  0.298E+00    2.24       1.0  T
  52    -13.1285241 -0.189481E-02  0.294E+00    2.18       1.0  T
  53    -13.1302586 -0.173454E-02  0.283E+00    2.11       1.0  T
  54    -13.1324267 -0.216811E-02  0.255E+00    2.08       1.0  T
  55    -13.1360745 -0.364782E-02  0.201E+00    0.68       1.0  T
  56    -12.1698502  0.966224E+00  0.963E+00    0.00       1.0  T
  57    -13.1053028 -0.935453E+00  0.476E+00    2.25       1.0  T
  58    -13.1319889 -0.266861E-01  0.261E+00    2.09       1.0  T
  59    -13.1364517 -0.446288E-02  0.195E+00    0.42       1.0  T
  60    -12.1678868  0.968565E+00  0.973E+00    0.00       1.0  T
  61    -13.1098194 -0.941933E+00  0.448E+00    2.23       1.0  T
  62    -13.1314364 -0.216171E-01  0.260E+00    2.12       1.0  T
  63    -12.4295518  0.701885E+00  0.802E+00    0.00       1.0  T
  64    -13.0778862 -0.648334E+00  0.543E+00    2.58       1.0  T
  65    -13.1244736 -0.465875E-01  0.290E+00    2.25       1.0  T
  66    -13.1499065 -0.254329E-01  0.158E+00    0.21       1.0  T
  67    -12.1712260  0.978681E+00  0.955E+00    0.00       1.0  T
  68    -13.0996172 -0.928391E+00  0.477E+00    2.36       1.0  T
  69    -13.1294889 -0.298717E-01  0.268E+00    2.16       1.0  T
  70    -13.1707188 -0.412298E-01  0.827E-01    0.10       1.0  T
  71    -13.1293294  0.413894E-01  0.252E+00    1.64       1.0  T
  72    -12.1737005  0.955629E+00  0.944E+00    0.00       1.0  T
  73    -13.0916764 -0.917976E+00  0.503E+00    2.44       1.0  T
  74    -13.1278461 -0.361698E-01  0.276E+00    2.19       1.0  T
  75    -13.1379407 -0.100945E-01  0.192E+00    0.31       1.0  T
  76    -12.1696760  0.968265E+00  0.962E+00    0.00       1.0  T
  77    -13.1075741 -0.937898E+00  0.439E+00    2.30       1.0  T
  78    -13.1297609 -0.221868E-01  0.264E+00    2.16       1.0  T
  79    -13.1694882 -0.397273E-01  0.877E-01    0.09       1.0  T
  80    -13.1284173  0.410709E-01  0.258E+00    1.75       1.0  T
  81    -12.1744634  0.953954E+00  0.940E+00    0.00       1.0  T
  82    -13.0898050 -0.915342E+00  0.506E+00    2.47       1.0  T
  83    -13.1267655 -0.369605E-01  0.281E+00    2.21       1.0  T
  84    -13.1357095 -0.894395E-02  0.200E+00    0.36       1.0  T
  85    -12.1700624  0.965647E+00  0.960E+00    0.00       1.0  T
  86    -13.1057711 -0.935709E+00  0.445E+00    2.32       1.0  T
  87    -13.1288132 -0.230421E-01  0.271E+00    2.17       1.0  T
  88    -13.1501296 -0.213164E-01  0.159E+00    0.21       1.0  T
  89    -12.1732320  0.976898E+00  0.944E+00    0.00       1.0  T
  90    -13.0948788 -0.921647E+00  0.487E+00    2.43       1.0  T
  91    -13.1266713 -0.317925E-01  0.283E+00    2.21       1.0  T
  92    -13.1350429 -0.837162E-02  0.202E+00    0.38       1.0  T
  93    -12.1705832  0.964460E+00  0.958E+00    0.00       1.0  T
  94    -13.1059100 -0.935327E+00  0.441E+00    2.33       1.0  T
  95    -13.1283493 -0.224393E-01  0.272E+00    2.18       1.0  T
  96    -13.1582756 -0.299263E-01  0.133E+00    0.18       1.0  T
  97    -12.1775481  0.980727E+00  0.929E+00    0.00       1.0  T
  98    -13.0776438 -0.900096E+00  0.552E+00    2.56       1.0  T
  99    -13.1235031 -0.458593E-01  0.302E+00    2.25       1.0  T
 100    -13.1334516 -0.994853E-02  0.212E+00    0.60       1.0  T
 101    -12.1716001  0.961852E+00  0.953E+00    0.00       1.0  T
 102    -13.1018550 -0.930255E+00  0.462E+00    2.36       1.0  T
 103    -13.1277186 -0.258636E-01  0.279E+00    2.19       1.0  T
 104    -13.1380954 -0.103768E-01  0.192E+00    0.30       1.0  T
 105    -12.1712551  0.966840E+00  0.955E+00    0.00       1.0  T
 106    -13.1033553 -0.932100E+00  0.454E+00    2.35       1.0  T
 107    -13.1278205 -0.244651E-01  0.277E+00    2.19       1.0  T
 108    -13.1506019 -0.227814E-01  0.157E+00    0.21       1.0  T
 109    -12.1750072  0.975595E+00  0.937E+00    0.00       1.0  T
 110    -13.0862801 -0.911273E+00  0.523E+00    2.49       1.0  T
 111    -13.1251664 -0.388863E-01  0.294E+00    2.22       1.0  T
 112    -13.1344482 -0.928183E-02  0.205E+00    0.43       1.0  T
 113    -12.1710943  0.963354E+00  0.956E+00    0.00       1.0  T
 114    -13.1044123 -0.933318E+00  0.449E+00    2.34       1.0  T
 115    -13.1279618 -0.235495E-01  0.276E+00    2.18       1.0  T
 116    -13.1578231 -0.298613E-01  0.134E+00    0.18       1.0  T
 117    -12.1816664  0.976157E+00  0.924E+00    0.00       1.0  T
 118    -13.0678677 -0.886201E+00  0.588E+00    2.63       1.0  T
 119    -13.1223993 -0.545316E-01  0.309E+00    2.26       1.0  T
 120    -13.1338395 -0.114403E-01  0.210E+00    0.57       1.0  T
 121    -12.1718235  0.962016E+00  0.952E+00    0.00       1.0  T
 122    -13.1007416 -0.928918E+00  0.468E+00    2.37       1.0  T
 123    -13.1276668 -0.269252E-01  0.280E+00    2.18       1.0  T
 124    -13.1396010 -0.119342E-01  0.187E+00    0.28       1.0  T
 125    -12.1719431  0.967658E+00  0.951E+00    0.00       1.0  T
 126    -13.1004002 -0.928457E+00  0.468E+00    2.38       1.0  T
 127    -13.1276931 -0.272929E-01  0.278E+00    2.19       1.0  T
 128    -13.1648861 -0.371931E-01  0.106E+00    0.16       1.0  T
 129    -13.1610096  0.387649E-02  0.123E+00    0.17       1.0  T
 130    -12.1767001  0.984310E+00  0.931E+00    0.00       1.0  T
 131    -13.0782840 -0.901584E+00  0.549E+00    2.56       1.0  T
 132    -13.1258656 -0.475816E-01  0.285E+00    2.22       1.0  T
 133    -13.0699452  0.559204E-01  0.311E+00    0.05       1.0  T
 134    -13.1150071 -0.450619E-01  0.361E+00    2.31       1.0  T
 135    -13.1346229 -0.196158E-01  0.204E+00    0.40       1.0  T
 136    -12.1695844  0.965038E+00  0.963E+00    0.00       1.0  T
 137    -13.1057947 -0.936210E+00  0.447E+00    2.33       1.0  T
 138    -13.1286098 -0.228151E-01  0.274E+00    2.17       1.0  T
 139    -13.1749993 -0.463895E-01  0.470E-01    0.13       1.0  T
 140    -13.1339941  0.410052E-01  0.207E+00    0.45       1.0  T
 141    -12.1692445  0.964750E+00  0.965E+00    0.00       1.0  T
 142    -13.1058577 -0.936613E+00  0.446E+00    2.33       1.0  T
 143    -13.1283050 -0.224473E-01  0.275E+00    2.18       1.0  T
 144    -13.1530750 -0.247700E-01  0.150E+00    0.08       1.0  T
 145    -13.1260366  0.270384E-01  0.279E+00    2.23       1.0  T
 146    -12.1748876  0.951149E+00  0.937E+00    0.00       1.0  T
 147    -13.0874811 -0.912594E+00  0.515E+00    2.49       1.0  T
 148    -13.1271569 -0.396758E-01  0.277E+00    2.21       1.0  T
 149    -13.1344447 -0.728787E-02  0.198E+00    0.07       1.0  T
 150    -13.1242403  0.102044E-01  0.295E+00    2.24       1.0  T
 151    -12.1794469  0.944793E+00  0.926E+00    0.00       1.0  T
 152    -13.0803268 -0.900880E+00  0.538E+00    2.55       1.0  T
 153    -13.1268961 -0.465693E-01  0.277E+00    2.21       1.0  T
 154    -13.1617657 -0.348696E-01  0.118E+00    0.17       1.0  T
 155    -12.1771497  0.984616E+00  0.930E+00    0.00       1.0  T
 156    -13.0839191 -0.906769E+00  0.529E+00    2.52       1.0  T
 157    -13.1270375 -0.431184E-01  0.280E+00    2.20       1.0  T
 158    -13.1361099 -0.907241E-02  0.198E+00    0.36       1.0  T
 159    -12.1715992  0.964511E+00  0.952E+00    0.00       1.0  T
 160    -13.0991829 -0.927584E+00  0.478E+00    2.38       1.0  T
 161    -13.1275353 -0.283525E-01  0.284E+00    2.18       1.0  T
 162    -13.1344688 -0.693346E-02  0.206E+00    0.50       1.0  T
 163    -12.1713744  0.963094E+00  0.954E+00    0.00       1.0  T
 164    -13.0994521 -0.928078E+00  0.477E+00    2.38       1.0  T
 165    -13.1273703 -0.279182E-01  0.284E+00    2.18       1.0  T
 166    -13.1355989 -0.822860E-02  0.200E+00    0.37       1.0  T
 167    -12.1707599  0.964839E+00  0.957E+00    0.00       1.0  T
 168    -13.1004271 -0.929667E+00  0.473E+00    2.37       1.0  T
 169    -13.1272388 -0.268117E-01  0.284E+00    2.19       1.0  T
 170    -13.1406193 -0.133805E-01  0.185E+00    0.27       1.0  T
 171    -12.1712101  0.969409E+00  0.955E+00    0.00       1.0  T
 172    -13.0989924 -0.927782E+00  0.477E+00    2.39       1.0  T
 173    -13.1271292 -0.281368E-01  0.282E+00    2.19       1.0  T
 174    -13.1611584 -0.340292E-01  0.122E+00    0.17       1.0  T
 175    -12.1761395  0.985019E+00  0.933E+00    0.00       1.0  T
 176    -13.0847414 -0.908602E+00  0.526E+00    2.51       1.0  T
 177    -13.1265253 -0.417839E-01  0.280E+00    2.21       1.0  T
 178    -13.1528445 -0.263191E-01  0.151E+00    0.08       1.0  T
 179    -13.1258734  0.269710E-01  0.281E+00    2.22       1.0  T
 180    -12.1771049  0.948769E+00  0.930E+00    0.00       1.0  T
 181    -13.0839219 -0.906817E+00  0.527E+00    2.52       1.0  T
 182    -13.1269412 -0.430194E-01  0.278E+00    2.21       1.0  T
 183    -13.1603207 -0.333794E-01  0.124E+00    0.17       1.0  T
 184    -12.1776384  0.982682E+00  0.929E+00    0.00       1.0  T
 185    -13.0834643 -0.905826E+00  0.530E+00    2.52       1.0  T
 186    -13.1268273 -0.433630E-01  0.281E+00    2.20       1.0  T
 187    -13.1376161 -0.107888E-01  0.193E+00    0.31       1.0  T
 188    -12.1721509  0.965465E+00  0.949E+00    0.00       1.0  T
 189    -13.0974113 -0.925260E+00  0.484E+00    2.40       1.0  T
 190    -13.1273097 -0.298984E-01  0.284E+00    2.18       1.0  T
 191    -13.1347342 -0.742446E-02  0.204E+00    0.45       1.0  T
 192    -12.1715343  0.963200E+00  0.953E+00    0.00       1.0  T
 193    -13.0991887 -0.927654E+00  0.477E+00    2.38       1.0  T
 194    -13.1273878 -0.281991E-01  0.283E+00    2.19       1.0  T
 195    -13.1371239 -0.973609E-02  0.195E+00    0.32       1.0  T
 196    -12.1712499  0.965874E+00  0.954E+00    0.00       1.0  T
 197    -13.0997085 -0.928459E+00  0.474E+00    2.38       1.0  T
 198    -13.1274057 -0.276972E-01  0.281E+00    2.19       1.0  T
 199    -13.1522949 -0.248892E-01  0.152E+00    0.20       1.0  T
 200    -12.1740250  0.978270E+00  0.941E+00    0.00       1.0  T
 201    -13.0915496 -0.917525E+00  0.502E+00    2.45       1.0  T
 202    -13.1271504 -0.356007E-01  0.278E+00    2.20       1.0  T
 203    -13.1765447 -0.493943E-01  0.335E-01    0.11       1.0  T
 204    -13.1304799  0.460648E-01  0.239E+00    1.27       1.0  T
 205    -12.1726110  0.957869E+00  0.948E+00    0.00       1.0  T
 206    -13.0962751 -0.923664E+00  0.483E+00    2.42       1.0  T
 207    -13.1276930 -0.314179E-01  0.276E+00    2.19       1.0  T
 208    -13.1769409 -0.492480E-01  0.237E-01    0.12       1.0  T
 209    -13.1329573  0.439837E-01  0.215E+00    0.62       1.0  T
 210    -12.1708097  0.962148E+00  0.957E+00    0.00       1.0  T
 211    -13.1009791 -0.930169E+00  0.466E+00    2.38       1.0  T
 212    -13.1278243 -0.268452E-01  0.276E+00    2.19       1.0  T
 213    -13.1749082 -0.470839E-01  0.484E-01    0.13       1.0  T
 214    -13.1425721  0.323362E-01  0.181E+00    0.25       1.0  T
 215    -12.1709782  0.971594E+00  0.956E+00    0.00       1.0  T
 216    -13.0999289 -0.928951E+00  0.469E+00    2.39       1.0  T
 217    -13.1278734 -0.279446E-01  0.274E+00    2.19       1.0  T
 218    -13.1103311  0.175423E-01  0.246E+00    0.06       1.0  T
 219    -13.1233746 -0.130434E-01  0.301E+00    2.25       1.0  T
 220    -12.1845675  0.938807E+00  0.921E+00    0.00       1.0  T
 221    -13.0835715 -0.899004E+00  0.521E+00    2.54       1.0  T
 222    -13.1278088 -0.442373E-01  0.266E+00    2.03       1.0  T
 223    -12.8802616  0.247547E+00  0.511E+00    0.03       1.0  T
 224    -13.1099325 -0.229671E+00  0.393E+00    2.35       1.0  T
 225    -13.1315636 -0.216311E-01  0.231E+00    1.12       1.0  T
 226    -12.1758080  0.955756E+00  0.934E+00    0.00       1.0  T
 227    -13.0902253 -0.914417E+00  0.505E+00    2.47       1.0  T
 228    -13.1273355 -0.371102E-01  0.280E+00    2.19       1.0  T
 229    -13.1342193 -0.688376E-02  0.208E+00    0.56       1.0  T
 230    -12.1737472  0.960472E+00  0.942E+00    0.00       1.0  T
 231    -13.0940739 -0.920327E+00  0.495E+00    2.43       1.0  T
 232    -13.1270936 -0.330198E-01  0.285E+00    2.19       1.0  T
 233    -13.1339162 -0.682255E-02  0.211E+00    0.62       1.0  T
 234    -12.1734842  0.960432E+00  0.943E+00    0.00       1.0  T
 235    -13.0943253 -0.920841E+00  0.495E+00    2.42       1.0  T
 236    -13.1271455 -0.328202E-01  0.284E+00    2.19       1.0  T
 237    -13.1343350 -0.718951E-02  0.206E+00    0.50       1.0  T
 238    -12.1726241  0.961711E+00  0.947E+00    0.00       1.0  T
 239    -13.0954814 -0.922857E+00  0.492E+00    2.41       1.0  T
 240    -13.1271106 -0.316292E-01  0.284E+00    2.19       1.0  T
 241    -13.1349307 -0.782009E-02  0.203E+00    0.41       1.0  T
 242    -12.1719325  0.962998E+00  0.950E+00    0.00       1.0  T
 243    -13.0963605 -0.924428E+00  0.489E+00    2.40       1.0  T
 244    -13.1271058 -0.307453E-01  0.283E+00    2.19       1.0  T
 245    -13.1372263 -0.101205E-01  0.195E+00    0.31       1.0  T
 246    -12.1715558  0.965671E+00  0.953E+00    0.00       1.0  T
 247    -13.0968696 -0.925314E+00  0.487E+00    2.40       1.0  T
 248    -13.1271572 -0.302877E-01  0.282E+00    2.19       1.0  T
 249    -13.1479611 -0.208039E-01  0.165E+00    0.22       1.0  T
 250    -12.1727979  0.975163E+00  0.946E+00    0.00       1.0  T
     SCC iter.                  ...        0 min,  0.114 sec
     gradient                   ...        0 min,  0.001 sec
 * total energy  :    -6.1526045 Eh     change       -0.5687176E-01 Eh
   gradient norm :    26.3077455 Eh/α   predicted    -0.1933751E+02 (*******%)
   displ. norm   :     0.5592787 α      lambda       -0.1229991E+02
   maximum displ.:     0.4273984 α      in ANC's #3, #12, #7, ...

........................................................................
.............................. CYCLE    3 ..............................
........................................................................
   1    -13.1054040 -0.131054E+02  0.575E+00    3.01       0.0  T
   2    -13.1088598 -0.345579E-02  0.500E+00    1.91       1.0  T
   3    -13.1471646 -0.383049E-01  0.267E+00    1.09       1.0  T
   4    -12.0893882  0.105778E+01  0.102E+01    0.00       1.0  T
   5    -12.1073558 -0.179675E-01  0.947E+00    0.00       1.0  T
   6    -13.0553626 -0.948007E+00  0.323E+00    0.04       1.0  T
   7    -13.1233802 -0.680176E-01  0.318E+00    3.10       1.0  T
   8    -13.1196283  0.375189E-02  0.342E+00    3.11       1.0  T
   9    -13.1212472 -0.161897E-02  0.364E+00    3.01       1.0  T
  10    -13.1314713 -0.102241E-01  0.302E+00    2.92       1.0  T
  11    -13.1335108 -0.203946E-02  0.276E+00    2.93       1.0  T
  12    -13.1350673 -0.155657E-02  0.263E+00    2.89       1.0  T
  13    -13.1381005 -0.303314E-02  0.234E+00    1.99       1.0  T
  14    -13.1419226 -0.382213E-02  0.194E+00    0.74       1.0  T
  15    -12.1128661  0.102906E+01  0.912E+00    0.00       1.0  T
  16    -13.1148727 -0.100201E+01  0.421E+00    2.98       1.0  T
  17    -13.1307372 -0.158644E-01  0.305E+00    2.93       1.0  T
  18    -13.1415307 -0.107935E-01  0.205E+00    1.17       1.0  T
  19    -12.1150177  0.102651E+01  0.899E+00    0.00       1.0  T
  20    -13.1038499 -0.988832E+00  0.478E+00    3.03       1.0  T
  21    -13.1319173 -0.280674E-01  0.303E+00    2.91       1.0  T
  22    -13.1456869 -0.137696E-01  0.173E+00    0.32       1.0  T
  23    -12.1109869  0.103470E+01  0.916E+00    0.00       1.0  T
  24    -13.0984642 -0.987477E+00  0.505E+00    3.06       1.0  T
  25    -13.1340186 -0.355544E-01  0.289E+00    2.89       1.0  T
  26    -12.2330518  0.900967E+00  0.838E+00    0.00       1.0  T
  27    -13.0976757 -0.864624E+00  0.502E+00    3.07       1.0  T
  28    -13.1337830 -0.361073E-01  0.289E+00    2.89       1.0  T
  29    -13.1437943 -0.100113E-01  0.183E+00    0.56       1.0  T
  30    -12.1114049  0.103239E+01  0.914E+00    0.00       1.0  T
  31    -13.0946447 -0.983240E+00  0.521E+00    3.08       1.0  T
  32    -13.1347374 -0.400926E-01  0.284E+00    2.88       1.0  T
  33    -12.8744068  0.260331E+00  0.483E+00    0.02       1.0  T
  34    -13.1231414 -0.248735E+00  0.370E+00    2.94       1.0  T
  35    -13.1420676 -0.189262E-01  0.205E+00    1.23       1.0  T
  36    -12.1151479  0.102692E+01  0.898E+00    0.00       1.0  T
  37    -13.0978292 -0.982681E+00  0.504E+00    3.07       1.0  T
  38    -13.1346985 -0.368694E-01  0.282E+00    2.88       1.0  T
  39    -13.1440170 -0.931842E-02  0.181E+00    0.51       1.0  T
  40    -12.1113919  0.103263E+01  0.914E+00    0.00       1.0  T
  41    -13.0979902 -0.986598E+00  0.505E+00    3.06       1.0  T
  42    -13.1356504 -0.376602E-01  0.275E+00    2.88       1.0  T
  43    -13.1618530 -0.262025E-01  0.124E+00    0.19       1.0  T
  44    -12.1131967  0.104866E+01  0.906E+00    0.00       1.0  T
  45    -13.0982721 -0.985075E+00  0.503E+00    3.06       1.0  T
  46    -13.1358396 -0.375675E-01  0.273E+00    2.88       1.0  T
  47    -13.1466336 -0.107940E-01  0.170E+00    0.31       1.0  T
  48    -12.1103510  0.103628E+01  0.918E+00    0.00       1.0  T
  49    -13.0980768 -0.987726E+00  0.505E+00    3.06       1.0  T
  50    -13.1358973 -0.378205E-01  0.274E+00    2.87       1.0  T
  51    -13.1801630 -0.442657E-01  0.193E-01    0.12       1.0  T
  52    -13.1449435  0.352195E-01  0.175E+00    0.39       1.0  T
  53    -12.1078260  0.103712E+01  0.930E+00    0.00       1.0  T
  54    -13.1023617 -0.994536E+00  0.487E+00    3.04       1.0  T
  55    -13.1371532 -0.347915E-01  0.262E+00    2.87       1.0  T
  56    -13.1626427 -0.254895E-01  0.119E+00    0.08       1.0  T
  57    -13.1410227  0.216200E-01  0.221E+00    1.77       1.0  T
  58    -12.1133465  0.102768E+01  0.905E+00    0.00       1.0  T
  59    -13.1039765 -0.990630E+00  0.475E+00    3.04       1.0  T
  60    -13.1362202 -0.322437E-01  0.269E+00    2.87       1.0  T
  61    -13.1437561 -0.753585E-02  0.185E+00    0.64       1.0  T
  62    -12.1120636  0.103169E+01  0.911E+00    0.00       1.0  T
  63    -13.1032327 -0.991169E+00  0.480E+00    3.04       1.0  T
  64    -13.1362020 -0.329692E-01  0.270E+00    2.87       1.0  T
  65    -13.1442670 -0.806507E-02  0.179E+00    0.47       1.0  T
  66    -12.1110446  0.103322E+01  0.915E+00    0.00       1.0  T
  67    -13.1026414 -0.991597E+00  0.483E+00    3.04       1.0  T
  68    -13.1361905 -0.335492E-01  0.270E+00    2.87       1.0  T
  69    -13.1452602 -0.906963E-02  0.174E+00    0.36       1.0  T
  70    -12.1104103  0.103485E+01  0.918E+00    0.00       1.0  T
  71    -13.1020484 -0.991638E+00  0.486E+00    3.05       1.0  T
  72    -13.1361350 -0.340865E-01  0.271E+00    2.87       1.0  T
  73    -13.1483002 -0.121652E-01  0.165E+00    0.28       1.0  T
  74    -12.1103156  0.103798E+01  0.918E+00    0.00       1.0  T
  75    -13.1014990 -0.991183E+00  0.488E+00    3.05       1.0  T
  76    -13.1360476 -0.345486E-01  0.272E+00    2.87       1.0  T
  77    -13.1512527 -0.152051E-01  0.156E+00    0.24       1.0  T
  78    -12.1105369  0.104072E+01  0.917E+00    0.00       1.0  T
  79    -13.1009996 -0.990463E+00  0.490E+00    3.05       1.0  T
  80    -13.1359243 -0.349246E-01  0.273E+00    2.87       1.0  T
  81    -13.1512348 -0.153105E-01  0.156E+00    0.24       1.0  T
  82    -12.1104012  0.104083E+01  0.918E+00    0.00       1.0  T
  83    -13.1005339 -0.990133E+00  0.493E+00    3.05       1.0  T
  84    -13.1358145 -0.352806E-01  0.274E+00    2.87       1.0  T
  85    -13.1541155 -0.183010E-01  0.148E+00    0.22       1.0  T
  86    -12.1107126  0.104340E+01  0.917E+00    0.00       1.0  T
  87    -13.1001233 -0.989411E+00  0.494E+00    3.06       1.0  T
  88    -13.1357124 -0.355891E-01  0.275E+00    2.87       1.0  T
  89    -13.1521798 -0.164675E-01  0.154E+00    0.24       1.0  T
  90    -12.1102711  0.104191E+01  0.919E+00    0.00       1.0  T
  91    -13.0997123 -0.989441E+00  0.496E+00    3.06       1.0  T
  92    -13.1356389 -0.359266E-01  0.276E+00    2.87       1.0  T
  93    -13.1591390 -0.235001E-01  0.133E+00    0.20       1.0  T
  94    -12.1113935  0.104775E+01  0.914E+00    0.00       1.0  T
  95    -13.0993703 -0.987977E+00  0.497E+00    3.06       1.0  T
  96    -13.1355223 -0.361520E-01  0.277E+00    2.88       1.0  T
  97    -13.1486352 -0.131128E-01  0.164E+00    0.27       1.0  T
  98    -12.1095489  0.103909E+01  0.922E+00    0.00       1.0  T
  99    -13.0989682 -0.989419E+00  0.500E+00    3.06       1.0  T
 100    -13.1354988 -0.365306E-01  0.278E+00    2.87       1.0  T
 101    -13.1774903 -0.419915E-01  0.503E-01    0.14       1.0  T
 102    -12.1262500  0.105124E+01  0.885E+00    0.00       1.0  T
 103    -13.0992872 -0.973037E+00  0.493E+00    3.07       1.0  T
 104    -13.1352027 -0.359155E-01  0.279E+00    2.88       1.0  T
 105    -13.1438466 -0.864394E-02  0.185E+00    0.65       1.0  T
 106    -12.1107498  0.103310E+01  0.916E+00    0.00       1.0  T
 107    -13.0981664 -0.987417E+00  0.503E+00    3.07       1.0  T
 108    -13.1348918 -0.367254E-01  0.283E+00    2.88       1.0  T
 109    -13.1521470 -0.172552E-01  0.154E+00    0.24       1.0  T
 110    -12.1096543  0.104249E+01  0.921E+00    0.00       1.0  T
 111    -13.0979925 -0.988338E+00  0.504E+00    3.07       1.0  T
 112    -13.1352393 -0.372468E-01  0.280E+00    2.88       1.0  T
 113    -13.1798162 -0.445769E-01  0.254E-01    0.13       1.0  T
 114    -13.1758668  0.394940E-02  0.614E-01    0.10       1.0  T
 115    -13.1433972  0.324696E-01  0.191E+00    0.85       1.0  T
 116    -12.1088231  0.103457E+01  0.925E+00    0.00       1.0  T
 117    -13.1000596 -0.991237E+00  0.495E+00    3.06       1.0  T
 118    -13.1357678 -0.357082E-01  0.275E+00    2.87       1.0  T
 119    -13.1783035 -0.425357E-01  0.433E-01    0.13       1.0  T
 120    -12.1429309  0.103537E+01  0.877E+00    0.00       1.0  T
 121    -13.1006338 -0.957703E+00  0.487E+00    3.06       1.0  T
 122    -13.1354460 -0.348122E-01  0.276E+00    2.88       1.0  T
 123    -13.1437575 -0.831150E-02  0.186E+00    0.69       1.0  T
 124    -12.1109239  0.103283E+01  0.916E+00    0.00       1.0  T
 125    -13.0989344 -0.988010E+00  0.499E+00    3.06       1.0  T
 126    -13.1348947 -0.359603E-01  0.283E+00    2.88       1.0  T
 127    -13.1471018 -0.122071E-01  0.168E+00    0.30       1.0  T
 128    -12.1089719  0.103813E+01  0.924E+00    0.00       1.0  T
 129    -13.0987606 -0.989789E+00  0.501E+00    3.06       1.0  T
 130    -13.1352532 -0.364926E-01  0.280E+00    2.88       1.0  T
 131    -13.1804299 -0.451767E-01  0.122E-01    0.12       1.0  T
 132    -13.1592852  0.211447E-01  0.132E+00    0.20       1.0  T
 133    -12.1095728  0.104971E+01  0.922E+00    0.00       1.0  T
 134    -13.0997331 -0.990160E+00  0.496E+00    3.06       1.0  T
 135    -13.1357728 -0.360397E-01  0.275E+00    2.87       1.0  T
 136    -13.1653542 -0.295814E-01  0.112E+00    0.18       1.0  T
 137    -12.1121726  0.105318E+01  0.910E+00    0.00       1.0  T
 138    -13.0991806 -0.987008E+00  0.497E+00    3.06       1.0  T
 139    -13.1352698 -0.360892E-01  0.279E+00    2.88       1.0  T
 140    -13.1451599 -0.989010E-02  0.175E+00    0.37       1.0  T
 141    -12.1090010  0.103616E+01  0.924E+00    0.00       1.0  T
 142    -13.0989385 -0.989938E+00  0.500E+00    3.06       1.0  T
 143    -13.1352968 -0.363583E-01  0.280E+00    2.88       1.0  T
 144    -13.1766469 -0.413501E-01  0.567E-01    0.14       1.0  T
 145    -12.1160177  0.106063E+01  0.894E+00    0.00       1.0  T
 146    -13.0987611 -0.982743E+00  0.496E+00    3.07       1.0  T
 147    -13.1349007 -0.361396E-01  0.282E+00    2.88       1.0  T
 148    -13.1439145 -0.901380E-02  0.184E+00    0.63       1.0  T
 149    -12.1101891  0.103373E+01  0.919E+00    0.00       1.0  T
 150    -13.0982733 -0.988084E+00  0.502E+00    3.07       1.0  T
 151    -13.1348969 -0.366236E-01  0.283E+00    2.88       1.0  T
 152    -13.1541234 -0.192266E-01  0.148E+00    0.22       1.0  T
 153    -12.1094872  0.104464E+01  0.922E+00    0.00       1.0  T
 154    -13.0980360 -0.988549E+00  0.503E+00    3.07       1.0  T
 155    -13.1351503 -0.371144E-01  0.281E+00    2.88       1.0  T
 156    -13.1722593 -0.371090E-01  0.824E-01    0.15       1.0  T
 157    -12.1138654  0.105839E+01  0.903E+00    0.00       1.0  T
 158    -13.0976588 -0.983793E+00  0.502E+00    3.07       1.0  T
 159    -13.1348326 -0.371738E-01  0.283E+00    2.88       1.0  T
 160    -13.1444390 -0.960642E-02  0.179E+00    0.46       1.0  T
 161    -12.1089876  0.103545E+01  0.924E+00    0.00       1.0  T
 162    -13.0974192 -0.988432E+00  0.507E+00    3.07       1.0  T
 163    -13.1349519 -0.375327E-01  0.283E+00    2.88       1.0  T
 164    -13.1789786 -0.440267E-01  0.360E-01    0.11       1.0  T
 165    -13.1438391  0.351395E-01  0.185E+00    0.66       1.0  T
 166    -12.1084450  0.103539E+01  0.927E+00    0.00       1.0  T
 167    -13.0984242 -0.989979E+00  0.502E+00    3.07       1.0  T
 168    -13.1354093 -0.369851E-01  0.279E+00    2.87       1.0  T
 169    -13.1713403 -0.359310E-01  0.857E-01    0.09       1.0  T
 170    -13.1425683  0.287721E-01  0.202E+00    1.18       1.0  T
 171    -12.1105408  0.103203E+01  0.918E+00    0.00       1.0  T
 172    -13.0989851 -0.988444E+00  0.498E+00    3.06       1.0  T
 173    -13.1352338 -0.362487E-01  0.280E+00    2.88       1.0  T
 174    -13.1475266 -0.122928E-01  0.167E+00    0.29       1.0  T
 175    -12.1084324  0.103909E+01  0.927E+00    0.00       1.0  T
 176    -13.0984220 -0.989990E+00  0.502E+00    3.06       1.0  T
 177    -13.1353488 -0.369268E-01  0.280E+00    2.87       1.0  T
 178    -13.1805848 -0.452360E-01  0.475E-02    0.12       1.0  T
 179    -13.1610725  0.195122E-01  0.127E+00    0.19       1.0  T
 180    -12.1097961  0.105128E+01  0.921E+00    0.00       1.0  T
 181    -13.0989168 -0.989121E+00  0.499E+00    3.06       1.0  T
 182    -13.1356150 -0.366982E-01  0.277E+00    2.87       1.0  T
 183    -13.1527578 -0.171428E-01  0.152E+00    0.23       1.0  T
 184    -12.1090828  0.104368E+01  0.924E+00    0.00       1.0  T
 185    -13.0984715 -0.989389E+00  0.502E+00    3.06       1.0  T
 186    -13.1354107 -0.369392E-01  0.279E+00    2.87       1.0  T
 187    -13.1658365 -0.304258E-01  0.110E+00    0.17       1.0  T
 188    -12.1116589  0.105418E+01  0.912E+00    0.00       1.0  T
 189    -13.0982879 -0.986629E+00  0.501E+00    3.07       1.0  T
 190    -13.1352034 -0.369155E-01  0.280E+00    2.88       1.0  T
 191    -13.1453308 -0.101274E-01  0.174E+00    0.36       1.0  T
 192    -12.1084123  0.103692E+01  0.927E+00    0.00       1.0  T
 193    -13.0980448 -0.989632E+00  0.504E+00    3.07       1.0  T
 194    -13.1353175 -0.372727E-01  0.280E+00    2.87       1.0  T
 195    -13.1805524 -0.452349E-01  0.679E-02    0.11       1.0  T
 196    -13.1474635  0.330889E-01  0.167E+00    0.29       1.0  T
 197    -12.1074675  0.104000E+01  0.931E+00    0.00       1.0  T
 198    -13.0987195 -0.991252E+00  0.501E+00    3.06       1.0  T
 199    -13.1357466 -0.370271E-01  0.276E+00    2.87       1.0  T
 200    -13.1398815 -0.413490E-02  0.179E+00    0.07       1.0  T
 201    -13.1399466 -0.650388E-04  0.233E+00    2.14       1.0  T
 202    -12.1142669  0.102568E+01  0.901E+00    0.00       1.0  T
 203    -13.0994366 -0.985170E+00  0.494E+00    3.07       1.0  T
 204    -13.1347188 -0.352823E-01  0.284E+00    2.88       1.0  T
 205    -13.1438556 -0.913674E-02  0.185E+00    0.65       1.0  T
 206    -12.1099580  0.103390E+01  0.920E+00    0.00       1.0  T
 207    -13.0989191 -0.988961E+00  0.499E+00    3.06       1.0  T
 208    -13.1351549 -0.362359E-01  0.281E+00    2.88       1.0  T
 209    -13.1478661 -0.127111E-01  0.166E+00    0.28       1.0  T
 210    -12.1082716  0.103959E+01  0.928E+00    0.00       1.0  T
 211    -13.0984402 -0.990169E+00  0.502E+00    3.07       1.0  T
 212    -13.1353986 -0.369585E-01  0.279E+00    2.87       1.0  T
 213    -13.1763925 -0.409938E-01  0.585E-01    0.14       1.0  T
 214    -12.1150723  0.106132E+01  0.897E+00    0.00       1.0  T
 215    -13.0983897 -0.983317E+00  0.498E+00    3.07       1.0  T
 216    -13.1348425 -0.364528E-01  0.283E+00    2.88       1.0  T
 217    -13.1439274 -0.908491E-02  0.184E+00    0.63       1.0  T
 218    -12.1097232  0.103420E+01  0.921E+00    0.00       1.0  T
 219    -13.0978621 -0.988139E+00  0.504E+00    3.07       1.0  T
 220    -13.1350540 -0.371918E-01  0.282E+00    2.88       1.0  T
 221    -13.1539471 -0.188932E-01  0.148E+00    0.23       1.0  T
 222    -12.1088809  0.104507E+01  0.925E+00    0.00       1.0  T
 223    -13.0975397 -0.988659E+00  0.506E+00    3.07       1.0  T
 224    -13.1352544 -0.377147E-01  0.281E+00    2.88       1.0  T
 225    -13.1712122 -0.359578E-01  0.874E-01    0.16       1.0  T
 226    -12.1128876  0.105832E+01  0.907E+00    0.00       1.0  T
 227    -13.0973817 -0.984494E+00  0.504E+00    3.07       1.0  T
 228    -13.1349127 -0.375310E-01  0.283E+00    2.88       1.0  T
 229    -13.1445299 -0.961720E-02  0.178E+00    0.44       1.0  T
 230    -12.1084944  0.103604E+01  0.927E+00    0.00       1.0  T
 231    -13.0970638 -0.988569E+00  0.508E+00    3.07       1.0  T
 232    -13.1351514 -0.380876E-01  0.282E+00    2.88       1.0  T
 233    -13.1793096 -0.441582E-01  0.322E-01    0.11       1.0  T
 234    -13.1441797  0.351299E-01  0.181E+00    0.53       1.0  T
 235    -12.1079865  0.103619E+01  0.929E+00    0.00       1.0  T
 236    -13.0976747 -0.989688E+00  0.506E+00    3.07       1.0  T
 237    -13.1354868 -0.378121E-01  0.279E+00    2.87       1.0  T
 238    -13.1684833 -0.329965E-01  0.980E-01    0.09       1.0  T
 239    -13.1424466  0.260368E-01  0.204E+00    1.23       1.0  T
 240    -12.1109013  0.103155E+01  0.916E+00    0.00       1.0  T
 241    -13.0983066 -0.987405E+00  0.501E+00    3.07       1.0  T
 242    -13.1351874 -0.368808E-01  0.281E+00    2.88       1.0  T
 243    -13.1458515 -0.106640E-01  0.172E+00    0.33       1.0  T
 244    -12.1079762  0.103788E+01  0.929E+00    0.00       1.0  T
 245    -13.0976837 -0.989707E+00  0.506E+00    3.07       1.0  T
 246    -13.1354019 -0.377182E-01  0.279E+00    2.87       1.0  T
 247    -13.1791227 -0.437207E-01  0.344E-01    0.11       1.0  T
 248    -13.1441838  0.349388E-01  0.181E+00    0.52       1.0  T
 249    -12.1081128  0.103607E+01  0.928E+00    0.00       1.0  T
 250    -13.0981267 -0.990014E+00  0.504E+00    3.07       1.0  T
     SCC iter.                  ...        0 min,  0.113 sec
     gradient                   ...        0 min,  0.001 sec
 * total energy  :   -12.5696599 Eh     change       -0.6417055E+01 Eh
   gradient norm :     4.3449240 Eh/α   predicted    -0.8073615E+01 (  25.81%)
   displ. norm   :     0.4580457 α      lambda       -0.1984312E+01
   maximum displ.:     0.4493866 α      in ANC's #12, #3, #6, ...

........................................................................
.............................. CYCLE    4 ..............................
........................................................................
   1    -13.1621943 -0.131622E+02  0.289E+00    4.32       0.0  T
   2    -13.1707821 -0.858776E-02  0.231E+00    1.11       1.0  T
   3    -12.0311267  0.113966E+01  0.919E+00    0.00       1.0  T
   4    -13.1626189 -0.113149E+01  0.261E+00    4.32       1.0  T
   5    -13.1659057 -0.328673E-02  0.213E+00    3.24       1.0  T
   6    -13.1677438 -0.183816E-02  0.188E+00    2.41       1.0  T
   7    -13.1707327 -0.298890E-02  0.137E+00    0.75       1.0  T
   8    -13.1257280  0.450047E-01  0.220E+00    0.07       1.0  T
   9    -13.1707053 -0.449773E-01  0.136E+00    0.70       1.0  T
  10    -13.1712728 -0.567429E-03  0.127E+00    0.46       1.0  T
  11    -13.1866380 -0.153652E-01  0.486E-01    0.16       1.0  T
  12    -13.1803376  0.630041E-02  0.862E-01    0.20       1.0  T
  13    -13.1894858 -0.914822E-02  0.103E-01    0.14       1.0  T
  14    -13.1895804 -0.945667E-04  0.557E-02    0.14       1.0  T
  15    -13.1853304  0.425000E-02  0.577E-01    0.11       1.0  T
  16    -13.1895040 -0.417361E-02  0.952E-02    0.14       1.0  T
  17    -13.1895488 -0.448725E-04  0.744E-02    0.13       1.0  T
  18    -13.1896146 -0.658047E-04  0.198E-02    0.13       2.1  T
  19    -13.1896173 -0.267322E-05  0.135E-02    0.13       3.0  T
  20    -13.1896195 -0.221897E-05  0.281E-03    0.14      14.5  T
  21    -13.1896196 -0.100148E-06  0.226E-04    0.14     180.3  T
     SCC iter.                  ...        0 min,  0.001 sec
     gradient                   ...        0 min,  0.001 sec
 * total energy  :   -12.3830355 Eh     change        0.1866244E+00 Eh
   gradient norm :     6.6062984 Eh/α   predicted    -0.1200316E+01 (-743.17%)
   displ. norm   :     0.2318503 α      lambda       -0.1384993E+01
   maximum displ.:     0.2181809 α      in ANC's #12, #3, #6, ...

........................................................................
.............................. CYCLE    5 ..............................
........................................................................
   1    -12.0919785 -0.120920E+02  0.916E+00    0.00       0.0  T
   2    -12.8892048 -0.797226E+00  0.789E+00    5.59       1.0  T
   3    -13.1236674 -0.234463E+00  0.390E+00    3.59       1.0  T
   4    -13.1450585 -0.213911E-01  0.293E+00    3.38       1.0  T
   5    -13.1507354 -0.567692E-02  0.208E+00    1.63       1.0  T
   6    -13.1477124  0.302307E-02  0.226E+00    2.01       1.0  T
   7    -13.1466541  0.105821E-02  0.235E+00    2.28       1.0  T
   8    -13.1511994 -0.454523E-02  0.194E+00    1.02       1.0  T
   9    -12.0718016  0.107940E+01  0.986E+00    0.00       1.0  T
  10    -12.0897095 -0.179079E-01  0.910E+00    0.00       1.0  T
  11    -13.1488320 -0.105912E+01  0.246E+00    3.15       1.0  T
  12    -13.1523592 -0.352724E-02  0.208E+00    1.93       1.0  T
  13    -13.1557298 -0.337062E-02  0.163E+00    0.55       1.0  T
  14    -12.0882490  0.106748E+01  0.913E+00    0.00       1.0  T
  15    -13.1330790 -0.104483E+01  0.370E+00    3.47       1.0  T
  16    -13.1446987 -0.116197E-01  0.286E+00    3.42       1.0  T
  17    -13.1553806 -0.106819E-01  0.170E+00    0.76       1.0  T
  18    -12.0857646  0.106962E+01  0.924E+00    0.00       1.0  T
  19    -13.1140646 -0.102830E+01  0.473E+00    3.56       1.0  T
  20    -13.1453770 -0.313124E-01  0.283E+00    3.41       1.0  T
  21    -13.1552932 -0.991620E-02  0.172E+00    0.86       1.0  T
  22    -12.0867729  0.106852E+01  0.919E+00    0.00       1.0  T
  23    -13.1099334 -0.102316E+01  0.493E+00    3.58       1.0  T
  24    -13.1470947 -0.371613E-01  0.268E+00    3.40       1.0  T
  25    -13.1554049 -0.831020E-02  0.171E+00    0.82       1.0  T
  26    -12.0868787  0.106853E+01  0.918E+00    0.00       1.0  T
  27    -13.1086856 -0.102181E+01  0.499E+00    3.58       1.0  T
  28    -13.1475154 -0.388299E-01  0.265E+00    3.39       1.0  T
  29    -13.1555358 -0.802038E-02  0.169E+00    0.77       1.0  T
  30    -12.0865213  0.106901E+01  0.920E+00    0.00       1.0  T
  31    -13.1081023 -0.102158E+01  0.502E+00    3.59       1.0  T
  32    -13.1476922 -0.395899E-01  0.263E+00    3.39       1.0  T
  33    -13.1557129 -0.802071E-02  0.167E+00    0.69       1.0  T
  34    -12.0859869  0.106973E+01  0.922E+00    0.00       1.0  T
  35    -13.1078952 -0.102191E+01  0.504E+00    3.59       1.0  T
  36    -13.1478045 -0.399094E-01  0.262E+00    3.39       1.0  T
  37    -13.1559023 -0.809771E-02  0.164E+00    0.60       1.0  T
  38    -12.0854766  0.107043E+01  0.924E+00    0.00       1.0  T
  39    -13.1078870 -0.102241E+01  0.504E+00    3.59       1.0  T
  40    -13.1478761 -0.399891E-01  0.262E+00    3.39       1.0  T
  41    -13.1560888 -0.821275E-02  0.161E+00    0.52       1.0  T
  42    -12.0850935  0.107100E+01  0.926E+00    0.00       1.0  T
  43    -13.1079225 -0.102283E+01  0.504E+00    3.59       1.0  T
  44    -13.1479016 -0.399792E-01  0.261E+00    3.39       1.0  T
  45    -13.1562828 -0.838115E-02  0.159E+00    0.46       1.0  T
  46    -12.0848664  0.107142E+01  0.927E+00    0.00       1.0  T
  47    -13.1078891 -0.102302E+01  0.505E+00    3.59       1.0  T
  48    -13.1478783 -0.399891E-01  0.262E+00    3.39       1.0  T
  49    -13.1564974 -0.861916E-02  0.157E+00    0.42       1.0  T
  50    -12.0847719  0.107173E+01  0.927E+00    0.00       1.0  T
  51    -13.1077339 -0.102296E+01  0.506E+00    3.59       1.0  T
  52    -13.1478135 -0.400795E-01  0.262E+00    3.39       1.0  T
  53    -13.1567258 -0.891232E-02  0.156E+00    0.39       1.0  T
  54    -12.0847606  0.107197E+01  0.927E+00    0.00       1.0  T
  55    -13.1074632 -0.102270E+01  0.507E+00    3.59       1.0  T
  56    -13.1477250 -0.402617E-01  0.263E+00    3.39       1.0  T
  57    -13.1569615 -0.923654E-02  0.155E+00    0.37       1.0  T
  58    -12.0847886  0.107217E+01  0.927E+00    0.00       1.0  T
  59    -13.1071159 -0.102233E+01  0.509E+00    3.59       1.0  T
  60    -13.1476318 -0.405159E-01  0.264E+00    3.39       1.0  T
  61    -13.1572231 -0.959124E-02  0.154E+00    0.35       1.0  T
  62    -12.0848371  0.107239E+01  0.927E+00    0.00       1.0  T
  63    -13.1067258 -0.102189E+01  0.510E+00    3.59       1.0  T
  64    -13.1475450 -0.408193E-01  0.265E+00    3.39       1.0  T
  65    -13.1575370 -0.999198E-02  0.152E+00    0.34       1.0  T
  66    -12.0849053  0.107263E+01  0.927E+00    0.00       1.0  T
  67    -13.1063065 -0.102140E+01  0.512E+00    3.59       1.0  T
  68    -13.1474662 -0.411597E-01  0.266E+00    3.39       1.0  T
  69    -13.1579147 -0.104485E-01  0.151E+00    0.32       1.0  T
  70    -12.0849947  0.107292E+01  0.926E+00    0.00       1.0  T
  71    -13.1058615 -0.102087E+01  0.514E+00    3.59       1.0  T
  72    -13.1473937 -0.415321E-01  0.266E+00    3.39       1.0  T
  73    -13.1583532 -0.109595E-01  0.150E+00    0.31       1.0  T
  74    -12.0851033  0.107325E+01  0.926E+00    0.00       1.0  T
  75    -13.1053938 -0.102029E+01  0.516E+00    3.60       1.0  T
  76    -13.1473265 -0.419327E-01  0.267E+00    3.39       1.0  T
  77    -13.1588479 -0.115214E-01  0.148E+00    0.29       1.0  T
  78    -12.0852286  0.107362E+01  0.925E+00    0.00       1.0  T
  79    -13.1049064 -0.101968E+01  0.518E+00    3.60       1.0  T
  80    -13.1472643 -0.423579E-01  0.268E+00    3.39       1.0  T
  81    -13.1593950 -0.121307E-01  0.146E+00    0.28       1.0  T
  82    -12.0853685  0.107403E+01  0.925E+00    0.00       1.0  T
  83    -13.1044020 -0.101903E+01  0.521E+00    3.60       1.0  T
  84    -13.1472069 -0.428049E-01  0.268E+00    3.39       1.0  T
  85    -13.1599893 -0.127823E-01  0.144E+00    0.27       1.0  T
  86    -12.0855209  0.107447E+01  0.924E+00    0.00       1.0  T
  87    -13.1038827 -0.101836E+01  0.523E+00    3.60       1.0  T
  88    -13.1471541 -0.432714E-01  0.269E+00    3.39       1.0  T
  89    -13.1606261 -0.134721E-01  0.142E+00    0.26       1.0  T
  90    -12.0856844  0.107494E+01  0.924E+00    0.00       1.0  T
  91    -13.1033497 -0.101767E+01  0.525E+00    3.61       1.0  T
  92    -13.1471054 -0.437558E-01  0.269E+00    3.39       1.0  T
  93    -13.1612997 -0.141942E-01  0.140E+00    0.26       1.0  T
  94    -12.0858574  0.107544E+01  0.923E+00    0.00       1.0  T
  95    -13.1028046 -0.101695E+01  0.527E+00    3.61       1.0  T
  96    -13.1470609 -0.442562E-01  0.270E+00    3.39       1.0  T
  97    -13.1620067 -0.149459E-01  0.138E+00    0.25       1.0  T
  98    -12.0860392  0.107597E+01  0.922E+00    0.00       1.0  T
  99    -13.1022471 -0.101621E+01  0.530E+00    3.61       1.0  T
 100    -13.1470197 -0.447726E-01  0.270E+00    3.39       1.0  T
 101    -13.1627377 -0.157180E-01  0.135E+00    0.24       1.0  T
 102    -12.0862274  0.107651E+01  0.921E+00    0.00       1.0  T
 103    -13.1016806 -0.101545E+01  0.532E+00    3.61       1.0  T
 104    -13.1469826 -0.453020E-01  0.271E+00    3.39       1.0  T
 105    -13.1635026 -0.165200E-01  0.133E+00    0.23       1.0  T
 106    -12.0864264  0.107708E+01  0.921E+00    0.00       1.0  T
 107    -13.1010955 -0.101467E+01  0.535E+00    3.62       1.0  T
 108    -13.1469460 -0.458505E-01  0.271E+00    3.39       1.0  T
 109    -13.1642469 -0.173009E-01  0.130E+00    0.23       1.0  T
 110    -12.0866172  0.107763E+01  0.920E+00    0.00       1.0  T
 111    -13.1005278 -0.101391E+01  0.537E+00    3.62       1.0  T
 112    -13.1469215 -0.463937E-01  0.271E+00    3.39       1.0  T
 113    -13.1651654 -0.182439E-01  0.127E+00    0.22       1.0  T
 114    -12.0868729  0.107829E+01  0.919E+00    0.00       1.0  T
 115    -13.0998270 -0.101295E+01  0.540E+00    3.62       1.0  T
 116    -13.1468592 -0.470322E-01  0.272E+00    3.40       1.0  T
 117    -13.1653895 -0.185304E-01  0.127E+00    0.22       1.0  T
 118    -12.0868675  0.107852E+01  0.919E+00    0.00       1.0  T
 119    -13.0996816 -0.101281E+01  0.540E+00    3.62       1.0  T
 120    -13.1469837 -0.473022E-01  0.271E+00    3.39       1.0  T
 121    -13.1693381 -0.223543E-01  0.113E+00    0.20       1.0  T
 122    -12.0883349  0.108100E+01  0.913E+00    0.00       1.0  T
 123    -13.0962328 -0.100790E+01  0.554E+00    3.64       1.0  T
 124    -13.1460365 -0.498037E-01  0.279E+00    3.40       1.0  T
 125    -13.1589052 -0.128687E-01  0.148E+00    0.29       1.0  T
 126    -12.0842328  0.107467E+01  0.930E+00    0.00       1.0  T
 127    -13.1047300 -0.102050E+01  0.520E+00    3.60       1.0  T
 128    -13.1489185 -0.441885E-01  0.252E+00    3.38       1.0  T
 129    -12.2077072  0.941211E+00  0.846E+00    0.00       1.0  T
 130    -13.0855892 -0.877882E+00  0.593E+00    3.69       1.0  T
 131    -13.1427184 -0.571292E-01  0.308E+00    3.42       1.0  T
 132    -13.1559552 -0.132368E-01  0.163E+00    0.59       1.0  T
 133    -12.0834625  0.107249E+01  0.933E+00    0.00       1.0  T
 134    -13.1051294 -0.102167E+01  0.518E+00    3.60       1.0  T
 135    -13.1494690 -0.443395E-01  0.246E+00    3.20       1.0  T
 136    -12.0967844  0.105268E+01  0.893E+00    0.00       1.0  T
 137    -13.0824304 -0.985646E+00  0.605E+00    3.70       1.0  T
 138    -13.1417943 -0.593639E-01  0.316E+00    3.42       1.0  T
 139    -13.1558049 -0.140106E-01  0.166E+00    0.67       1.0  T
 140    -12.0835208  0.107228E+01  0.933E+00    0.00       1.0  T
 141    -13.1049771 -0.102146E+01  0.519E+00    3.60       1.0  T
 142    -13.1496284 -0.446513E-01  0.245E+00    3.16       1.0  T
 143    -12.0959556  0.105367E+01  0.894E+00    0.00       1.0  T
 144    -13.0825203 -0.986565E+00  0.605E+00    3.70       1.0  T
 145    -13.1422918 -0.597715E-01  0.312E+00    3.42       1.0  T
 146    -13.1558578 -0.135660E-01  0.165E+00    0.65       1.0  T
 147    -12.0834270  0.107243E+01  0.933E+00    0.00       1.0  T
 148    -13.1053105 -0.102188E+01  0.518E+00    3.59       1.0  T
 149    -13.1498337 -0.445232E-01  0.243E+00    3.09       1.0  T
 150    -12.0956863  0.105415E+01  0.894E+00    0.00       1.0  T
 151    -13.0826347 -0.986948E+00  0.604E+00    3.70       1.0  T
 152    -13.1426349 -0.600002E-01  0.309E+00    3.42       1.0  T
 153    -13.1558576 -0.132228E-01  0.165E+00    0.65       1.0  T
 154    -12.0834801  0.107238E+01  0.933E+00    0.00       1.0  T
 155    -13.1054193 -0.102194E+01  0.518E+00    3.59       1.0  T
 156    -13.1499162 -0.444969E-01  0.242E+00    3.06       1.0  T
 157    -12.0986041  0.105131E+01  0.892E+00    0.00       1.0  T
 158    -13.0821661 -0.983562E+00  0.606E+00    3.70       1.0  T
 159    -13.1427686 -0.606025E-01  0.308E+00    3.42       1.0  T
 160    -13.1558331 -0.130645E-01  0.165E+00    0.66       1.0  T
 161    -12.0835680  0.107227E+01  0.932E+00    0.00       1.0  T
 162    -13.1054291 -0.102186E+01  0.518E+00    3.59       1.0  T
 163    -13.1499763 -0.445473E-01  0.241E+00    3.04       1.0  T
 164    -12.1040509  0.104593E+01  0.889E+00    0.00       1.0  T
 165    -13.0818400 -0.977789E+00  0.607E+00    3.70       1.0  T
 166    -13.1429503 -0.611103E-01  0.306E+00    3.41       1.0  T
 167    -13.1558246 -0.128743E-01  0.166E+00    0.66       1.0  T
 168    -12.0836194  0.107221E+01  0.932E+00    0.00       1.0  T
 169    -13.1055248 -0.102191E+01  0.517E+00    3.59       1.0  T
 170    -13.1500612 -0.445364E-01  0.240E+00    3.01       1.0  T
 171    -12.1097051  0.104036E+01  0.887E+00    0.00       1.0  T
 172    -13.0818383 -0.972133E+00  0.607E+00    3.70       1.0  T
 173    -13.1431911 -0.613528E-01  0.304E+00    3.41       1.0  T
 174    -13.1558230 -0.126320E-01  0.166E+00    0.66       1.0  T
 175    -12.0836625  0.107216E+01  0.932E+00    0.00       1.0  T
 176    -13.1056774 -0.102201E+01  0.516E+00    3.59       1.0  T
 177    -13.1501458 -0.444684E-01  0.239E+00    2.98       1.0  T
 178    -12.1171201  0.103303E+01  0.884E+00    0.00       1.0  T
 179    -13.0820356 -0.964916E+00  0.606E+00    3.70       1.0  T
 180    -13.1434501 -0.614146E-01  0.302E+00    3.41       1.0  T
 181    -13.1558216 -0.123714E-01  0.166E+00    0.66       1.0  T
 182    -12.0837113  0.107211E+01  0.932E+00    0.00       1.0  T
 183    -13.1058503 -0.102214E+01  0.516E+00    3.59       1.0  T
 184    -13.1502197 -0.443694E-01  0.238E+00    2.95       1.0  T
 185    -12.1285647  0.102165E+01  0.879E+00    0.00       1.0  T
 186    -13.0824836 -0.953919E+00  0.605E+00    3.70       1.0  T
 187    -13.1437504 -0.612668E-01  0.300E+00    3.41       1.0  T
 188    -13.1558251 -0.120747E-01  0.165E+00    0.66       1.0  T
 189    -12.0837539  0.107207E+01  0.932E+00    0.00       1.0  T
 190    -13.1060646 -0.102231E+01  0.515E+00    3.59       1.0  T
 191    -13.1502904 -0.442258E-01  0.238E+00    2.93       1.0  T
 192    -12.1436609  0.100663E+01  0.872E+00    0.00       1.0  T
 193    -13.0832208 -0.939560E+00  0.602E+00    3.70       1.0  T
 194    -13.1440936 -0.608727E-01  0.297E+00    3.41       1.0  T
 195    -13.1558337 -0.117401E-01  0.165E+00    0.65       1.0  T
 196    -12.0837886  0.107205E+01  0.932E+00    0.00       1.0  T
 197    -13.1063259 -0.102254E+01  0.514E+00    3.59       1.0  T
 198    -13.1503584 -0.440326E-01  0.237E+00    2.90       1.0  T
 199    -12.1623475  0.988011E+00  0.865E+00    0.00       1.0  T
 200    -13.0842451 -0.921898E+00  0.599E+00    3.69       1.0  T
 201    -13.1444732 -0.602281E-01  0.293E+00    3.41       1.0  T
 202    -13.1558473 -0.113740E-01  0.165E+00    0.64       1.0  T
 203    -12.0838144  0.107203E+01  0.932E+00    0.00       1.0  T
 204    -13.1066349 -0.102282E+01  0.512E+00    3.59       1.0  T
 205    -13.1504234 -0.437884E-01  0.236E+00    2.88       1.0  T
 206    -12.1841751  0.966248E+00  0.856E+00    0.00       1.0  T
 207    -13.0855203 -0.901345E+00  0.594E+00    3.69       1.0  T
 208    -13.1448760 -0.593557E-01  0.290E+00    3.41       1.0  T
 209    -13.1558653 -0.109894E-01  0.165E+00    0.63       1.0  T
 210    -12.0838309  0.107203E+01  0.932E+00    0.00       1.0  T
 211    -13.1069888 -0.102316E+01  0.511E+00    3.59       1.0  T
 212    -13.1504848 -0.434960E-01  0.235E+00    2.85       1.0  T
 213    -12.2081238  0.942361E+00  0.845E+00    0.00       1.0  T
 214    -13.0869719 -0.878848E+00  0.589E+00    3.68       1.0  T
 215    -13.1452813 -0.583094E-01  0.286E+00    3.40       1.0  T
 216    -13.1558868 -0.106055E-01  0.164E+00    0.62       1.0  T
 217    -12.0838394  0.107205E+01  0.932E+00    0.00       1.0  T
 218    -13.1073776 -0.102354E+01  0.509E+00    3.59       1.0  T
 219    -13.1505416 -0.431640E-01  0.235E+00    2.83       1.0  T
 220    -12.2332584  0.917283E+00  0.835E+00    0.00       1.0  T
 221    -13.0885248 -0.855266E+00  0.583E+00    3.67       1.0  T
 222    -13.1456734 -0.571486E-01  0.283E+00    3.40       1.0  T
 223    -13.1559111 -0.102377E-01  0.164E+00    0.60       1.0  T
 224    -12.0838405  0.107207E+01  0.932E+00    0.00       1.0  T
 225    -13.1077918 -0.102395E+01  0.507E+00    3.58       1.0  T
 226    -13.1505935 -0.428017E-01  0.234E+00    2.81       1.0  T
 227    -12.2581236  0.892470E+00  0.824E+00    0.00       1.0  T
 228    -13.0900775 -0.831954E+00  0.577E+00    3.67       1.0  T
 229    -13.1460318 -0.559543E-01  0.279E+00    3.40       1.0  T
 230    -13.1559361 -0.990437E-02  0.163E+00    0.59       1.0  T
 231    -12.0838382  0.107210E+01  0.932E+00    0.00       1.0  T
 232    -13.1082130 -0.102437E+01  0.505E+00    3.58       1.0  T
 233    -13.1506386 -0.424256E-01  0.233E+00    2.79       1.0  T
 234    -12.2830814  0.867557E+00  0.813E+00    0.00       1.0  T
 235    -13.0916315 -0.808550E+00  0.571E+00    3.66       1.0  T
 236    -13.1463661 -0.547346E-01  0.276E+00    3.40       1.0  T
 237    -13.1559646 -0.959851E-02  0.163E+00    0.57       1.0  T
 238    -12.0838281  0.107214E+01  0.932E+00    0.00       1.0  T
 239    -13.1086467 -0.102482E+01  0.503E+00    3.58       1.0  T
 240    -13.1506808 -0.420341E-01  0.233E+00    2.77       1.0  T
 241    -12.3034820  0.847199E+00  0.804E+00    0.00       1.0  T
 242    -13.0929172 -0.789435E+00  0.566E+00    3.65       1.0  T
 243    -13.1466125 -0.536953E-01  0.274E+00    3.40       1.0  T
 244    -13.1559830 -0.937056E-02  0.162E+00    0.56       1.0  T
 245    -12.0838339  0.107215E+01  0.932E+00    0.00       1.0  T
 246    -13.1090234 -0.102519E+01  0.501E+00    3.58       1.0  T
 247    -13.1507069 -0.416835E-01  0.232E+00    2.76       1.0  T
 248    -12.3341542  0.816553E+00  0.791E+00    0.00       1.0  T
 249    -13.0947593 -0.760605E+00  0.559E+00    3.65       1.0  T
 250    -13.1469951 -0.522357E-01  0.270E+00    3.40       1.0  T
     SCC iter.                  ...        0 min,  0.120 sec
     gradient                   ...        0 min,  0.001 sec
 * total energy  :   -13.0751158 Eh     change       -0.6920803E+00 Eh
   gradient norm :     0.3065547 Eh/α   predicted    -0.7297215E+00 (   5.44%)
   displ. norm   :     0.0633709 α      lambda       -0.4952758E-02
   maximum displ.:     0.0499739 α      in ANC's #1, #2, #12, ...

........................................................................
.............................. CYCLE    6 ..............................
........................................................................
   1    -13.1542243 -0.131542E+02  0.160E+00    0.46       0.0  T
   2    -12.0650096  0.108921E+01  0.958E+00    0.00       1.0  T
   3    -13.1413857 -0.107638E+01  0.186E+00    0.07       1.0  T
   4    -13.1531239 -0.117382E-01  0.164E+00    0.49       1.0  T
   5    -13.1594147 -0.629085E-02  0.141E+00    0.26       1.0  T
   6    -13.1745395 -0.151247E-01  0.857E-01    0.17       1.0  T
   7    -13.1250949  0.494446E-01  0.212E+00    0.07       1.0  T
   8    -13.1560483 -0.309534E-01  0.153E+00    0.31       1.0  T
   9    -13.1603932 -0.434492E-02  0.139E+00    0.24       1.0  T
  10    -12.7477195  0.412674E+00  0.571E+00    0.01       1.0  T
  11    -13.1542382 -0.406519E+00  0.160E+00    0.44       1.0  T
  12    -13.1585025 -0.426426E-02  0.144E+00    0.27       1.0  T
  13    -13.1670259 -0.852344E-02  0.116E+00    0.20       1.0  T
  14    -13.1746146 -0.758873E-02  0.851E-01    0.17       1.0  T
  15    -13.1826762 -0.806153E-02  0.271E-01    0.13       1.0  T
  16    -13.1835222 -0.845985E-03  0.780E-02    0.13       1.0  T
  17    -13.1835984 -0.762687E-04  0.359E-03    0.12      11.4  T
  18    -13.1835977  0.711100E-06  0.828E-03    0.12       4.9  T
  19    -13.1835926  0.509645E-05  0.218E-02    0.12       1.9  T
  20    -13.1835976 -0.493402E-05  0.904E-03    0.12       4.5  T
  21    -13.1835985 -0.936509E-06  0.271E-03    0.12      15.0  T
  22    -13.1835985 -0.110798E-07  0.255E-03    0.12      16.0  T
     SCC iter.                  ...        0 min,  0.002 sec
     gradient                   ...        0 min,  0.001 sec
 * total energy  :   -13.1155170 Eh     change       -0.4040124E-01 Eh
   gradient norm :     0.0569357 Eh/α   predicted    -0.2486324E-02 ( -93.85%)
   displ. norm   :     0.6678754 α      lambda       -0.1288625E-01
   maximum displ.:     0.5378144 α      in ANC's #1, #2, #12, ...

........................................................................
.............................. CYCLE    7 ..............................
........................................................................
   1    -12.1015822 -0.121016E+02  0.906E+00    0.00       0.0  T
   2    -12.7961242 -0.694542E+00  0.840E+00    5.21       1.0  T
   3    -13.0926484 -0.296524E+00  0.408E+00    3.08       1.0  T
   4    -13.1119461 -0.192977E-01  0.317E+00    2.93       1.0  T
   5    -12.0943380  0.101761E+01  0.900E+00    0.00       1.0  T
   6    -13.1132865 -0.101895E+01  0.277E+00    2.99       1.0  T
   7    -13.1174558 -0.416933E-02  0.262E+00    2.91       1.0  T
   8    -13.1180001 -0.544260E-03  0.238E+00    2.31       1.0  T
   9    -13.1192150 -0.121487E-02  0.228E+00    2.03       1.0  T
  10    -13.1190429  0.172113E-03  0.230E+00    2.09       1.0  T
  11    -13.1186558  0.387084E-03  0.235E+00    2.22       1.0  T
  12    -13.1234843 -0.482856E-02  0.180E+00    0.55       1.0  T
  13    -12.0811718  0.104231E+01  0.936E+00    0.00       1.0  T
  14    -13.1191633 -0.103799E+01  0.237E+00    2.37       1.0  T
  15    -13.1243348 -0.517148E-02  0.174E+00    0.41       1.0  T
  16    -12.0871738  0.103716E+01  0.911E+00    0.00       1.0  T
  17    -13.1113916 -0.102422E+01  0.304E+00    2.95       1.0  T
  18    -13.1202766 -0.888496E-02  0.221E+00    1.85       1.0  T
  19    -13.1255102 -0.523360E-02  0.168E+00    0.33       1.0  T
  20    -12.0894189  0.103609E+01  0.902E+00    0.00       1.0  T
  21    -13.0977483 -0.100833E+01  0.392E+00    3.01       1.0  T
  22    -13.1174697 -0.197214E-01  0.252E+00    2.84       1.0  T
  23    -13.1226255 -0.515580E-02  0.193E+00    0.99       1.0  T
  24    -12.0972316  0.102539E+01  0.890E+00    0.00       1.0  T
  25    -13.0803137 -0.983082E+00  0.479E+00    3.09       1.0  T
  26    -13.1163896 -0.360758E-01  0.265E+00    2.92       1.0  T
  27    -13.1217412 -0.535158E-02  0.205E+00    1.35       1.0  T
  28    -12.4432836  0.678458E+00  0.733E+00    0.00       1.0  T
  29    -13.0860096 -0.642726E+00  0.454E+00    3.06       1.0  T
  30    -13.1175445 -0.315349E-01  0.252E+00    2.83       1.0  T
  31    -13.1228391 -0.529469E-02  0.191E+00    0.93       1.0  T
  32    -12.0887531  0.103409E+01  0.905E+00    0.00       1.0  T
  33    -13.0938127 -0.100506E+01  0.414E+00    3.03       1.0  T
  34    -13.1183568 -0.245441E-01  0.242E+00    2.53       1.0  T
  35    -13.1235659 -0.520909E-02  0.181E+00    0.63       1.0  T
  36    -12.0876119  0.103595E+01  0.909E+00    0.00       1.0  T
  37    -13.0991448 -0.101153E+01  0.384E+00    3.01       1.0  T
  38    -13.1189678 -0.198230E-01  0.236E+00    2.31       1.0  T
  39    -13.1239229 -0.495507E-02  0.177E+00    0.51       1.0  T
  40    -12.0879114  0.103601E+01  0.908E+00    0.00       1.0  T
  41    -13.0966917 -0.100878E+01  0.398E+00    3.02       1.0  T
  42    -13.1181233 -0.214316E-01  0.245E+00    2.60       1.0  T
  43    -13.1234754 -0.535217E-02  0.183E+00    0.68       1.0  T
  44    -12.0889471  0.103453E+01  0.904E+00    0.00       1.0  T
  45    -13.0870647 -0.998118E+00  0.448E+00    3.06       1.0  T
  46    -13.1163550 -0.292903E-01  0.263E+00    2.92       1.0  T
  47    -13.1229358 -0.658074E-02  0.190E+00    0.91       1.0  T
  48    -12.0895373  0.103340E+01  0.901E+00    0.00       1.0  T
  49    -13.0792851 -0.989748E+00  0.485E+00    3.09       1.0  T
  50    -13.1155399 -0.362548E-01  0.272E+00    2.92       1.0  T
  51    -13.1229054 -0.736550E-02  0.191E+00    0.94       1.0  T
  52    -12.0890156  0.103389E+01  0.903E+00    0.00       1.0  T
  53    -13.0820168 -0.993001E+00  0.473E+00    3.08       1.0  T
  54    -13.1163378 -0.343210E-01  0.264E+00    2.92       1.0  T
  55    -13.1233300 -0.699217E-02  0.185E+00    0.77       1.0  T
  56    -12.0881635  0.103517E+01  0.907E+00    0.00       1.0  T
  57    -13.0893140 -0.100115E+01  0.438E+00    3.05       1.0  T
  58    -13.1173402 -0.280262E-01  0.254E+00    2.88       1.0  T
  59    -13.1236219 -0.628166E-02  0.181E+00    0.64       1.0  T
  60    -12.0881314  0.103549E+01  0.907E+00    0.00       1.0  T
  61    -13.0894269 -0.100130E+01  0.437E+00    3.05       1.0  T
  62    -13.1171602 -0.277334E-01  0.255E+00    2.92       1.0  T
  63    -13.1234968 -0.633652E-02  0.183E+00    0.69       1.0  T
  64    -12.0886231  0.103487E+01  0.905E+00    0.00       1.0  T
  65    -13.0834602 -0.994837E+00  0.466E+00    3.07       1.0  T
  66    -13.1163431 -0.328828E-01  0.264E+00    2.92       1.0  T
  67    -13.1233255 -0.698245E-02  0.185E+00    0.76       1.0  T
  68    -12.0887156  0.103461E+01  0.905E+00    0.00       1.0  T
  69    -13.0811528 -0.992437E+00  0.477E+00    3.08       1.0  T
  70    -13.1162465 -0.350937E-01  0.265E+00    2.92       1.0  T
  71    -13.1234194 -0.717291E-02  0.184E+00    0.73       1.0  T
  72    -12.0883532  0.103507E+01  0.906E+00    0.00       1.0  T
  73    -13.0845677 -0.996215E+00  0.461E+00    3.07       1.0  T
  74    -13.1167532 -0.321854E-01  0.260E+00    2.92       1.0  T
[...]
   1    -13.1747980 -0.131748E+02  0.903E-02    0.12       0.0  T
   2    -13.1573721  0.174259E-01  0.119E+00    0.20       1.0  T
   3    -13.1748042 -0.174321E-01  0.671E-02    0.12       1.0  T
   4    -13.1748399 -0.357492E-04  0.957E-03    0.12       4.3  T
   5    -13.1748403 -0.364374E-06  0.336E-03    0.12      12.1  T
   6    -13.1748402  0.920313E-07  0.423E-03    0.12       9.7  T
   7    -13.1748378  0.235193E-05  0.143E-02    0.12       2.9  T
   8    -13.1748378  0.682648E-07  0.144E-02    0.12       2.8  T
   9    -13.1748404 -0.263571E-05  0.389E-04    0.12     105.1  T
  10    -13.1748404 -0.144719E-08  0.157E-04    0.12     259.5  T
  11    -13.1748404  0.394876E-08  0.581E-04    0.12      70.2  T
     SCC iter.                  ...        0 min,  0.001 sec
     gradient                   ...        0 min,  0.010 sec
 * total energy  :   -13.1168900 Eh     change       -0.1429393E-04 Eh
   gradient norm :     0.0159528 Eh/α   predicted    -0.2395519E-04 (  67.59%)
   displ. norm   :     0.0085821 α      lambda       -0.3188731E-04
   maximum displ.:     0.0062552 α      in ANC's #3, #6, #5, ...

........................................................................
.............................. CYCLE   23 ..............................
........................................................................
   1    -13.1744724 -0.131745E+02  0.215E-01    0.13       0.0  T
   2    -12.0826374  0.109184E+01  0.895E+00    0.00       1.0  T
   3    -13.1750201 -0.109238E+01  0.513E-02    0.13       1.0  T
   4    -13.1750528 -0.327052E-04  0.768E-03    0.12       5.3  T
   5    -13.1750483  0.447120E-05  0.199E-02    0.12       2.0  T
   6    -13.1750516 -0.333362E-05  0.115E-02    0.12       3.6  T
   7    -13.1750533 -0.160777E-05  0.155E-03    0.12      26.3  T
   8    -13.1750533 -0.233017E-07  0.342E-04    0.12     119.2  T
     SCC iter.                  ...        0 min,  0.001 sec
     gradient                   ...        0 min,  0.001 sec
 * total energy  :   -13.1168013 Eh     change        0.8863118E-04 Eh
   gradient norm :     0.1021512 Eh/α   predicted    -0.1594584E-04 (-117.99%)
   displ. norm   :     0.0243212 α      lambda       -0.1919124E-03
   maximum displ.:     0.0176160 α      in ANC's #3, #1, #4, ...

........................................................................
.............................. CYCLE   24 ..............................
........................................................................
   1    -13.1746395 -0.131746E+02  0.171E-01    0.12       0.0  T
   2    -13.1454962  0.291433E-01  0.159E+00    0.36       1.0  T
   3    -13.1727574 -0.272612E-01  0.423E-01    0.14       1.0  T
   4    -13.1735950 -0.837546E-03  0.332E-01    0.11       1.0  T
   5    -13.1748812 -0.128625E-02  0.957E-02    0.13       1.0  T
   6    -13.1749438 -0.625777E-04  0.641E-02    0.12       1.0  T
   7    -13.1749920 -0.481879E-04  0.177E-02    0.12       2.3  T
   8    -13.1749959 -0.389382E-05  0.117E-03    0.12      34.9  T
   9    -13.1749958  0.597651E-07  0.251E-03    0.12      16.3  T
     SCC iter.                  ...        0 min,  0.001 sec
     gradient                   ...        0 min,  0.001 sec
 * total energy  :   -13.1168903 Eh     change       -0.8896171E-04 Eh
   gradient norm :     0.0146022 Eh/α   predicted    -0.9601481E-04 (   7.93%)
   displ. norm   :     0.0066254 α      lambda       -0.3608340E-04
   maximum displ.:     0.0050508 α      in ANC's #1, #12, #2, ...

........................................................................
.............................. CYCLE   25 ..............................
........................................................................
   1    -13.1744477 -0.131744E+02  0.180E-01    0.12       0.0  T
   2    -13.1449537  0.294940E-01  0.160E+00    0.38       1.0  T
   3    -13.1719488 -0.269950E-01  0.481E-01    0.14       1.0  T
   4    -13.1747453 -0.279648E-02  0.938E-02    0.12       1.0  T
   5    -13.1748567 -0.111404E-03  0.351E-03    0.12      11.6  T
   6    -13.1748536  0.303911E-05  0.156E-02    0.12       2.6  T
   7    -13.1748558 -0.213985E-05  0.892E-03    0.12       4.6  T
   8    -13.1748481  0.764671E-05  0.261E-02    0.12       1.6  T
   9    -13.1748564 -0.825947E-05  0.544E-03    0.12       7.5  T
  10    -13.1748565 -0.165837E-06  0.404E-03    0.12      10.1  T
  11    -13.1748567 -0.157106E-06  0.197E-03    0.12      20.8  T
  12    -13.1748567 -0.487250E-07  0.789E-05    0.12     517.4  T
     SCC iter.                  ...        0 min,  0.001 sec
     gradient                   ...        0 min,  0.001 sec
 * total energy  :   -13.1168548 Eh     change        0.3552724E-04 Eh
   gradient norm :     0.0402151 Eh/α   predicted    -0.1804308E-04 (-150.79%)
   displ. norm   :     0.0056198 α      lambda       -0.8131689E-04
   maximum displ.:     0.0044420 α      in ANC's #3, #12, #4, ...

........................................................................
.............................. CYCLE   26 ..............................
........................................................................
   1    -13.1747490 -0.131747E+02  0.132E-01    0.13       0.0  T
   2    -12.1936035  0.981146E+00  0.847E+00    0.00       1.0  T
   3    -13.1748872 -0.981284E+00  0.808E-02    0.13       1.0  T
   4    -13.1749599 -0.726384E-04  0.281E-02    0.12       1.5  T
   5    -13.1749632 -0.331638E-05  0.231E-02    0.12       1.8  T
   6    -13.1749663 -0.310702E-05  0.170E-02    0.12       2.4  T
   7    -13.1749697 -0.343331E-05  0.370E-03    0.12      11.0  T
   8    -13.1749697 -0.125750E-07  0.349E-03    0.12      11.7  T
     SCC iter.                  ...        0 min,  0.001 sec
     gradient                   ...        0 min,  0.001 sec
 * total energy  :   -13.1168953 Eh     change       -0.4049634E-04 Eh
   gradient norm :     0.0003240 Eh/α   predicted    -0.4065902E-04 (   0.40%)
   displ. norm   :     0.0015715 α      lambda       -0.2577710E-07
   maximum displ.:     0.0012623 α      in ANC's #3, #1, #4, ...

........................................................................
.............................. CYCLE   27 ..............................
........................................................................
   1    -13.1749720 -0.131750E+02  0.222E-03    0.12       0.0  T
   2    -13.1749691  0.298306E-05  0.156E-02    0.12       2.6  T
   3    -13.1749719 -0.285309E-05  0.364E-03    0.12      11.2  T
   4    -13.1749719 -0.285549E-07  0.291E-03    0.12      14.1  T
   5    -13.1749720 -0.871211E-07  0.119E-03    0.12      34.3  T
   6    -13.1749720 -0.134761E-07  0.535E-04    0.12      76.3  T
   7    -13.1749720 -0.312654E-08  0.151E-04    0.12     269.7  T
     SCC iter.                  ...        0 min,  0.001 sec
     gradient                   ...        0 min,  0.001 sec
 * total energy  :   -13.1168953 Eh     change       -0.2743339E-07 Eh
   gradient norm :     0.0001461 Eh/α   predicted    -0.1374882E-07 ( -49.88%)
   displ. norm   :     0.0008494 α      lambda       -0.1608900E-07
   maximum displ.:     0.0006582 α      in ANC's #1, #3, #2, ...

   *** GEOMETRY OPTIMIZATION CONVERGED AFTER 27 ITERATIONS ***

------------------------------------------------------------------------
 total energy gain   :        -7.0211625 Eh    -4405.8460 kcal/mol
 total RMSD          :         0.2813453 a0        0.1489 Å
 total power (kW/mol):      -682.7429516 (step)********** (real)
------------------------------------------------------------------------

 ANCopt (total)                0 d,  0 h,  0 min,  0.726 sec
 optimizer setup                ...        0 min,  0.000 sec (  0.009%)
 model hessian                  ...        0 min,  0.000 sec (  0.024%)
 ANC generation                 ...        0 min,  0.000 sec (  0.020%)
 coordinate transformation      ...        0 min,  0.000 sec (  0.024%)
 single point calculation       ...        0 min,  0.723 sec ( 99.537%)
 optimization log               ...        0 min,  0.001 sec (  0.112%)
 hessian update                 ...        0 min,  0.000 sec (  0.017%)
 rational function              ...        0 min,  0.001 sec (  0.141%)

================
 final structure:
================
6
 xtb: 6.2.3 (830e466)
F        -4.28600768883058   -0.25326092877576    0.07648668926124
Cl        1.92557154165739    0.10903649557312   -0.03608700083672
C        -0.29368999989921   -0.01540659129127    0.00668714975667
H        -0.48084145805984   -0.60095655636291   -0.87163238964166
H        -0.45167561797981   -0.50217146077721    0.94873070462045
H        -0.55628677688794    1.02269904163404   -0.04548515315999
 
 Bond Distances (Angstroems)
 ---------------------------
Cl2-C3=2.2232        C3-Cl2=2.2232        C3-H4=1.0721         C3-H5=1.0721         C3-H6=1.0721         H4-C3=1.0721         
H5-C3=1.0721         H6-C3=1.0721         
 C  H  Rav=1.0721 sigma=0.0000  Rmin=1.0721  Rmax=1.0721     3
 Cl C  Rav=2.2232 sigma=0.0000  Rmin=2.2232  Rmax=2.2232     1
 
 selected bond angles (degree)
 --------------------
H4-C3-Cl2=100.90               H5-C3-Cl2=100.92               H5-C3-H4=116.50                H6-C3-Cl2=100.92               
H6-C3-H4=116.50                H6-C3-H5=116.51                
 
 selected dihedral angles (degree)
 ---------------------------------

 
 CMA Distance (Angstroems)
 ---------------------------
R(CMA):  5.5490
           -------------------------------------------------
          |                Final Singlepoint                |
           -------------------------------------------------

          ...................................................
          :                      SETUP                      :
          :.................................................:
          :  # basis functions                  21          :
          :  # atomic orbitals                  20          :
          :  # shells                           10          :
          :  # electrons                        22          :
          :  max. iterations                   250          :
          :  Hamiltonian                  GFN2-xTB          :
          :  restarted?                      false          :
          :  GBSA solvation                  false          :
          :  PC potential                    false          :
          :  electronic temp.          300.0000000     K    :
          :  accuracy                    1.0000000          :
          :  -> integral cutoff          0.2500000E+02      :
          :  -> integral neglect         0.1000000E-07      :
          :  -> SCF convergence          0.1000000E-05 Eh   :
          :  -> wf. convergence          0.1000000E-03 e    :
          :  Broyden damping             0.4000000          :
          ...................................................

 iter      E             dE          RMSdq      gap      omega  full diag
   1    -13.1749720 -0.131750E+02  0.168E-04    0.12       0.0  T
   2    -13.1749716  0.445671E-06  0.595E-03    0.12       6.9  T
   3    -13.1749720 -0.445834E-06  0.117E-04    0.12     350.1  T
   4    -13.1749720 -0.135783E-09  0.503E-05    0.12     811.4  T

   *** convergence criteria satisfied after 4 iterations ***

         #    Occupation            Energy/Eh            Energy/eV
      -------------------------------------------------------------
         1        2.0000           -0.9016674             -24.5356
       ...           ...                  ...                  ...
         5        2.0000           -0.3629939              -9.8776
         6        2.0000           -0.3149163              -8.5693
         7        2.0000           -0.2741406              -7.4597
         8        2.0000           -0.2741396              -7.4597
         9        1.9089           -0.1571880              -4.2773
        10        1.9024           -0.1571196              -4.2754
        11        1.9024           -0.1571195              -4.2754 (HOMO)
        12        0.2864           -0.1525984              -4.1524 (LUMO)
        13                          0.1898814               5.1669
        14                          0.1898819               5.1669
        15                          0.1910474               5.1987
        16                          0.1910478               5.1987
       ...                                ...                  ...
        20                          0.3868525              10.5268
      -------------------------------------------------------------
                  HL-Gap            0.0045211 Eh            0.1230 eV
             Fermi-level           -0.1542981 Eh           -4.1987 eV

 SCC (total)                   0 d,  0 h,  0 min,  0.002 sec
 SCC setup                      ...        0 min,  0.000 sec (  3.532%)
 Dispersion                     ...        0 min,  0.000 sec (  0.472%)
 integral evaluation            ...        0 min,  0.001 sec ( 35.127%)
 zeroth order Hamiltonian       ...        0 min,  0.000 sec (  0.740%)
 iterations                     ...        0 min,  0.000 sec ( 21.382%)
 molecular gradient             ...        0 min,  0.001 sec ( 31.238%)
 printout                       ...        0 min,  0.000 sec (  6.311%)

         :::::::::::::::::::::::::::::::::::::::::::::::::::::
         ::                     SUMMARY                     ::
         :::::::::::::::::::::::::::::::::::::::::::::::::::::
         :: total energy             -13.116895286939 Eh    ::
         :: gradient norm              0.000147754258 Eh/a0 ::
         :: HOMO-LUMO gap              0.123025652802 eV    ::
         ::.................................................::
         :: SCC energy               -13.174972046734 Eh    ::
         :: -> isotropic ES            0.186713410723 Eh    ::
         :: -> anisotropic ES          0.001231769884 Eh    ::
         :: -> anisotropic XC          0.005041420460 Eh    ::
         :: -> dispersion             -0.001655092838 Eh    ::
         :: repulsion energy           0.058054710349 Eh    ::
         :: add. restraining           0.000025237626 Eh    ::
         :::::::::::::::::::::::::::::::::::::::::::::::::::::

           -------------------------------------------------
          |                Property Printout                |
           -------------------------------------------------

    * Orbital Energies and Occupations

         #    Occupation            Energy/Eh            Energy/eV
      -------------------------------------------------------------
         1        2.0000           -0.9016674             -24.5356
         2        2.0000           -0.4613816             -12.5548
         3        2.0000           -0.4361908             -11.8694
         4        2.0000           -0.3630309              -9.8786
         5        2.0000           -0.3629939              -9.8776
         6        2.0000           -0.3149163              -8.5693
         7        2.0000           -0.2741406              -7.4597
         8        2.0000           -0.2741396              -7.4597
         9        1.9089           -0.1571880              -4.2773
        10        1.9024           -0.1571196              -4.2754
        11        1.9024           -0.1571195              -4.2754 (HOMO)
        12        0.2864           -0.1525984              -4.1524 (LUMO)
        13                          0.1898814               5.1669
        14                          0.1898819               5.1669
        15                          0.1910474               5.1987
        16                          0.1910478               5.1987
        17                          0.2003230               5.4511
        18                          0.2633348               7.1657
        19                          0.3868456              10.5266
        20                          0.3868525              10.5268
      -------------------------------------------------------------
                  HL-Gap            0.0045211 Eh            0.1230 eV
             Fermi-level           -0.1542981 Eh           -4.1987 eV

     #   Z        covCN         q      C6AA      α(0)
     1   9 F      0.000    -0.710    18.650     5.030
     2  17 Cl     0.600    -0.444   112.597    16.221
     3   6 C      3.379    -0.055    25.788     7.914
     4   1 H      0.926     0.070     2.085     2.258
     5   1 H      0.926     0.070     2.086     2.259
     6   1 H      0.926     0.070     2.087     2.259

 Mol. C6AA /au·bohr⁶  :        585.743299
 Mol. C8AA /au·bohr⁸  :      16433.209088
 Mol. α(0) /au        :         35.940874


Wiberg/Mayer (AO) data.
largest (>0.10) Wiberg bond orders for each atom
          total WBO             WBO to atom ...
     1  F   0.004
     2  Cl  0.649        C    3 0.647
     3  C   3.630        H    6 0.993    H    5 0.993    H    4 0.993    Cl   2 0.647
     4  H   0.995        C    3 0.993
     5  H   0.995        C    3 0.993
     6  H   0.995        C    3 0.993

molecular dipole:
                 x           y           z       tot (Debye)
 q only:        3.970       0.239      -0.069
   full:        3.905       0.235      -0.068       9.945
molecular quadrupole (traceless):
                xx          xy          yy          xz          yz          zz
 q only:      -52.629      -4.651      26.190       1.420       0.084      26.439
  q+dip:      -53.397      -4.717      26.572       1.440       0.085      26.824
   full:      -52.576      -4.648      26.164       1.417       0.083      26.412

           -------------------------------------------------
          |                Geometry Summary                 |
           -------------------------------------------------

      molecular mass/u    :       69.4858989
   center of mass at/Å    :       -0.2617537      -0.0174424       0.0041147
  moments of inertia/u·Å² :        0.3351252E+01   0.4809272E+03   0.4809276E+03
rotational constants/cm⁻¹ :        0.5030249E+01   0.3505236E-01   0.3505233E-01

 * 3 selected distances

     #   Z        #   Z                                     value/Å
     3   6 C      4   1 H                                 1.0720726 (min)
     3   6 C      5   1 H                                 1.0720753 (max)
     3   6 C      6   1 H                                 1.0720738

 * 1 distinct bonds (by element types)

   Z      Z             #   av. dist./Å        max./Å        min./Å
   1 H    6 C           3     1.0720739     1.0720753     1.0720726


optimized geometry written to: xtbopt.xyz


           -------------------------------------------------
          | TOTAL ENERGY              -13.116895286939 Eh   |
          | GRADIENT NORM               0.000147754258 Eh/α |
          | HOMO-LUMO GAP               0.123025652802 eV   |
           -------------------------------------------------
########################################################################
[WARNING] Runtime exception occurred
-5- scf: Self consistent charge iterator did not converge
-4- scf: Self consistent charge iterator did not converge
-3- scf: Self consistent charge iterator did not converge
-2- scf: Self consistent charge iterator did not converge
-1- scf: Self consistent charge iterator did not converge
########################################################################

------------------------------------------------------------------------
 * finished run on 2020/04/08 at 23:03:30.908     
------------------------------------------------------------------------
 total:
 * wall-time:     0 d,  0 h,  0 min,  0.751 sec
 *  cpu-time:     0 d,  0 h,  0 min,  0.741 sec
 * ratio c/w:     0.986 speedup
 SCF:
 * wall-time:     0 d,  0 h,  0 min,  0.016 sec
 *  cpu-time:     0 d,  0 h,  0 min,  0.016 sec
 * ratio c/w:     1.000 speedup
 ANC optimizer:
 * wall-time:     0 d,  0 h,  0 min,  0.728 sec
 *  cpu-time:     0 d,  0 h,  0 min,  0.718 sec
 * ratio c/w:     0.986 speedup

