      -----------------------------------------------------------      
     |                   =====================                   |     
     |                           x T B                           |     
     |                   =====================                   |     
     |                         S. Grimme                         |     
     |          Mulliken Center for Theoretical Chemistry        |     
     |                    University of Bonn                     |     
      -----------------------------------------------------------      

   * xtb version 6.2.3 (830e466) compiled by 'ehlert@majestix' on 2020-03-16

   xtb is free software: you can redistribute it and/or modify it under
   the terms of the GNU Lesser General Public License as published by
   the Free Software Foundation, either version 3 of the License, or
   (at your option) any later version.
   
   xtb is distributed in the hope that it will be useful,
   but WITHOUT ANY WARRANTY; without even the implied warranty of
   MERCHANTABILITY or FITNESS FOR A PARTICULAR PURPOSE.  See the
   GNU Lesser General Public License for more details.
   
   Cite this work as:
   * S. Grimme, C. Bannwarth, P. Shushkov, J. Chem. Theory Comput., 2017,
     13, 1989-2009. DOI: 10.1021/acs.jctc.7b00118
   * C. Bannwarth, S. Ehlert and S. Grimme., J. Chem. Theory Comput., 2019,
     15, 1652-1671. DOI: 10.1021/acs.jctc.8b01176
   * P. Pracht, E. Caldeweyher, S. Ehlert, S. Grimme, ChemRxiv, 2019, preprint.
     DOI: 10.26434/chemrxiv.8326202.v1
   
   for DFT-D4:
   * E. Caldeweyher, C. Bannwarth and S. Grimme, J. Chem. Phys., 2017,
     147, 034112. DOI: 10.1063/1.4993215
   * E. Caldeweyher, S. Ehlert, A. Hansen, H. Neugebauer, S. Spicher,
     C. Bannwarth and S. Grimme, J. Chem. Phys., 2019, 150, 154122.
     DOI: 10.1063/1.5090222
   
   for sTDA-xTB:
   * S. Grimme and C. Bannwarth, J. Chem. Phys., 2016, 145, 054103.
     DOI: 10.1063/1.4959605
   
   in the mass-spec context:
   * V. Asgeirsson, C. Bauer and S. Grimme, Chem. Sci., 2017, 8, 4879.
     DOI: 10.1039/c7sc00601b
   
   for metadynamics refer to:
   * S. Grimme, J. Chem. Theory Comput., 2019, 155, 2847-2862
     DOI: 10.1021/acs.jctc.9b00143
   
   with help from (in alphabetical order)
   C. Bannwarth, F. Bohle, G. Brandenburg, E. Caldeweyher, M. Checinski,
   S. Dohm, S. Ehlert, S. Ehrlich, F. März, H. Neugebauer, J. Pisarek,
   P. Pracht, P. Shushkov, and S. Spicher.
   
 * started run on 2020/04/08 at 23:04:04.569     

           -------------------------------------------------
          |                Calculation Setup                |
           -------------------------------------------------

          program call               : /home/tom/.local/bin/xtb SN2_PES_scan_3-2_xtb.xyz --chrg -1 --opt --input xcontrol_SN2_PES_scan_3-2
          coordinate file            : SN2_PES_scan_3-2_xtb.xyz
          omp threads                :                     1
          number of atoms            :                     6
          number of electrons        :                    22
          charge                     :                    -1
          spin                       :                   0.0
          first test random number   :      0.18493739502489

constraining bond 1 3 to    2.5000000 Å, actual value:    2.9997966 Å
constraining bond 2 3 to    2.6680000 Å, actual value:    2.2231235 Å

molecular fragmentation (1/2 indicates fragments):
122222
# atoms in fragment 1/2:     1     5
 fragment masses (1/2) :       19.00       50.49
CMA distance (Bohr)    :   8.595
constraining FC (au)   : 10.0000
########################################################################
[WARNING] Please study the warnings concerning your input carefully
-2- prog_main: XTBPATH is not set, using XTBHOME instead
-1- prog_main: XTBHOME is not set, using HOME instead
########################################################################
           ------------------------------------------------- 
          |                 G F N 2 - x T B                 |
          | Geometry, Frequencies, Noncovalent interactions |
          |            JCTC 2019 parametrisation            |
           ------------------------------------------------- 
             k(s)              :                1.8500
             k(p)              :                2.2300
             k(d)              :                2.2300
             k(f)              :                2.0000
             kEN (H0ij)        :               -2.0000
             D4 a1             :                0.5200
             D4 a2             :                5.0000
             D4 s6             :                1.0000
             D4 s8             :                2.7000
             D4 s9             :                5.0000
             alphaj            :                2.0000

  Z AO/shell   Hii/eV     exponent
  1     Wed Apr 25 08:07:45 CEST 2018   EN: 2.200 GM2: 0.406  GM3: 0.0800  RAES: 1.40
     1s    -10.707211    1.230000
  6     Wed Apr 25 08:07:45 CEST 2018   EN: 2.550 GM2: 0.538  GM3: 0.1500  RAES: 3.00
     2s    -13.970922    2.096432
     2p    -10.063292    1.800000
  9     Mon Apr 23 13:58:50 CEST 2018   EN: 3.980 GM2: 0.532  GM3: 0.1426  RAES: 2.40
     2s    -23.458179    2.416361
     2p    -15.746583    2.308399
 17     Mon Apr 23 14:09:22 CEST 2018   EN: 3.160 GM2: 0.249  GM3: 0.1495  RAES: 2.50
     3s    -29.278781    2.485265
     3p    -12.673758    2.199650
     3d     -0.240338    2.476089

           ------------------------------------------------- 
          |        Self-Consistent Charge Iterations        |
           ------------------------------------------------- 

          ...................................................
          :                      SETUP                      :
          :.................................................:
          :  # basis functions                  21          :
          :  # atomic orbitals                  20          :
          :  # shells                           10          :
          :  # electrons                        22          :
          :  max. iterations                   250          :
          :  Hamiltonian                  GFN2-xTB          :
          :  restarted?                      false          :
          :  GBSA solvation                  false          :
          :  PC potential                    false          :
          :  electronic temp.          300.0000000     K    :
          :  accuracy                    1.0000000          :
          :  -> integral cutoff          0.2500000E+02      :
          :  -> integral neglect         0.1000000E-07      :
          :  -> SCF convergence          0.1000000E-05 Eh   :
          :  -> wf. convergence          0.1000000E-03 e    :
          :  Broyden damping             0.4000000          :
          ...................................................

 iter      E             dE          RMSdq      gap      omega  full diag
   1    -13.0367366 -0.130367E+02  0.726E+00    2.28       0.0  T
   2    -12.0748699  0.961867E+00  0.953E+00    0.00       1.0  T
   3    -13.1367058 -0.106184E+01  0.368E+00    3.62       1.0  T
   4    -13.1473732 -0.106674E-01  0.282E+00    3.25       1.0  T
   5    -13.1623868 -0.150136E-01  0.130E+00    0.78       1.0  T
   6    -13.0621468  0.100240E+00  0.361E+00    0.15       1.0  T
   7    -12.8705353  0.191611E+00  0.550E+00    0.11       1.0  T
   8    -13.1567476 -0.286212E+00  0.166E+00    1.35       1.0  T
   9    -13.1608329 -0.408530E-02  0.138E+00    0.89       1.0  T
  10    -13.1603204  0.512532E-03  0.140E+00    0.92       1.0  T
  11    -13.0616638  0.986565E-01  0.362E+00    0.15       1.0  T
  12    -12.4251241  0.636540E+00  0.810E+00    0.06       1.0  T
  13    -13.1775783 -0.752454E+00  0.452E-01    0.36       1.0  T
  14    -12.6913542  0.486224E+00  0.669E+00    0.09       1.0  T
  15    -13.1116195 -0.420265E+00  0.278E+00    0.17       1.0  T
  16    -12.3879603  0.723659E+00  0.825E+00    0.06       1.0  T
  17    -13.1418286 -0.753868E+00  0.209E+00    0.20       1.0  T
  18    -12.4198513  0.721977E+00  0.810E+00    0.06       1.0  T
  19    -13.0587893 -0.638938E+00  0.353E+00    0.16       1.0  T
  20    -12.4318991  0.626890E+00  0.805E+00    0.07       1.0  T
  21    -12.9144742 -0.482575E+00  0.505E+00    0.13       1.0  T
  22    -12.4933283  0.421146E+00  0.775E+00    0.08       1.0  T
  23    -12.7485430 -0.255215E+00  0.630E+00    0.10       1.0  T
  24    -12.5717564  0.176787E+00  0.735E+00    0.09       1.0  T
  25    -12.6497952 -0.780388E-01  0.691E+00    0.09       1.0  T
  26    -12.6132437  0.365515E-01  0.712E+00    0.09       1.0  T
  27    -12.6270530 -0.138092E-01  0.704E+00    0.09       1.0  T
  28    -12.6158387  0.112143E-01  0.710E+00    0.09       1.0  T
  29    -12.6566770 -0.408383E-01  0.685E+00    0.10       1.0  T
  30    -12.6611043 -0.442730E-02  0.682E+00    0.10       1.0  T
  31    -13.1782099 -0.517106E+00  0.202E+00    0.38       1.0  T
  32    -13.1756377  0.257212E-02  0.862E-01    0.26       1.0  T
  33    -13.1777168 -0.207908E-02  0.677E-01    0.38       1.0  T
  34    -13.1777321 -0.152724E-04  0.426E-01    0.37       1.0  T
  35    -13.1780454 -0.313321E-03  0.313E-01    0.36       1.0  T
  36    -13.1785741 -0.528672E-03  0.169E-01    0.34       1.0  T
  37    -13.1788107 -0.236659E-03  0.656E-02    0.33       1.0  T
  38    -13.1788440 -0.332652E-04  0.358E-02    0.33       1.1  T
  39    -13.1788483 -0.431676E-05  0.300E-02    0.33       1.4  T
  40    -13.1788517 -0.338277E-05  0.246E-02    0.33       1.7  T
  41    -13.1788547 -0.299799E-05  0.184E-02    0.33       2.2  T
  42    -13.1788565 -0.180495E-05  0.133E-02    0.33       3.1  T
  43    -13.1788579 -0.139070E-05  0.734E-03    0.33       5.6  T
  44    -13.1788585 -0.578524E-06  0.179E-03    0.32      22.7  T
  45    -13.1788585 -0.355938E-07  0.361E-04    0.32     113.0  T
  46    -13.1788585  0.250425E-08  0.597E-04    0.32      68.4  T

   *** convergence criteria satisfied after 46 iterations ***

         #    Occupation            Energy/Eh            Energy/eV
      -------------------------------------------------------------
         1        2.0000           -0.8901413             -24.2220
       ...           ...                  ...                  ...
         5        2.0000           -0.3468148              -9.4373
         6        2.0000           -0.3014483              -8.2028
         7        2.0000           -0.2629844              -7.1562
         8        2.0000           -0.2629841              -7.1562
         9        1.9993           -0.1502345              -4.0881
        10        1.9975           -0.1490735              -4.0565
        11        1.9975           -0.1490727              -4.0565 (HOMO)
        12        0.0057           -0.1371482              -3.7320 (LUMO)
        13                          0.2027599               5.5174
        14                          0.2027619               5.5174
        15                          0.2037883               5.5454
        16                          0.2037894               5.5454
       ...                                ...                  ...
        20                          0.4035254              10.9805
      -------------------------------------------------------------
                  HL-Gap            0.0119244 Eh            0.3245 eV
             Fermi-level           -0.1427153 Eh           -3.8835 eV

 SCC (total)                   0 d,  0 h,  0 min,  0.006 sec
 SCC setup                      ...        0 min,  0.000 sec (  1.046%)
 Dispersion                     ...        0 min,  0.000 sec (  0.238%)
 integral evaluation            ...        0 min,  0.001 sec ( 11.109%)
 zeroth order Hamiltonian       ...        0 min,  0.000 sec (  0.238%)
 iterations                     ...        0 min,  0.004 sec ( 75.453%)
 molecular gradient             ...        0 min,  0.001 sec ( 10.613%)
 printout                       ...        0 min,  0.000 sec (  0.894%)

         :::::::::::::::::::::::::::::::::::::::::::::::::::::
         ::                     SUMMARY                     ::
         :::::::::::::::::::::::::::::::::::::::::::::::::::::
         :: total energy               2.867405006543 Eh    ::
         :: gradient norm             43.722161404576 Eh/a0 ::
         :: HOMO-LUMO gap              0.324480779819 eV    ::
         ::.................................................::
         :: SCC energy               -13.178858519716 Eh    ::
         :: -> isotropic ES            0.194908880956 Eh    ::
         :: -> anisotropic ES          0.001227131314 Eh    ::
         :: -> anisotropic XC          0.004920162571 Eh    ::
         :: -> dispersion             -0.001890651757 Eh    ::
         :: repulsion energy           0.058192589161 Eh    ::
         :: add. restraining          15.988072038289 Eh    ::
         :::::::::::::::::::::::::::::::::::::::::::::::::::::

      ----------------------------------------------------------- 
     |                   =====================                   |
     |                        A N C O P T                        |
     |                   =====================                   |
     |               Approximate Normal Coordinate               |
     |                Rational Function Optimizer                |
      ----------------------------------------------------------- 

          ...................................................
          :                      SETUP                      :
          :.................................................:
          :   optimization level            normal          :
          :   max. optcycles                   200          :
          :   ANC micro-cycles                  20          :
          :   degrees of freedom                12          :
          :.................................................:
          :   RF solver                   davidson          :
          :   write xtbopt.log                true          :
          :   linear?                        false          :
          :   energy convergence         0.5000000E-05 Eh   :
          :   grad. convergence          0.1000000E-02 Eh/α :
          :   maximium RF displ.         1.0000000          :
          :   Hlow (freq-cutoff)         0.1000000E-01      :
          :   Hmax (freq-cutoff)         5.0000000          :
          :   S6 in model hess.         20.0000000          :
          ...................................................

generating ANC from model Hessian ...
Using Lindh-Hessian (1995)
 Shifting diagonal of input Hessian by    3.08778385128391     
 Lowest  eigenvalues of input Hessian
    0.010000    0.010149   -0.000000   -0.000000   -0.000000    0.000000
    0.000000    0.000000    3.129896    3.220650    3.220671    3.541100
    3.607312    3.607315    4.883283    4.883350   23.124582   63.277968
 Highest eigenvalues
    3.607312    3.607315    4.883283    4.883350   23.124582   63.277968
 

........................................................................
.............................. CYCLE    1 ..............................
........................................................................
   1    -13.1788585 -0.131789E+02  0.177E-04    0.32       0.0  T
   2    -13.1788585  0.255837E-07  0.175E-03    0.32      23.3  T
   3    -13.1788585 -0.248470E-07  0.381E-04    0.32     107.1  T
   4    -13.1788585 -0.108645E-08  0.207E-05    0.32    1973.1  T
     SCC iter.                  ...        0 min,  0.000 sec
     gradient                   ...        0 min,  0.001 sec
 * total energy  :     2.8674050 Eh     change        0.5372979E-08 Eh
   gradient norm :    43.7221769 Eh/α   predicted     0.0000000E+00 (-100.00%)
   displ. norm   :     0.9444543 α      lambda       -0.4129360E+02
   maximum displ.:     0.9438471 α      in ANC's #11, #12, #6, ...

........................................................................
.............................. CYCLE    2 ..............................
........................................................................
   1    -12.6744451 -0.126744E+02  0.917E+00    0.35       0.0  T
   2    -12.8696367 -0.195192E+00  0.867E+00    3.55       1.0  T
   3    -13.0931389 -0.223502E+00  0.410E+00    1.18       1.0  T
   4    -13.1433345 -0.501956E-01  0.200E+00    1.26       1.0  T
   5    -13.1339440  0.939045E-02  0.230E+00    0.91       1.0  T
   6    -13.1058134  0.281306E-01  0.375E+00    0.96       1.0  T
   7    -13.1217522 -0.159388E-01  0.288E+00    1.11       1.0  T
   8    -13.1489495 -0.271973E-01  0.152E+00    0.99       1.0  T
   9    -13.1528924 -0.394292E-02  0.133E+00    1.11       1.0  T
  10    -13.1612057 -0.831329E-02  0.523E-01    1.21       1.0  T
  11    -13.1599818  0.122386E-02  0.683E-01    1.15       1.0  T
  12    -13.1614439 -0.146206E-02  0.439E-01    1.15       1.0  T
  13    -13.1623229 -0.878986E-03  0.180E-01    1.16       1.0  T
  14    -13.1624779 -0.155026E-03  0.672E-02    1.16       1.0  T
  15    -13.1625012 -0.233343E-04  0.138E-02    1.17       3.0  T
  16    -13.1624977  0.357069E-05  0.282E-02    1.17       1.4  T
  17    -13.1625013 -0.366011E-05  0.129E-02    1.17       3.2  T
  18    -13.1625023 -0.959188E-06  0.248E-04    1.17     164.3  T
  19    -13.1625023  0.845736E-09  0.456E-04    1.17      89.5  T
     SCC iter.                  ...        0 min,  0.001 sec
     gradient                   ...        0 min,  0.001 sec
 * total energy  :   -11.6987589 Eh     change       -0.1456616E+02 Eh
   gradient norm :    12.9311902 Eh/α   predicted    -0.3906362E+02 ( 168.18%)
   displ. norm   :     0.2409689 α      lambda       -0.2773492E+01
   maximum displ.:     0.2069098 α      in ANC's #11, #12, #3, ...

........................................................................
.............................. CYCLE    3 ..............................
........................................................................
   1    -13.1587264 -0.131587E+02  0.174E+00    1.37       0.0  T
   2    -13.0500729  0.108654E+00  0.429E+00    0.55       1.0  T
   3    -13.1601818 -0.110109E+00  0.158E+00    1.35       1.0  T
   4    -13.1718605 -0.116788E-01  0.415E-01    1.15       1.0  T
   5    -13.1729590 -0.109848E-02  0.167E-01    1.04       1.0  T
   6    -13.1729881 -0.290850E-04  0.688E-02    1.04       1.0  T
   7    -13.1730110 -0.229168E-04  0.298E-02    1.05       1.4  T
   8    -13.1730149 -0.389560E-05  0.138E-02    1.05       3.0  T
   9    -13.1730152 -0.253174E-06  0.809E-03    1.05       5.0  T
  10    -13.1730155 -0.368689E-06  0.223E-03    1.05      18.3  T
  11    -13.1730155 -0.145297E-07  0.939E-05    1.05     434.8  T
     SCC iter.                  ...        0 min,  0.001 sec
     gradient                   ...        0 min,  0.001 sec
 * total energy  :   -13.0375816 Eh     change       -0.1338823E+01 Eh
   gradient norm :     1.6971829 Eh/α   predicted    -0.1467270E+01 (   9.59%)
   displ. norm   :     0.2677879 α      lambda       -0.4505289E+00
   maximum displ.:     0.2638360 α      in ANC's #12, #11, #6, ...

........................................................................
.............................. CYCLE    4 ..............................
........................................................................
   1    -13.1639360 -0.131639E+02  0.587E-01    0.73       0.0  T
   2    -13.1560153  0.792070E-02  0.128E+00    0.96       1.0  T
   3    -13.1624929 -0.647762E-02  0.649E-01    0.68       1.0  T
   4    -13.1648678 -0.237490E-02  0.161E-01    0.75       1.0  T
   5    -13.1649022 -0.343705E-04  0.648E-02    0.75       1.0  T
   6    -13.1649303 -0.280920E-04  0.188E-02    0.77       2.2  T
   7    -13.1649316 -0.126735E-05  0.440E-03    0.76       9.3  T
   8    -13.1649316 -0.113649E-07  0.342E-03    0.76      12.0  T
     SCC iter.                  ...        0 min,  0.001 sec
     gradient                   ...        0 min,  0.001 sec
 * total energy  :   -12.7297898 Eh     change        0.3077918E+00 Eh
   gradient norm :     4.2843824 Eh/α   predicted    -0.2414182E+00 (-178.44%)
   displ. norm   :     0.1801585 α      lambda       -0.7268234E+00
   maximum displ.:     0.1763716 α      in ANC's #12, #11, #6, ...

........................................................................
.............................. CYCLE    5 ..............................
........................................................................
   1    -13.1693346 -0.131693E+02  0.362E-01    0.97       0.0  T
   2    -13.1676513  0.168330E-02  0.600E-01    0.87       1.0  T
   3    -13.1689740 -0.132266E-02  0.363E-01    1.02       1.0  T
   4    -13.1696031 -0.629131E-03  0.133E-01    0.97       1.0  T
   5    -13.1696630 -0.599436E-04  0.232E-02    0.95       1.8  T
   6    -13.1696655 -0.249096E-05  0.611E-03    0.95       6.7  T
   7    -13.1696656 -0.425088E-07  0.260E-03    0.95      15.7  T
   8    -13.1696656  0.409646E-08  0.209E-03    0.96      19.5  T
     SCC iter.                  ...        0 min,  0.001 sec
     gradient                   ...        0 min,  0.001 sec
 * total energy  :   -13.1050356 Eh     change       -0.3752457E+00 Eh
   gradient norm :     0.1324360 Eh/α   predicted    -0.3752072E+00 (  -0.01%)
   displ. norm   :     0.0098334 α      lambda       -0.9336745E-03
   maximum displ.:     0.0064598 α      in ANC's #12, #1, #6, ...

........................................................................
.............................. CYCLE    6 ..............................
........................................................................
   1    -13.1694690 -0.131695E+02  0.335E-02    0.97       0.0  T
   2    -13.1694123  0.567478E-04  0.102E-01    0.94       1.0  T
   3    -13.1694742 -0.619481E-04  0.868E-03    0.96       4.7  T
   4    -13.1694745 -0.228258E-06  0.415E-03    0.96       9.8  T
   5    -13.1694745 -0.303656E-07  0.112E-03    0.96      36.3  T
     SCC iter.                  ...        0 min,  0.000 sec
     gradient                   ...        0 min,  0.001 sec
 * total energy  :   -13.1055423 Eh     change       -0.5067301E-03 Eh
   gradient norm :     0.0169428 Eh/α   predicted    -0.4668816E-03 (  -7.86%)
   displ. norm   :     0.1171438 α      lambda       -0.2414558E-03
   maximum displ.:     0.1152188 α      in ANC's #1, #2, #6, ...

........................................................................
.............................. CYCLE    7 ..............................
........................................................................
   1    -13.1685045 -0.131685E+02  0.177E-01    0.97       0.0  T
   2    -13.1684746  0.298822E-04  0.136E-01    0.95       1.0  T
   3    -13.1682146  0.259974E-03  0.240E-01    1.00       1.0  T
   4    -13.1685179 -0.303264E-03  0.227E-02    0.96       1.8  T
   5    -13.1685174  0.461958E-06  0.163E-02    0.96       2.5  T
   6    -13.1685183 -0.886498E-06  0.491E-03    0.96       8.3  T
   7    -13.1685184 -0.846873E-07  0.260E-03    0.96      15.7  T
   8    -13.1685184 -0.331434E-07  0.841E-04    0.96      48.6  T
     SCC iter.                  ...        0 min,  0.001 sec
     gradient                   ...        0 min,  0.001 sec
 * total energy  :   -13.1043952 Eh     change        0.1147123E-02 Eh
   gradient norm :     0.0540140 Eh/α   predicted    -0.1223878E-03 (-110.67%)
   displ. norm   :     0.1049299 α      lambda       -0.2409658E-02
   maximum displ.:     0.1025143 α      in ANC's #1, #2, #6, ...

........................................................................
.............................. CYCLE    8 ..............................
........................................................................
   1    -13.1687365 -0.131687E+02  0.158E-01    0.97       0.0  T
   2    -13.1687126  0.239512E-04  0.122E-01    0.95       1.0  T
   3    -13.1684949  0.217673E-03  0.215E-01    1.00       1.0  T
   4    -13.1687470 -0.252066E-03  0.198E-02    0.96       2.1  T
   5    -13.1687466  0.393508E-06  0.149E-02    0.96       2.7  T
   6    -13.1687475 -0.919385E-06  0.335E-03    0.96      12.2  T
   7    -13.1687475 -0.313824E-07  0.212E-03    0.96      19.3  T
     SCC iter.                  ...        0 min,  0.000 sec
     gradient                   ...        0 min,  0.001 sec
 * total energy  :   -13.1056926 Eh     change       -0.1297465E-02 Eh
   gradient norm :     0.0293460 Eh/α   predicted    -0.1218092E-02 (  -6.12%)
   displ. norm   :     0.0914690 α      lambda       -0.2298547E-03
   maximum displ.:     0.0856876 α      in ANC's #2, #1, #6, ...

........................................................................
.............................. CYCLE    9 ..............................
........................................................................
   1    -13.1678957 -0.131679E+02  0.161E-01    0.97       0.0  T
   2    -13.1678613  0.343591E-04  0.131E-01    0.95       1.0  T
   3    -13.1676794  0.181869E-03  0.208E-01    1.00       1.0  T
   4    -13.1679053 -0.225871E-03  0.165E-02    0.96       2.5  T
   5    -13.1679052  0.923105E-07  0.950E-03    0.96       4.3  T
   6    -13.1679055 -0.247192E-06  0.376E-03    0.96      10.9  T
   7    -13.1679055 -0.424676E-07  0.227E-03    0.96      18.0  T
     SCC iter.                  ...        0 min,  0.000 sec
     gradient                   ...        0 min,  0.001 sec
 * total energy  :   -13.1050796 Eh     change        0.6130425E-03 Eh
   gradient norm :     0.0422004 Eh/α   predicted    -0.1158879E-03 (-118.90%)
   displ. norm   :     0.0842116 α      lambda       -0.1626741E-02
   maximum displ.:     0.0828558 α      in ANC's #2, #6, #3, ...

........................................................................
.............................. CYCLE   10 ..............................
........................................................................
   1    -13.1672434 -0.131672E+02  0.151E-01    0.97       0.0  T
   2    -13.1670763  0.167094E-03  0.198E-01    0.93       1.0  T
   3    -13.1672067 -0.130394E-03  0.124E-01    0.98       1.0  T
   4    -13.1672639 -0.571519E-04  0.157E-02    0.96       2.6  T
   5    -13.1672637  0.141564E-06  0.108E-02    0.96       3.8  T
   6    -13.1672643 -0.541083E-06  0.266E-03    0.96      15.3  T
   7    -13.1672643 -0.281572E-07  0.114E-03    0.96      35.9  T
     SCC iter.                  ...        0 min,  0.000 sec
     gradient                   ...        0 min,  0.001 sec
 * total energy  :   -13.1059743 Eh     change       -0.8947082E-03 Eh
   gradient norm :     0.0160354 Eh/α   predicted    -0.8191459E-03 (  -8.45%)
   displ. norm   :     0.0225089 α      lambda       -0.2469134E-03
   maximum displ.:     0.0134019 α      in ANC's #1, #6, #3, ...

........................................................................
.............................. CYCLE   11 ..............................
........................................................................
   1    -13.1663252 -0.131663E+02  0.650E-02    0.97       0.0  T
   2    -13.1661156  0.209602E-03  0.196E-01    0.93       1.0  T
   3    -13.1663445 -0.228918E-03  0.190E-02    0.96       2.1  T
   4    -13.1663448 -0.216901E-06  0.433E-03    0.96       9.4  T
   5    -13.1663448 -0.330454E-07  0.230E-03    0.96      17.7  T
   6    -13.1663448 -0.775136E-08  0.107E-03    0.96      38.0  T
     SCC iter.                  ...        0 min,  0.000 sec
     gradient                   ...        0 min,  0.001 sec
 * total energy  :   -13.1061743 Eh     change       -0.2000215E-03 Eh
   gradient norm :     0.0198651 Eh/α   predicted    -0.1235213E-03 ( -38.25%)
   displ. norm   :     0.0600910 α      lambda       -0.5872289E-03
   maximum displ.:     0.0452154 α      in ANC's #6, #3, #2, ...

........................................................................
.............................. CYCLE   12 ..............................
........................................................................
   1    -13.1627845 -0.131628E+02  0.197E-01    1.00       0.0  T
   2    -13.1602724  0.251212E-02  0.664E-01    0.85       1.0  T
   3    -13.1629861 -0.271371E-02  0.471E-02    0.97       1.0  T
   4    -13.1629884 -0.232510E-05  0.147E-02    0.96       2.8  T
   5    -13.1629897 -0.124707E-05  0.309E-03    0.96      13.2  T
   6    -13.1629897 -0.190765E-07  0.177E-03    0.96      23.1  T
   7    -13.1629897 -0.479223E-08  0.137E-03    0.96      29.8  T
     SCC iter.                  ...        0 min,  0.001 sec
     gradient                   ...        0 min,  0.001 sec
 * total energy  :   -13.1065435 Eh     change       -0.3691599E-03 Eh
   gradient norm :     0.0192004 Eh/α   predicted    -0.2946758E-03 ( -20.18%)
   displ. norm   :     0.0304045 α      lambda       -0.1791667E-03
   maximum displ.:     0.0217275 α      in ANC's #3, #6, #2, ...

........................................................................
.............................. CYCLE   13 ..............................
........................................................................
   1    -13.1617993 -0.131618E+02  0.867E-02    0.98       0.0  T
   2    -13.1613721  0.427237E-03  0.277E-01    0.91       1.0  T
   3    -13.1618382 -0.466095E-03  0.229E-02    0.96       1.8  T
   4    -13.1618378  0.324035E-06  0.136E-02    0.96       3.0  T
   5    -13.1618383 -0.517453E-06  0.206E-03    0.96      19.8  T
   6    -13.1618384 -0.624556E-08  0.145E-03    0.96      28.1  T
     SCC iter.                  ...        0 min,  0.000 sec
     gradient                   ...        0 min,  0.001 sec
 * total energy  :   -13.1066790 Eh     change       -0.1355346E-03 Eh
   gradient norm :     0.0189259 Eh/α   predicted    -0.8966551E-04 ( -33.84%)
   displ. norm   :     0.0398139 α      lambda       -0.2466004E-03
   maximum displ.:     0.0326605 α      in ANC's #3, #6, #2, ...

........................................................................
.............................. CYCLE   14 ..............................
........................................................................
   1    -13.1612199 -0.131612E+02  0.970E-02    0.98       0.0  T
   2    -13.1607298  0.490065E-03  0.297E-01    0.91       1.0  T
   3    -13.1612661 -0.536300E-03  0.332E-02    0.96       1.2  T
   4    -13.1612662 -0.489502E-07  0.222E-02    0.96       1.8  T
   5    -13.1612668 -0.642378E-06  0.271E-03    0.96      15.1  T
   6    -13.1612668 -0.144284E-07  0.174E-03    0.96      23.5  T
     SCC iter.                  ...        0 min,  0.000 sec
     gradient                   ...        0 min,  0.001 sec
 * total energy  :   -13.1068653 Eh     change       -0.1862353E-03 Eh
   gradient norm :     0.0187673 Eh/α   predicted    -0.1234952E-03 ( -33.69%)
   displ. norm   :     0.0518426 α      lambda       -0.3439315E-03
   maximum displ.:     0.0475710 α      in ANC's #3, #2, #6, ...

........................................................................
.............................. CYCLE   15 ..............................
........................................................................
   1    -13.1617135 -0.131617E+02  0.109E-01    0.98       0.0  T
   2    -13.1612598  0.453746E-03  0.288E-01    0.91       1.0  T
   3    -13.1617617 -0.501885E-03  0.489E-02    0.96       1.0  T
   4    -13.1617638 -0.214433E-05  0.331E-02    0.96       1.2  T
   5    -13.1617650 -0.122269E-05  0.348E-03    0.96      11.7  T
   6    -13.1617650 -0.315962E-07  0.195E-03    0.96      21.0  T
   7    -13.1617651 -0.151952E-07  0.569E-04    0.96      71.7  T
     SCC iter.                  ...        0 min,  0.000 sec
     gradient                   ...        0 min,  0.001 sec
 * total energy  :   -13.1071285 Eh     change       -0.2632303E-03 Eh
   gradient norm :     0.0290081 Eh/α   predicted    -0.1724282E-03 ( -34.50%)
   displ. norm   :     0.0695175 α      lambda       -0.4937963E-03
   maximum displ.:     0.0685532 α      in ANC's #3, #6, #2, ...

........................................................................
.............................. CYCLE   16 ..............................
........................................................................
   1    -13.1636718 -0.131637E+02  0.138E-01    0.97       0.0  T
   2    -13.1633313  0.340525E-03  0.259E-01    0.91       1.0  T
   3    -13.1636958 -0.364578E-03  0.976E-02    0.97       1.0  T
   4    -13.1637310 -0.351898E-04  0.465E-02    0.95       1.0  T
   5    -13.1637339 -0.288262E-05  0.423E-03    0.95       9.7  T
   6    -13.1637340 -0.566099E-07  0.191E-03    0.95      21.3  T
     SCC iter.                  ...        0 min,  0.000 sec
     gradient                   ...        0 min,  0.001 sec
 * total energy  :   -13.1074878 Eh     change       -0.3592842E-03 Eh
   gradient norm :     0.0340179 Eh/α   predicted    -0.2480892E-03 ( -30.95%)
   displ. norm   :     0.0574781 α      lambda       -0.3922918E-03
   maximum displ.:     0.0564456 α      in ANC's #3, #2, #6, ...

........................................................................
.............................. CYCLE   17 ..............................
........................................................................
   1    -13.1664497 -0.131664E+02  0.117E-01    0.96       0.0  T
   2    -13.1664240  0.256235E-04  0.112E-01    0.93       1.0  T
   3    -13.1664225  0.149807E-05  0.102E-01    0.97       1.0  T
   4    -13.1664740 -0.514933E-04  0.495E-02    0.94       1.0  T
   5    -13.1664813 -0.731568E-05  0.304E-03    0.95      13.4  T
   6    -13.1664814 -0.997559E-08  0.100E-03    0.95      40.8  T
   7    -13.1664814 -0.152874E-08  0.333E-04    0.95     122.7  T
     SCC iter.                  ...        0 min,  0.000 sec
     gradient                   ...        0 min,  0.001 sec
 * total energy  :   -13.1077432 Eh     change       -0.2554022E-03 Eh
   gradient norm :     0.0200233 Eh/α   predicted    -0.1967922E-03 ( -22.95%)
   displ. norm   :     0.0205308 α      lambda       -0.9154709E-04
   maximum displ.:     0.0145525 α      in ANC's #3, #2, #6, ...

........................................................................
.............................. CYCLE   18 ..............................
........................................................................
   1    -13.1677834 -0.131678E+02  0.437E-02    0.95       0.0  T
   2    -13.1677802  0.324763E-05  0.414E-02    0.95       1.0  T
   3    -13.1677793  0.943859E-06  0.387E-02    0.94       1.1  T
   4    -13.1677861 -0.679866E-05  0.143E-02    0.95       2.9  T
   5    -13.1677867 -0.602447E-06  0.193E-03    0.95      21.1  T
   6    -13.1677867 -0.360788E-08  0.402E-04    0.95     101.6  T
     SCC iter.                  ...        0 min,  0.000 sec
     gradient                   ...        0 min,  0.001 sec
 * total energy  :   -13.1077965 Eh     change       -0.5328565E-04 Eh
   gradient norm :     0.0061875 Eh/α   predicted    -0.4579356E-04 ( -14.06%)
   displ. norm   :     0.0052798 α      lambda       -0.6516261E-05
   maximum displ.:     0.0047183 α      in ANC's #2, #3, #6, ...

........................................................................
.............................. CYCLE   19 ..............................
........................................................................
   1    -13.1678868 -0.131679E+02  0.922E-03    0.95       0.0  T
   2    -13.1678860  0.819367E-06  0.130E-02    0.95       3.1  T
   3    -13.1678867 -0.723485E-06  0.750E-03    0.95       5.4  T
   4    -13.1678869 -0.177434E-06  0.265E-03    0.95      15.4  T
   5    -13.1678869 -0.256809E-07  0.646E-04    0.95      63.2  T
     SCC iter.                  ...        0 min,  0.000 sec
     gradient                   ...        0 min,  0.001 sec
 * total energy  :   -13.1078003 Eh     change       -0.3782951E-05 Eh
   gradient norm :     0.0011775 Eh/α   predicted    -0.3257171E-05 ( -13.90%)
   displ. norm   :     0.0031715 α      lambda       -0.3853215E-06
   maximum displ.:     0.0028960 α      in ANC's #3, #2, #1, ...

........................................................................
.............................. CYCLE   20 ..............................
........................................................................
   1    -13.1678382 -0.131678E+02  0.598E-03    0.95       0.0  T
   2    -13.1678379  0.320442E-06  0.842E-03    0.95       4.8  T
   3    -13.1678381 -0.271844E-06  0.543E-03    0.95       7.5  T
   4    -13.1678383 -0.134398E-06  0.198E-03    0.95      20.6  T
   5    -13.1678383 -0.419308E-08  0.225E-04    0.95     181.4  T
   6    -13.1678383 -0.887397E-10  0.745E-05    0.95     547.6  T
     SCC iter.                  ...        0 min,  0.000 sec
     gradient                   ...        0 min,  0.001 sec
 * total energy  :   -13.1078004 Eh     change       -0.1876540E-06 Eh
   gradient norm :     0.0006072 Eh/α   predicted    -0.1931478E-06 (   2.93%)
   displ. norm   :     0.0006973 α      lambda       -0.4536053E-07
   maximum displ.:     0.0005264 α      in ANC's #3, #2, #1, ...

   *** GEOMETRY OPTIMIZATION CONVERGED AFTER 20 ITERATIONS ***

------------------------------------------------------------------------
 total energy gain   :       -15.9752054 Eh   -10024.5928 kcal/mol
 total RMSD          :         0.3300527 a0        0.1747 Å
 total power (kW/mol):     -2097.1448075 (step)********** (real)
------------------------------------------------------------------------

 ANCopt (total)                0 d,  0 h,  0 min,  0.039 sec
 optimizer setup                ...        0 min,  0.000 sec (  0.126%)
 model hessian                  ...        0 min,  0.000 sec (  0.205%)
 ANC generation                 ...        0 min,  0.000 sec (  0.164%)
 coordinate transformation      ...        0 min,  0.000 sec (  0.224%)
 single point calculation       ...        0 min,  0.037 sec ( 94.651%)
 optimization log               ...        0 min,  0.001 sec (  1.306%)
 hessian update                 ...        0 min,  0.000 sec (  0.257%)
 rational function              ...        0 min,  0.001 sec (  1.650%)

================
 final structure:
================
6
 xtb: 6.2.3 (830e466)
F        -3.19347149181114   -0.18590825045733    0.06097265704463
Cl        1.96343836504378    0.11785957328695   -0.02752932451413
C        -0.69883346151594   -0.04112833063665    0.01087020971389
H        -0.71675955734406   -0.62508998298928   -0.88250188970855
H        -0.69467711965468   -0.52538348118705    0.96207788093379
H        -0.80261673471796    1.01958047198337   -0.04518953346961
 
 Bond Distances (Angstroems)
 ---------------------------
C3-H4=1.0674         C3-H5=1.0674         C3-H6=1.0672         H4-C3=1.0674         H5-C3=1.0674         H6-C3=1.0672         
 C  H  Rav=1.0674 sigma=0.0001  Rmin=1.0672  Rmax=1.0674     3
 
 selected bond angles (degree)
 --------------------
H5-C3-H4=119.85                H6-C3-H4=119.88                H6-C3-H5=119.87                
 
 selected dihedral angles (degree)
 ---------------------------------

 
 CMA Distance (Angstroems)
 ---------------------------
R(CMA):  4.3700
           -------------------------------------------------
          |                Final Singlepoint                |
           -------------------------------------------------

          ...................................................
          :                      SETUP                      :
          :.................................................:
          :  # basis functions                  21          :
          :  # atomic orbitals                  20          :
          :  # shells                           10          :
          :  # electrons                        22          :
          :  max. iterations                   250          :
          :  Hamiltonian                  GFN2-xTB          :
          :  restarted?                      false          :
          :  GBSA solvation                  false          :
          :  PC potential                    false          :
          :  electronic temp.          300.0000000     K    :
          :  accuracy                    1.0000000          :
          :  -> integral cutoff          0.2500000E+02      :
          :  -> integral neglect         0.1000000E-07      :
          :  -> SCF convergence          0.1000000E-05 Eh   :
          :  -> wf. convergence          0.1000000E-03 e    :
          :  Broyden damping             0.4000000          :
          ...................................................

 iter      E             dE          RMSdq      gap      omega  full diag
   1    -13.1678383 -0.131678E+02  0.442E-05    0.95       0.0  T
   2    -13.1678383  0.399858E-11  0.466E-05    0.95     876.4  T
   3    -13.1678383 -0.181188E-11  0.435E-05    0.95     937.9  T

   *** convergence criteria satisfied after 3 iterations ***

         #    Occupation            Energy/Eh            Energy/eV
      -------------------------------------------------------------
         1        2.0000           -0.8529916             -23.2111
       ...           ...                  ...                  ...
         5        2.0000           -0.3490824              -9.4990
         6        2.0000           -0.2529384              -6.8828
         7        2.0000           -0.2334028              -6.3512
         8        2.0000           -0.2334022              -6.3512
         9        2.0000           -0.2141430              -5.8271
        10        2.0000           -0.2094305              -5.6989
        11        2.0000           -0.2094301              -5.6989 (HOMO)
        12                         -0.1745294              -4.7492 (LUMO)
        13                          0.2523536               6.8669
        14                          0.2523541               6.8669
        15                          0.2533539               6.8941
        16                          0.2534680               6.8972
       ...                                ...                  ...
        20                          0.4265804              11.6078
      -------------------------------------------------------------
                  HL-Gap            0.0349007 Eh            0.9497 eV
             Fermi-level           -0.1916489 Eh           -5.2150 eV

 SCC (total)                   0 d,  0 h,  0 min,  0.002 sec
 SCC setup                      ...        0 min,  0.000 sec (  2.939%)
 Dispersion                     ...        0 min,  0.000 sec (  0.515%)
 integral evaluation            ...        0 min,  0.001 sec ( 39.200%)
 zeroth order Hamiltonian       ...        0 min,  0.000 sec (  0.757%)
 iterations                     ...        0 min,  0.000 sec ( 14.859%)
 molecular gradient             ...        0 min,  0.001 sec ( 37.670%)
 printout                       ...        0 min,  0.000 sec (  2.863%)

         :::::::::::::::::::::::::::::::::::::::::::::::::::::
         ::                     SUMMARY                     ::
         :::::::::::::::::::::::::::::::::::::::::::::::::::::
         :: total energy             -13.107800438094 Eh    ::
         :: gradient norm              0.000607131464 Eh/a0 ::
         :: HOMO-LUMO gap              0.949696081696 eV    ::
         ::.................................................::
         :: SCC energy               -13.167838288511 Eh    ::
         :: -> isotropic ES            0.172824546142 Eh    ::
         :: -> anisotropic ES          0.000875714458 Eh    ::
         :: -> anisotropic XC          0.005322443994 Eh    ::
         :: -> dispersion             -0.001887163363 Eh    ::
         :: repulsion energy           0.060005260342 Eh    ::
         :: add. restraining           0.000033585641 Eh    ::
         :::::::::::::::::::::::::::::::::::::::::::::::::::::

           -------------------------------------------------
          |                Property Printout                |
           -------------------------------------------------

    * Orbital Energies and Occupations

         #    Occupation            Energy/Eh            Energy/eV
      -------------------------------------------------------------
         1        2.0000           -0.8529916             -23.2111
         2        2.0000           -0.4940108             -13.4427
         3        2.0000           -0.4442783             -12.0894
         4        2.0000           -0.3491475              -9.5008
         5        2.0000           -0.3490824              -9.4990
         6        2.0000           -0.2529384              -6.8828
         7        2.0000           -0.2334028              -6.3512
         8        2.0000           -0.2334022              -6.3512
         9        2.0000           -0.2141430              -5.8271
        10        2.0000           -0.2094305              -5.6989
        11        2.0000           -0.2094301              -5.6989 (HOMO)
        12                         -0.1745294              -4.7492 (LUMO)
        13                          0.2523536               6.8669
        14                          0.2523541               6.8669
        15                          0.2533539               6.8941
        16                          0.2534680               6.8972
        17                          0.2534681               6.8972
        18                          0.2609892               7.1019
        19                          0.4261594              11.5964
        20                          0.4265804              11.6078
      -------------------------------------------------------------
                  HL-Gap            0.0349007 Eh            0.9497 eV
             Fermi-level           -0.1916489 Eh           -5.2150 eV

     #   Z        covCN         q      C6AA      α(0)
     1   9 F      0.000    -0.601    16.844     4.780
     2  17 Cl     0.050    -0.650   113.521    16.216
     3   6 C      2.831    -0.025    28.610     8.765
     4   1 H      0.927     0.092     1.861     2.133
     5   1 H      0.927     0.092     1.856     2.131
     6   1 H      0.927     0.092     1.857     2.131

 Mol. C6AA /au·bohr⁶  :        578.679441
 Mol. C8AA /au·bohr⁸  :      16430.417212
 Mol. α(0) /au        :         36.155721


Wiberg/Mayer (AO) data.
largest (>0.10) Wiberg bond orders for each atom
          total WBO             WBO to atom ...
     1  F   0.638        C    3 0.498    Cl   2 0.140
     2  Cl  0.578        C    3 0.438    F    1 0.140
     3  C   3.907        H    4 0.990    H    6 0.990    H    5 0.990    F    1 0.498    Cl   2 0.438
     4  H   0.992        C    3 0.990
     5  H   0.991        C    3 0.990
     6  H   0.991        C    3 0.990

molecular dipole:
                 x           y           z       tot (Debye)
 q only:        0.864       0.046      -0.029
   full:        0.937       0.050      -0.030       2.387
molecular quadrupole (traceless):
                xx          xy          yy          xz          yz          zz
 q only:      -30.861      -2.726      15.358       0.815       0.046      15.503
  q+dip:      -31.301      -2.765      15.577       0.829       0.047      15.724
   full:      -30.460      -2.689      15.159       0.809       0.046      15.301

           -------------------------------------------------
          |                Geometry Summary                 |
           -------------------------------------------------

      molecular mass/u    :       69.4858989
   center of mass at/Å    :       -0.0242688       0.0002964       0.0050025
  moments of inertia/u·Å² :        0.3440918E+01   0.3408889E+03   0.3408895E+03
rotational constants/cm⁻¹ :        0.4899167E+01   0.4945198E-01   0.4945190E-01

 * 3 selected distances

     #   Z        #   Z                                     value/Å
     3   6 C      4   1 H                                 1.0674485 (max)
     3   6 C      5   1 H                                 1.0673876
     3   6 C      6   1 H                                 1.0672473 (min)

 * 1 distinct bonds (by element types)

   Z      Z             #   av. dist./Å        max./Å        min./Å
   1 H    6 C           3     1.0673611     1.0674485     1.0672473


optimized geometry written to: xtbopt.xyz


           -------------------------------------------------
          | TOTAL ENERGY              -13.107800438094 Eh   |
          | GRADIENT NORM               0.000607131464 Eh/α |
          | HOMO-LUMO GAP               0.949696081696 eV   |
           -------------------------------------------------

------------------------------------------------------------------------
 * finished run on 2020/04/08 at 23:04:04.623     
------------------------------------------------------------------------
 total:
 * wall-time:     0 d,  0 h,  0 min,  0.053 sec
 *  cpu-time:     0 d,  0 h,  0 min,  0.053 sec
 * ratio c/w:     0.993 speedup
 SCF:
 * wall-time:     0 d,  0 h,  0 min,  0.006 sec
 *  cpu-time:     0 d,  0 h,  0 min,  0.006 sec
 * ratio c/w:     0.949 speedup
 ANC optimizer:
 * wall-time:     0 d,  0 h,  0 min,  0.041 sec
 *  cpu-time:     0 d,  0 h,  0 min,  0.041 sec
 * ratio c/w:     1.000 speedup

