      -----------------------------------------------------------      
     |                   =====================                   |     
     |                           x T B                           |     
     |                   =====================                   |     
     |                         S. Grimme                         |     
     |          Mulliken Center for Theoretical Chemistry        |     
     |                    University of Bonn                     |     
      -----------------------------------------------------------      

   * xtb version 6.2.3 (830e466) compiled by 'ehlert@majestix' on 2020-03-16

   xtb is free software: you can redistribute it and/or modify it under
   the terms of the GNU Lesser General Public License as published by
   the Free Software Foundation, either version 3 of the License, or
   (at your option) any later version.
   
   xtb is distributed in the hope that it will be useful,
   but WITHOUT ANY WARRANTY; without even the implied warranty of
   MERCHANTABILITY or FITNESS FOR A PARTICULAR PURPOSE.  See the
   GNU Lesser General Public License for more details.
   
   Cite this work as:
   * S. Grimme, C. Bannwarth, P. Shushkov, J. Chem. Theory Comput., 2017,
     13, 1989-2009. DOI: 10.1021/acs.jctc.7b00118
   * C. Bannwarth, S. Ehlert and S. Grimme., J. Chem. Theory Comput., 2019,
     15, 1652-1671. DOI: 10.1021/acs.jctc.8b01176
   * P. Pracht, E. Caldeweyher, S. Ehlert, S. Grimme, ChemRxiv, 2019, preprint.
     DOI: 10.26434/chemrxiv.8326202.v1
   
   for DFT-D4:
   * E. Caldeweyher, C. Bannwarth and S. Grimme, J. Chem. Phys., 2017,
     147, 034112. DOI: 10.1063/1.4993215
   * E. Caldeweyher, S. Ehlert, A. Hansen, H. Neugebauer, S. Spicher,
     C. Bannwarth and S. Grimme, J. Chem. Phys., 2019, 150, 154122.
     DOI: 10.1063/1.5090222
   
   for sTDA-xTB:
   * S. Grimme and C. Bannwarth, J. Chem. Phys., 2016, 145, 054103.
     DOI: 10.1063/1.4959605
   
   in the mass-spec context:
   * V. Asgeirsson, C. Bauer and S. Grimme, Chem. Sci., 2017, 8, 4879.
     DOI: 10.1039/c7sc00601b
   
   for metadynamics refer to:
   * S. Grimme, J. Chem. Theory Comput., 2019, 155, 2847-2862
     DOI: 10.1021/acs.jctc.9b00143
   
   with help from (in alphabetical order)
   C. Bannwarth, F. Bohle, G. Brandenburg, E. Caldeweyher, M. Checinski,
   S. Dohm, S. Ehlert, S. Ehrlich, F. März, H. Neugebauer, J. Pisarek,
   P. Pracht, P. Shushkov, and S. Spicher.
   
 * started run on 2020/04/08 at 23:04:06.885     

           -------------------------------------------------
          |                Calculation Setup                |
           -------------------------------------------------

          program call               : /home/tom/.local/bin/xtb SN2_PES_scan_5-4_xtb.xyz --chrg -1 --opt --input xcontrol_SN2_PES_scan_5-4
          coordinate file            : SN2_PES_scan_5-4_xtb.xyz
          omp threads                :                     1
          number of atoms            :                     6
          number of electrons        :                    22
          charge                     :                    -1
          spin                       :                   0.0
          first test random number   :      0.56358936657435

constraining bond 1 3 to    1.5000000 Å, actual value:    1.9985685 Å
constraining bond 2 3 to    3.5560000 Å, actual value:    3.1116936 Å

molecular fragmentation (1/2 indicates fragments):
122222
# atoms in fragment 1/2:     1     5
 fragment masses (1/2) :       19.00       50.49
CMA distance (Bohr)    :   7.922
constraining FC (au)   : 10.0000
########################################################################
[WARNING] Please study the warnings concerning your input carefully
-2- prog_main: XTBPATH is not set, using XTBHOME instead
-1- prog_main: XTBHOME is not set, using HOME instead
########################################################################
           ------------------------------------------------- 
          |                 G F N 2 - x T B                 |
          | Geometry, Frequencies, Noncovalent interactions |
          |            JCTC 2019 parametrisation            |
           ------------------------------------------------- 
             k(s)              :                1.8500
             k(p)              :                2.2300
             k(d)              :                2.2300
             k(f)              :                2.0000
             kEN (H0ij)        :               -2.0000
             D4 a1             :                0.5200
             D4 a2             :                5.0000
             D4 s6             :                1.0000
             D4 s8             :                2.7000
             D4 s9             :                5.0000
             alphaj            :                2.0000

  Z AO/shell   Hii/eV     exponent
  1     Wed Apr 25 08:07:45 CEST 2018   EN: 2.200 GM2: 0.406  GM3: 0.0800  RAES: 1.40
     1s    -10.707211    1.230000
  6     Wed Apr 25 08:07:45 CEST 2018   EN: 2.550 GM2: 0.538  GM3: 0.1500  RAES: 3.00
     2s    -13.970922    2.096432
     2p    -10.063292    1.800000
  9     Mon Apr 23 13:58:50 CEST 2018   EN: 3.980 GM2: 0.532  GM3: 0.1426  RAES: 2.40
     2s    -23.458179    2.416361
     2p    -15.746583    2.308399
 17     Mon Apr 23 14:09:22 CEST 2018   EN: 3.160 GM2: 0.249  GM3: 0.1495  RAES: 2.50
     3s    -29.278781    2.485265
     3p    -12.673758    2.199650
     3d     -0.240338    2.476089

           ------------------------------------------------- 
          |        Self-Consistent Charge Iterations        |
           ------------------------------------------------- 

          ...................................................
          :                      SETUP                      :
          :.................................................:
          :  # basis functions                  21          :
          :  # atomic orbitals                  20          :
          :  # shells                           10          :
          :  # electrons                        22          :
          :  max. iterations                   250          :
          :  Hamiltonian                  GFN2-xTB          :
          :  restarted?                      false          :
          :  GBSA solvation                  false          :
          :  PC potential                    false          :
          :  electronic temp.          300.0000000     K    :
          :  accuracy                    1.0000000          :
          :  -> integral cutoff          0.2500000E+02      :
          :  -> integral neglect         0.1000000E-07      :
          :  -> SCF convergence          0.1000000E-05 Eh   :
          :  -> wf. convergence          0.1000000E-03 e    :
          :  Broyden damping             0.4000000          :
          ...................................................

 iter      E             dE          RMSdq      gap      omega  full diag
   1    -13.0849761 -0.130850E+02  0.693E+00    3.83       0.0  T
   2    -13.0744880  0.104881E-01  0.412E+00    1.53       1.0  T
   3    -13.1558127 -0.813247E-01  0.387E+00    1.44       1.0  T
   4    -13.1382554  0.175572E-01  0.361E+00    0.40       1.0  T
   5    -13.1827977 -0.445423E-01  0.139E+00    0.78       1.0  T
   6    -13.1876992 -0.490145E-02  0.338E-01    1.01       1.0  T
   7    -13.1879356 -0.236414E-03  0.114E-01    0.90       1.0  T
   8    -13.1879442 -0.859104E-05  0.699E-02    0.93       1.0  T
   9    -13.1879504 -0.629051E-05  0.492E-02    0.93       1.0  T
  10    -13.1879548 -0.439970E-05  0.333E-02    0.94       1.2  T
  11    -13.1879573 -0.242404E-05  0.171E-02    0.93       2.4  T
  12    -13.1879579 -0.618741E-06  0.975E-03    0.93       4.2  T
  13    -13.1879580 -0.100581E-06  0.751E-03    0.93       5.4  T
  14    -13.1879581 -0.139238E-06  0.154E-03    0.92      26.4  T
  15    -13.1879581 -0.618594E-08  0.509E-04    0.92      80.2  T
  16    -13.1879581 -0.782618E-09  0.127E-04    0.92     321.8  T

   *** convergence criteria satisfied after 16 iterations ***

         #    Occupation            Energy/Eh            Energy/eV
      -------------------------------------------------------------
         1        2.0000           -0.8126612             -22.1136
       ...           ...                  ...                  ...
         5        2.0000           -0.3669021              -9.9839
         6        2.0000           -0.3081884              -8.3862
         7        2.0000           -0.2784284              -7.5764
         8        2.0000           -0.2784224              -7.5763
         9        2.0000           -0.2080972              -5.6626
        10        2.0000           -0.2044012              -5.5620
        11        2.0000           -0.2044003              -5.5620 (HOMO)
        12                         -0.1704304              -4.6376 (LUMO)
        13                          0.2517023               6.8492
        14                          0.3058707               8.3232
        15                          0.3058753               8.3233
        16                          0.3059671               8.3258
       ...                                ...                  ...
        20                          0.3963677              10.7857
      -------------------------------------------------------------
                  HL-Gap            0.0339698 Eh            0.9244 eV
             Fermi-level           -0.1870815 Eh           -5.0907 eV

 SCC (total)                   0 d,  0 h,  0 min,  0.003 sec
 SCC setup                      ...        0 min,  0.000 sec (  2.317%)
 Dispersion                     ...        0 min,  0.000 sec (  0.467%)
 integral evaluation            ...        0 min,  0.001 sec ( 22.823%)
 zeroth order Hamiltonian       ...        0 min,  0.000 sec (  0.501%)
 iterations                     ...        0 min,  0.001 sec ( 49.550%)
 molecular gradient             ...        0 min,  0.001 sec ( 21.465%)
 printout                       ...        0 min,  0.000 sec (  2.105%)

         :::::::::::::::::::::::::::::::::::::::::::::::::::::
         ::                     SUMMARY                     ::
         :::::::::::::::::::::::::::::::::::::::::::::::::::::
         :: total energy               2.796795539451 Eh    ::
         :: gradient norm             43.722321284139 Eh/a0 ::
         :: HOMO-LUMO gap              0.924366423465 eV    ::
         ::.................................................::
         :: SCC energy               -13.187958137591 Eh    ::
         :: -> isotropic ES            0.168570260443 Eh    ::
         :: -> anisotropic ES         -0.001385837943 Eh    ::
         :: -> anisotropic XC          0.005259191158 Eh    ::
         :: -> dispersion             -0.001796235722 Eh    ::
         :: repulsion energy           0.058570222316 Eh    ::
         :: add. restraining          15.926184227443 Eh    ::
         :::::::::::::::::::::::::::::::::::::::::::::::::::::

      ----------------------------------------------------------- 
     |                   =====================                   |
     |                        A N C O P T                        |
     |                   =====================                   |
     |               Approximate Normal Coordinate               |
     |                Rational Function Optimizer                |
      ----------------------------------------------------------- 

          ...................................................
          :                      SETUP                      :
          :.................................................:
          :   optimization level            normal          :
          :   max. optcycles                   200          :
          :   ANC micro-cycles                  20          :
          :   degrees of freedom                12          :
          :.................................................:
          :   RF solver                   davidson          :
          :   write xtbopt.log                true          :
          :   linear?                        false          :
          :   energy convergence         0.5000000E-05 Eh   :
          :   grad. convergence          0.1000000E-02 Eh/α :
          :   maximium RF displ.         1.0000000          :
          :   Hlow (freq-cutoff)         0.1000000E-01      :
          :   Hmax (freq-cutoff)         5.0000000          :
          :   S6 in model hess.         20.0000000          :
          ...................................................

generating ANC from model Hessian ...
Using Lindh-Hessian (1995)
 Shifting diagonal of input Hessian by   0.748259020577103     
 Lowest  eigenvalues of input Hessian
    0.010000    0.010599   -0.000000   -0.000000   -0.000000    0.000000
    0.000000    0.000000    0.778551    0.889398    0.889503    1.191905
    1.447767    1.448161    6.840426    6.841306   20.787805   60.905346
 Highest eigenvalues
    1.447767    1.448161    6.840426    6.841306   20.787805   60.905346
 

........................................................................
.............................. CYCLE    1 ..............................
........................................................................
   1    -13.1879581 -0.131880E+02  0.782E-06    0.92       0.0  T
   2    -13.1879581  0.284217E-13  0.602E-06    0.92    6782.0  T
   3    -13.1879581 -0.170530E-12  0.187E-06    0.92   21796.1  T
     SCC iter.                  ...        0 min,  0.000 sec
     gradient                   ...        0 min,  0.001 sec
 * total energy  :     2.7967955 Eh     change       -0.7819345E-09 Eh
   gradient norm :    43.7223234 Eh/α   predicted     0.0000000E+00 (-100.00%)
   displ. norm   :     0.9444547 α      lambda       -0.4129374E+02
   maximum displ.:     0.9439515 α      in ANC's #9, #12, #6, ...

........................................................................
.............................. CYCLE    2 ..............................
........................................................................
   1    -13.1799371 -0.131799E+02  0.255E+00    9.60       0.0  T
   2    -13.1939778 -0.140407E-01  0.137E+00    8.54       1.0  T
   3    -13.1953850 -0.140713E-02  0.750E-01    8.23       1.0  T
   4    -13.1955112 -0.126207E-03  0.298E-01    7.89       1.0  T
   5    -13.1955477 -0.365690E-04  0.268E-02    7.84       1.5  T
   6    -13.1955481 -0.340006E-06  0.131E-02    7.84       3.1  T
   7    -13.1955481 -0.482964E-07  0.190E-03    7.84      21.5  T
   8    -13.1955481 -0.465907E-08  0.916E-04    7.84      44.6  T
     SCC iter.                  ...        0 min,  0.001 sec
     gradient                   ...        0 min,  0.001 sec
 * total energy  :   -11.7428381 Eh     change       -0.1453963E+02 Eh
   gradient norm :    13.0792172 Eh/α   predicted    -0.3906377E+02 ( 168.67%)
   displ. norm   :     0.2413072 α      lambda       -0.2821285E+01
   maximum displ.:     0.2082591 α      in ANC's #9, #12, #3, ...

........................................................................
.............................. CYCLE    3 ..............................
........................................................................
   1    -13.2116391 -0.132116E+02  0.425E-01    6.12       0.0  T
   2    -13.2119238 -0.284645E-03  0.232E-01    6.28       1.0  T
   3    -13.2119730 -0.492519E-04  0.121E-01    6.38       1.0  T
   4    -13.2119743 -0.129151E-05  0.125E-02    6.40       3.3  T
   5    -13.2119744 -0.956905E-07  0.928E-03    6.40       4.4  T
   6    -13.2119745 -0.111140E-06  0.344E-03    6.40      11.9  T
   7    -13.2119745 -0.178030E-07  0.150E-03    6.40      27.2  T
     SCC iter.                  ...        0 min,  0.001 sec
     gradient                   ...        0 min,  0.001 sec
 * total energy  :   -13.1113994 Eh     change       -0.1368561E+01 Eh
   gradient norm :     1.6223018 Eh/α   predicted    -0.1492784E+01 (   9.08%)
   displ. norm   :     0.2654459 α      lambda       -0.4210284E+00
   maximum displ.:     0.2562455 α      in ANC's #12, #9, #3, ...

........................................................................
.............................. CYCLE    4 ..............................
........................................................................
   1    -13.2052716 -0.132053E+02  0.520E-01    3.23       0.0  T
   2    -13.2054740 -0.202404E-03  0.300E-01    3.38       1.0  T
   3    -13.2055132 -0.392150E-04  0.107E-01    3.50       1.0  T
   4    -13.2055164 -0.322968E-05  0.259E-02    3.50       1.6  T
   5    -13.2055173 -0.869880E-06  0.173E-02    3.50       2.4  T
   6    -13.2055176 -0.277244E-06  0.564E-03    3.51       7.2  T
   7    -13.2055176 -0.483354E-07  0.273E-03    3.51      14.9  T
     SCC iter.                  ...        0 min,  0.000 sec
     gradient                   ...        0 min,  0.001 sec
 * total energy  :   -12.8181993 Eh     change        0.2932002E+00 Eh
   gradient norm :     4.1590843 Eh/α   predicted    -0.2253473E+00 (-176.86%)
   displ. norm   :     0.1772552 α      lambda       -0.6933880E+00
   maximum displ.:     0.1726751 α      in ANC's #12, #9, #3, ...

........................................................................
.............................. CYCLE    5 ..............................
........................................................................
   1    -13.2181356 -0.132181E+02  0.366E-01    5.65       0.0  T
   2    -13.2181928 -0.572136E-04  0.214E-01    5.56       1.0  T
   3    -13.2182071 -0.142799E-04  0.508E-02    5.47       1.0  T
   4    -13.2182085 -0.143421E-05  0.133E-02    5.48       3.1  T
   5    -13.2182087 -0.119965E-06  0.542E-03    5.48       7.5  T
   6    -13.2182087 -0.333958E-07  0.311E-03    5.48      13.1  T
     SCC iter.                  ...        0 min,  0.000 sec
     gradient                   ...        0 min,  0.001 sec
 * total energy  :   -13.1773366 Eh     change       -0.3591373E+00 Eh
   gradient norm :     0.1446340 Eh/α   predicted    -0.3575868E+00 (  -0.43%)
   displ. norm   :     0.0623129 α      lambda       -0.4174414E-02
   maximum displ.:     0.0488247 α      in ANC's #3, #6, #1, ...

........................................................................
.............................. CYCLE    6 ..............................
........................................................................
   1    -13.2262848 -0.132263E+02  0.555E-02    5.58       0.0  T
   2    -13.2262867 -0.184550E-05  0.354E-02    5.59       1.2  T
   3    -13.2262870 -0.323423E-06  0.135E-02    5.60       3.0  T
   4    -13.2262870 -0.192885E-07  0.275E-03    5.60      14.9  T
   5    -13.2262870 -0.128206E-07  0.762E-04    5.60      53.6  T
     SCC iter.                  ...        0 min,  0.000 sec
     gradient                   ...        0 min,  0.001 sec
 * total energy  :   -13.1805986 Eh     change       -0.3261980E-02 Eh
   gradient norm :     0.0406260 Eh/α   predicted    -0.2095319E-02 ( -35.77%)
   displ. norm   :     0.2145447 α      lambda       -0.5562930E-02
   maximum displ.:     0.1399439 α      in ANC's #1, #3, #2, ...

........................................................................
.............................. CYCLE    7 ..............................
........................................................................
   1    -13.2410644 -0.132411E+02  0.197E-01    5.63       0.0  T
   2    -13.2410766 -0.121776E-04  0.124E-01    5.66       1.0  T
   3    -13.2410791 -0.257939E-05  0.293E-02    5.68       1.4  T
   4    -13.2410795 -0.322493E-06  0.311E-03    5.67      13.1  T
   5    -13.2410795 -0.498803E-08  0.185E-03    5.67      22.1  T
     SCC iter.                  ...        0 min,  0.000 sec
     gradient                   ...        0 min,  0.001 sec
 * total energy  :   -13.1822156 Eh     change       -0.1616995E-02 Eh
   gradient norm :     0.0881696 Eh/α   predicted    -0.2909493E-02 (  79.93%)
   displ. norm   :     0.5091501 α      lambda       -0.8403931E-02
   maximum displ.:     0.4018316 α      in ANC's #1, #2, #3, ...

........................................................................
.............................. CYCLE    8 ..............................
........................................................................
   1    -13.2536362 -0.132536E+02  0.444E-01    5.53       0.0  T
   2    -13.2536710 -0.347323E-04  0.275E-01    5.56       1.0  T
   3    -13.2536797 -0.876406E-05  0.453E-02    5.60       1.0  T
   4    -13.2536805 -0.774191E-06  0.158E-02    5.59       2.6  T
   5    -13.2536806 -0.136397E-06  0.419E-03    5.59       9.7  T
   6    -13.2536807 -0.185358E-07  0.211E-03    5.59      19.4  T
     SCC iter.                  ...        0 min,  0.000 sec
     gradient                   ...        0 min,  0.001 sec
 * total energy  :   -13.1747204 Eh     change        0.7495186E-02 Eh
   gradient norm :     0.1449193 Eh/α   predicted    -0.5291309E-02 (-170.60%)
   displ. norm   :     0.2953310 α      lambda       -0.1643075E-01
   maximum displ.:     0.2193437 α      in ANC's #1, #2, #3, ...

........................................................................
.............................. CYCLE    9 ..............................
........................................................................
   1    -13.2431068 -0.132431E+02  0.258E-01    5.71       0.0  T
   2    -13.2431278 -0.209442E-04  0.155E-01    5.67       1.0  T
   3    -13.2431325 -0.470418E-05  0.389E-02    5.64       1.0  T
   4    -13.2431328 -0.320543E-06  0.388E-03    5.65      10.5  T
   5    -13.2431328 -0.122537E-07  0.227E-03    5.65      18.0  T
     SCC iter.                  ...        0 min,  0.000 sec
     gradient                   ...        0 min,  0.001 sec
 * total energy  :   -13.1837441 Eh     change       -0.9023691E-02 Eh
   gradient norm :     0.0393218 Eh/α   predicted    -0.8931931E-02 (  -1.02%)
   displ. norm   :     0.1308612 α      lambda       -0.5184747E-03
   maximum displ.:     0.1285006 α      in ANC's #2, #1, #6, ...

........................................................................
.............................. CYCLE   10 ..............................
........................................................................
   1    -13.2417455 -0.132417E+02  0.153E-01    5.64       0.0  T
   2    -13.2417472 -0.164982E-05  0.949E-02    5.64       1.0  T
   3    -13.2417476 -0.449522E-06  0.922E-03    5.64       4.4  T
   4    -13.2417477 -0.545491E-07  0.385E-03    5.64      10.6  T
   5    -13.2417477 -0.115169E-07  0.139E-03    5.64      29.4  T
     SCC iter.                  ...        0 min,  0.000 sec
     gradient                   ...        0 min,  0.001 sec
 * total energy  :   -13.1833362 Eh     change        0.4078968E-03 Eh
   gradient norm :     0.0298957 Eh/α   predicted    -0.2636771E-03 (-164.64%)
   displ. norm   :     0.1446887 α      lambda       -0.1579091E-02
   maximum displ.:     0.1169035 α      in ANC's #1, #2, #3, ...

........................................................................
.............................. CYCLE   11 ..............................
........................................................................
   1    -13.2412155 -0.132412E+02  0.174E-01    5.64       0.0  T
   2    -13.2412176 -0.205930E-05  0.107E-01    5.63       1.0  T
   3    -13.2412181 -0.509846E-06  0.101E-02    5.64       4.1  T
   4    -13.2412182 -0.714140E-07  0.457E-03    5.63       8.9  T
   5    -13.2412182 -0.151493E-07  0.138E-03    5.64      29.5  T
     SCC iter.                  ...        0 min,  0.000 sec
     gradient                   ...        0 min,  0.001 sec
 * total energy  :   -13.1838297 Eh     change       -0.4934964E-03 Eh
   gradient norm :     0.0469937 Eh/α   predicted    -0.8060646E-03 (  63.34%)
   displ. norm   :     0.0711674 α      lambda       -0.5091850E-03
   maximum displ.:     0.0658204 α      in ANC's #1, #2, #3, ...

........................................................................
.............................. CYCLE   12 ..............................
........................................................................
   1    -13.2422338 -0.132422E+02  0.678E-02    5.64       0.0  T
   2    -13.2422343 -0.459702E-06  0.421E-02    5.64       1.0  T
   3    -13.2422344 -0.132568E-06  0.503E-03    5.64       8.1  T
   4    -13.2422344 -0.150576E-07  0.987E-04    5.64      41.4  T
     SCC iter.                  ...        0 min,  0.000 sec
     gradient                   ...        0 min,  0.001 sec
 * total energy  :   -13.1840227 Eh     change       -0.1930725E-03 Eh
   gradient norm :     0.0176502 Eh/α   predicted    -0.2558838E-03 (  32.53%)
   displ. norm   :     0.0212574 α      lambda       -0.8422717E-04
   maximum displ.:     0.0185380 α      in ANC's #2, #1, #3, ...

........................................................................
.............................. CYCLE   13 ..............................
........................................................................
   1    -13.2417790 -0.132418E+02  0.226E-02    5.64       0.0  T
   2    -13.2417792 -0.152166E-06  0.135E-02    5.64       3.0  T
   3    -13.2417792 -0.936995E-08  0.353E-03    5.64      11.6  T
   4    -13.2417792 -0.490757E-08  0.826E-04    5.64      49.4  T
   5    -13.2417792 -0.494660E-09  0.303E-04    5.64     134.6  T
     SCC iter.                  ...        0 min,  0.000 sec
     gradient                   ...        0 min,  0.001 sec
 * total energy  :   -13.1840795 Eh     change       -0.5680537E-04 Eh
   gradient norm :     0.0044728 Eh/α   predicted    -0.4213461E-04 ( -25.83%)
   displ. norm   :     0.0155984 α      lambda       -0.5133297E-04
   maximum displ.:     0.0119634 α      in ANC's #3, #6, #1, ...

........................................................................
.............................. CYCLE   14 ..............................
........................................................................
   1    -13.2412920 -0.132413E+02  0.185E-02    5.64       0.0  T
   2    -13.2412923 -0.345196E-06  0.994E-03    5.64       4.1  T
   3    -13.2412923 -0.977851E-08  0.480E-03    5.64       8.5  T
   4    -13.2412923 -0.427230E-08  0.832E-04    5.64      49.1  T
   5    -13.2412923 -0.676117E-09  0.467E-04    5.64      87.4  T
     SCC iter.                  ...        0 min,  0.000 sec
     gradient                   ...        0 min,  0.001 sec
 * total energy  :   -13.1841164 Eh     change       -0.3689856E-04 Eh
   gradient norm :     0.0071614 Eh/α   predicted    -0.2567230E-04 ( -30.42%)
   displ. norm   :     0.0150712 α      lambda       -0.3260549E-04
   maximum displ.:     0.0135069 α      in ANC's #3, #6, #2, ...

........................................................................
.............................. CYCLE   15 ..............................
........................................................................
   1    -13.2408455 -0.132408E+02  0.186E-02    5.64       0.0  T
   2    -13.2408459 -0.400086E-06  0.991E-03    5.63       4.1  T
   3    -13.2408459 -0.126648E-07  0.500E-03    5.63       8.2  T
   4    -13.2408460 -0.441417E-08  0.940E-04    5.63      43.4  T
   5    -13.2408460 -0.822357E-09  0.517E-04    5.63      79.0  T
     SCC iter.                  ...        0 min,  0.000 sec
     gradient                   ...        0 min,  0.001 sec
 * total energy  :   -13.1841356 Eh     change       -0.1911817E-04 Eh
   gradient norm :     0.0049457 Eh/α   predicted    -0.1630611E-04 ( -14.71%)
   displ. norm   :     0.0040394 α      lambda       -0.2907236E-05
   maximum displ.:     0.0028838 α      in ANC's #2, #3, #1, ...

........................................................................
.............................. CYCLE   16 ..............................
........................................................................
   1    -13.2407867 -0.132408E+02  0.452E-03    5.63       0.0  T
   2    -13.2407867 -0.132657E-07  0.265E-03    5.63      15.4  T
   3    -13.2407867 -0.848360E-09  0.109E-03    5.63      37.6  T
     SCC iter.                  ...        0 min,  0.000 sec
     gradient                   ...        0 min,  0.001 sec
 * total energy  :   -13.1841372 Eh     change       -0.1670835E-05 Eh
   gradient norm :     0.0012577 Eh/α   predicted    -0.1454457E-05 ( -12.95%)
   displ. norm   :     0.0012673 α      lambda       -0.1874273E-06
   maximum displ.:     0.0012043 α      in ANC's #2, #1, #8, ...

........................................................................
.............................. CYCLE   17 ..............................
........................................................................
   1    -13.2407961 -0.132408E+02  0.144E-03    5.63       0.0  T
   2    -13.2407961 -0.278622E-09  0.901E-04    5.63      45.3  T
   3    -13.2407961 -0.993676E-10  0.144E-04    5.63     284.5  T
     SCC iter.                  ...        0 min,  0.000 sec
     gradient                   ...        0 min,  0.001 sec
 * total energy  :   -13.1841374 Eh     change       -0.1271383E-06 Eh
   gradient norm :     0.0005697 Eh/α   predicted    -0.9380502E-07 ( -26.22%)
   displ. norm   :     0.0006003 α      lambda       -0.3489134E-07
   maximum displ.:     0.0004247 α      in ANC's #1, #2, #3, ...

   *** GEOMETRY OPTIMIZATION CONVERGED AFTER 17 ITERATIONS ***

------------------------------------------------------------------------
 total energy gain   :       -15.9809329 Eh   -10028.1868 kcal/mol
 total RMSD          :         0.3327275 a0        0.1761 Å
 total power (kW/mol):     -2468.1137389 (step)********** (real)
------------------------------------------------------------------------

 ANCopt (total)                0 d,  0 h,  0 min,  0.029 sec
 optimizer setup                ...        0 min,  0.000 sec (  0.179%)
 model hessian                  ...        0 min,  0.000 sec (  0.252%)
 ANC generation                 ...        0 min,  0.000 sec (  0.213%)
 coordinate transformation      ...        0 min,  0.000 sec (  0.251%)
 single point calculation       ...        0 min,  0.028 sec ( 94.705%)
 optimization log               ...        0 min,  0.000 sec (  1.242%)
 hessian update                 ...        0 min,  0.000 sec (  0.182%)
 rational function              ...        0 min,  0.000 sec (  1.444%)

================
 final structure:
================
6
 xtb: 6.2.3 (830e466)
F        -2.68053542901150   -0.15559786925342    0.05250183300770
Cl        2.36454060964895    0.14420515145768   -0.02664836279902
C        -1.18462833777009   -0.07000792189534    0.01852352157331
H        -0.86944951641202   -0.61938785115803   -0.85839779702922
H        -0.83217067638408   -0.52116883481275    0.93630420458632
H        -0.94067665007133    0.98187732566186   -0.04358339933910
 
 Bond Distances (Angstroems)
 ---------------------------
F1-C3=1.4987         C3-F1=1.4987         C3-H4=1.0817         C3-H5=1.0817         C3-H6=1.0816         H4-C3=1.0817         
H5-C3=1.0817         H6-C3=1.0816         
 C  H  Rav=1.0817 sigma=0.0001  Rmin=1.0816  Rmax=1.0817     3
 F  C  Rav=1.4987 sigma=0.0000  Rmin=1.4987  Rmax=1.4987     1
 
 selected bond angles (degree)
 --------------------
H4-C3-F1=106.27                H5-C3-F1=106.39                H5-C3-H4=112.40                H6-C3-F1=106.38                
H6-C3-H4=112.44                H6-C3-H5=112.39                
 
 selected dihedral angles (degree)
 ---------------------------------

 
 CMA Distance (Angstroems)
 ---------------------------
R(CMA):  4.0139
           -------------------------------------------------
          |                Final Singlepoint                |
           -------------------------------------------------

          ...................................................
          :                      SETUP                      :
          :.................................................:
          :  # basis functions                  21          :
          :  # atomic orbitals                  20          :
          :  # shells                           10          :
          :  # electrons                        22          :
          :  max. iterations                   250          :
          :  Hamiltonian                  GFN2-xTB          :
          :  restarted?                      false          :
          :  GBSA solvation                  false          :
          :  PC potential                    false          :
          :  electronic temp.          300.0000000     K    :
          :  accuracy                    1.0000000          :
          :  -> integral cutoff          0.2500000E+02      :
          :  -> integral neglect         0.1000000E-07      :
          :  -> SCF convergence          0.1000000E-05 Eh   :
          :  -> wf. convergence          0.1000000E-03 e    :
          :  Broyden damping             0.4000000          :
          ...................................................

 iter      E             dE          RMSdq      gap      omega  full diag
   1    -13.2407961 -0.132408E+02  0.602E-05    5.63       0.0  T
   2    -13.2407961 -0.303757E-11  0.442E-05    5.63     923.4  T
   3    -13.2407961 -0.221512E-11  0.262E-05    5.63    1560.7  T

   *** convergence criteria satisfied after 3 iterations ***

         #    Occupation            Energy/Eh            Energy/eV
      -------------------------------------------------------------
         1        2.0000           -0.7787458             -21.1908
       ...           ...                  ...                  ...
         5        2.0000           -0.4005410             -10.8993
         6        2.0000           -0.4004206             -10.8960
         7        2.0000           -0.3371189              -9.1735
         8        2.0000           -0.3370615              -9.1719
         9        2.0000           -0.1827285              -4.9723
        10        2.0000           -0.1817400              -4.9454
        11        2.0000           -0.1817383              -4.9454 (HOMO)
        12                          0.0253192               0.6890 (LUMO)
        13                          0.2609072               7.0996
        14                          0.3399714               9.2511
        15                          0.3402280               9.2581
        16                          0.3493108               9.5052
       ...                                ...                  ...
        20                          0.3499719               9.5232
      -------------------------------------------------------------
                  HL-Gap            0.2070576 Eh            5.6343 eV
             Fermi-level           -0.0782095 Eh           -2.1282 eV

 SCC (total)                   0 d,  0 h,  0 min,  0.002 sec
 SCC setup                      ...        0 min,  0.000 sec (  3.088%)
 Dispersion                     ...        0 min,  0.000 sec (  0.445%)
 integral evaluation            ...        0 min,  0.001 sec ( 39.370%)
 zeroth order Hamiltonian       ...        0 min,  0.000 sec (  0.845%)
 iterations                     ...        0 min,  0.000 sec ( 14.823%)
 molecular gradient             ...        0 min,  0.001 sec ( 37.220%)
 printout                       ...        0 min,  0.000 sec (  2.826%)

         :::::::::::::::::::::::::::::::::::::::::::::::::::::
         ::                     SUMMARY                     ::
         :::::::::::::::::::::::::::::::::::::::::::::::::::::
         :: total energy             -13.184137350148 Eh    ::
         :: gradient norm              0.000569911577 Eh/a0 ::
         :: HOMO-LUMO gap              5.634323549867 eV    ::
         ::.................................................::
         :: SCC energy               -13.240796086613 Eh    ::
         :: -> isotropic ES            0.170735575913 Eh    ::
         :: -> anisotropic ES         -0.001045862115 Eh    ::
         :: -> anisotropic XC          0.000881702080 Eh    ::
         :: -> dispersion             -0.001603693138 Eh    ::
         :: repulsion energy           0.056602100413 Eh    ::
         :: add. restraining           0.000057057284 Eh    ::
         :::::::::::::::::::::::::::::::::::::::::::::::::::::

           -------------------------------------------------
          |                Property Printout                |
           -------------------------------------------------

    * Orbital Energies and Occupations

         #    Occupation            Energy/Eh            Energy/eV
      -------------------------------------------------------------
         1        2.0000           -0.7787458             -21.1908
         2        2.0000           -0.6685515             -18.1922
         3        2.0000           -0.4844578             -13.1828
         4        2.0000           -0.4031753             -10.9710
         5        2.0000           -0.4005410             -10.8993
         6        2.0000           -0.4004206             -10.8960
         7        2.0000           -0.3371189              -9.1735
         8        2.0000           -0.3370615              -9.1719
         9        2.0000           -0.1827285              -4.9723
        10        2.0000           -0.1817400              -4.9454
        11        2.0000           -0.1817383              -4.9454 (HOMO)
        12                          0.0253192               0.6890 (LUMO)
        13                          0.2609072               7.0996
        14                          0.3399714               9.2511
        15                          0.3402280               9.2581
        16                          0.3493108               9.5052
        17                          0.3497364               9.5168
        18                          0.3497633               9.5175
        19                          0.3499608               9.5229
        20                          0.3499719               9.5232
      -------------------------------------------------------------
                  HL-Gap            0.2070576 Eh            5.6343 eV
             Fermi-level           -0.0782095 Eh           -2.1282 eV

     #   Z        covCN         q      C6AA      α(0)
     1   9 F      0.769    -0.314    12.484     4.173
     2  17 Cl     0.000    -0.999   126.973    17.149
     3   6 C      3.545     0.054    20.672     6.655
     4   1 H      0.925     0.086     1.921     2.168
     5   1 H      0.925     0.087     1.912     2.162
     6   1 H      0.925     0.086     1.914     2.164

 Mol. C6AA /au·bohr⁶  :        547.329404
 Mol. C8AA /au·bohr⁸  :      15836.048112
 Mol. α(0) /au        :         34.471387


Wiberg/Mayer (AO) data.
largest (>0.10) Wiberg bond orders for each atom
          total WBO             WBO to atom ...
     1  F   0.927        C    3 0.901
     2  Cl  0.002
     3  C   3.855        H    4 0.984    H    6 0.984    H    5 0.984    F    1 0.901
     4  H   0.993        C    3 0.984
     5  H   0.992        C    3 0.984
     6  H   0.993        C    3 0.984

molecular dipole:
                 x           y           z       tot (Debye)
 q only:       -3.426      -0.212       0.028
   full:       -3.233      -0.201       0.024       8.234
molecular quadrupole (traceless):
                xx          xy          yy          xz          yz          zz
 q only:      -27.457      -2.481      13.659       0.568       0.032      13.799
  q+dip:      -29.571      -2.662      14.712       0.642       0.036      14.859
   full:      -28.874      -2.602      14.364       0.617       0.035      14.510

           -------------------------------------------------
          |                Geometry Summary                 |
           -------------------------------------------------

      molecular mass/u    :       69.4858989
   center of mass at/Å    :        0.2304422       0.0166307       0.0044580
  moments of inertia/u·Å² :        0.3258993E+01   0.3531920E+03   0.3531941E+03
rotational constants/cm⁻¹ :        0.5172650E+01   0.4772937E-01   0.4772909E-01

 * 3 selected distances

     #   Z        #   Z                                     value/Å
     3   6 C      4   1 H                                 1.0817333 (max)
     3   6 C      5   1 H                                 1.0817088
     3   6 C      6   1 H                                 1.0815878 (min)

 * 1 distinct bonds (by element types)

   Z      Z             #   av. dist./Å        max./Å        min./Å
   1 H    6 C           3     1.0816767     1.0817333     1.0815878


optimized geometry written to: xtbopt.xyz


           -------------------------------------------------
          | TOTAL ENERGY              -13.184137350148 Eh   |
          | GRADIENT NORM               0.000569911577 Eh/α |
          | HOMO-LUMO GAP               5.634323549867 eV   |
           -------------------------------------------------

------------------------------------------------------------------------
 * finished run on 2020/04/08 at 23:04:06.926     
------------------------------------------------------------------------
 total:
 * wall-time:     0 d,  0 h,  0 min,  0.040 sec
 *  cpu-time:     0 d,  0 h,  0 min,  0.040 sec
 * ratio c/w:     0.999 speedup
 SCF:
 * wall-time:     0 d,  0 h,  0 min,  0.003 sec
 *  cpu-time:     0 d,  0 h,  0 min,  0.003 sec
 * ratio c/w:     0.999 speedup
 ANC optimizer:
 * wall-time:     0 d,  0 h,  0 min,  0.031 sec
 *  cpu-time:     0 d,  0 h,  0 min,  0.031 sec
 * ratio c/w:     1.000 speedup

