      -----------------------------------------------------------      
     |                   =====================                   |     
     |                           x T B                           |     
     |                   =====================                   |     
     |                         S. Grimme                         |     
     |          Mulliken Center for Theoretical Chemistry        |     
     |                    University of Bonn                     |     
      -----------------------------------------------------------      

   * xtb version 6.2.3 (830e466) compiled by 'ehlert@majestix' on 2020-03-16

   xtb is free software: you can redistribute it and/or modify it under
   the terms of the GNU Lesser General Public License as published by
   the Free Software Foundation, either version 3 of the License, or
   (at your option) any later version.
   
   xtb is distributed in the hope that it will be useful,
   but WITHOUT ANY WARRANTY; without even the implied warranty of
   MERCHANTABILITY or FITNESS FOR A PARTICULAR PURPOSE.  See the
   GNU Lesser General Public License for more details.
   
   Cite this work as:
   * S. Grimme, C. Bannwarth, P. Shushkov, J. Chem. Theory Comput., 2017,
     13, 1989-2009. DOI: 10.1021/acs.jctc.7b00118
   * C. Bannwarth, S. Ehlert and S. Grimme., J. Chem. Theory Comput., 2019,
     15, 1652-1671. DOI: 10.1021/acs.jctc.8b01176
   * P. Pracht, E. Caldeweyher, S. Ehlert, S. Grimme, ChemRxiv, 2019, preprint.
     DOI: 10.26434/chemrxiv.8326202.v1
   
   for DFT-D4:
   * E. Caldeweyher, C. Bannwarth and S. Grimme, J. Chem. Phys., 2017,
     147, 034112. DOI: 10.1063/1.4993215
   * E. Caldeweyher, S. Ehlert, A. Hansen, H. Neugebauer, S. Spicher,
     C. Bannwarth and S. Grimme, J. Chem. Phys., 2019, 150, 154122.
     DOI: 10.1063/1.5090222
   
   for sTDA-xTB:
   * S. Grimme and C. Bannwarth, J. Chem. Phys., 2016, 145, 054103.
     DOI: 10.1063/1.4959605
   
   in the mass-spec context:
   * V. Asgeirsson, C. Bauer and S. Grimme, Chem. Sci., 2017, 8, 4879.
     DOI: 10.1039/c7sc00601b
   
   for metadynamics refer to:
   * S. Grimme, J. Chem. Theory Comput., 2019, 155, 2847-2862
     DOI: 10.1021/acs.jctc.9b00143
   
   with help from (in alphabetical order)
   C. Bannwarth, F. Bohle, G. Brandenburg, E. Caldeweyher, M. Checinski,
   S. Dohm, S. Ehlert, S. Ehrlich, F. März, H. Neugebauer, J. Pisarek,
   P. Pracht, P. Shushkov, and S. Spicher.
   
 * started run on 2020/04/08 at 23:03:31.267     

           -------------------------------------------------
          |                Calculation Setup                |
           -------------------------------------------------

          program call               : /home/tom/.local/bin/xtb SN2_PES_scan_0-2_xtb.xyz --chrg -1 --opt --input xcontrol_SN2_PES_scan_0-2
          coordinate file            : SN2_PES_scan_0-2_xtb.xyz
          omp threads                :                     1
          number of atoms            :                     6
          number of electrons        :                    22
          charge                     :                    -1
          spin                       :                   0.0
          first test random number   :      0.06363037946102

constraining bond 1 3 to    4.0000000 Å, actual value:    4.0000080 Å
constraining bond 2 3 to    2.6680000 Å, actual value:    2.2231583 Å

molecular fragmentation (1/2 indicates fragments):
122222
# atoms in fragment 1/2:     1     5
 fragment masses (1/2) :       19.00       50.49
CMA distance (Bohr)    :  10.486
constraining FC (au)   : 10.0000
########################################################################
[WARNING] Please study the warnings concerning your input carefully
-2- prog_main: XTBPATH is not set, using XTBHOME instead
-1- prog_main: XTBHOME is not set, using HOME instead
########################################################################
           ------------------------------------------------- 
          |                 G F N 2 - x T B                 |
          | Geometry, Frequencies, Noncovalent interactions |
          |            JCTC 2019 parametrisation            |
           ------------------------------------------------- 
             k(s)              :                1.8500
             k(p)              :                2.2300
             k(d)              :                2.2300
             k(f)              :                2.0000
             kEN (H0ij)        :               -2.0000
             D4 a1             :                0.5200
             D4 a2             :                5.0000
             D4 s6             :                1.0000
             D4 s8             :                2.7000
             D4 s9             :                5.0000
             alphaj            :                2.0000

  Z AO/shell   Hii/eV     exponent
  1     Wed Apr 25 08:07:45 CEST 2018   EN: 2.200 GM2: 0.406  GM3: 0.0800  RAES: 1.40
     1s    -10.707211    1.230000
  6     Wed Apr 25 08:07:45 CEST 2018   EN: 2.550 GM2: 0.538  GM3: 0.1500  RAES: 3.00
     2s    -13.970922    2.096432
     2p    -10.063292    1.800000
  9     Mon Apr 23 13:58:50 CEST 2018   EN: 3.980 GM2: 0.532  GM3: 0.1426  RAES: 2.40
     2s    -23.458179    2.416361
     2p    -15.746583    2.308399
 17     Mon Apr 23 14:09:22 CEST 2018   EN: 3.160 GM2: 0.249  GM3: 0.1495  RAES: 2.50
     3s    -29.278781    2.485265
     3p    -12.673758    2.199650
     3d     -0.240338    2.476089

           ------------------------------------------------- 
          |        Self-Consistent Charge Iterations        |
           ------------------------------------------------- 

          ...................................................
          :                      SETUP                      :
          :.................................................:
          :  # basis functions                  21          :
          :  # atomic orbitals                  20          :
          :  # shells                           10          :
          :  # electrons                        22          :
          :  max. iterations                   250          :
          :  Hamiltonian                  GFN2-xTB          :
          :  restarted?                      false          :
          :  GBSA solvation                  false          :
          :  PC potential                    false          :
          :  electronic temp.          300.0000000     K    :
          :  accuracy                    1.0000000          :
          :  -> integral cutoff          0.2500000E+02      :
          :  -> integral neglect         0.1000000E-07      :
          :  -> SCF convergence          0.1000000E-05 Eh   :
          :  -> wf. convergence          0.1000000E-03 e    :
          :  Broyden damping             0.4000000          :
          ...................................................

 iter      E             dE          RMSdq      gap      omega  full diag
   1    -13.0186722 -0.130187E+02  0.724E+00    2.21       0.0  T
   2    -12.0144154  0.100426E+01  0.952E+00    0.00       1.0  T
   3    -13.1292209 -0.111481E+01  0.365E+00    3.51       1.0  T
   4    -13.1391989 -0.997794E-02  0.284E+00    3.00       1.0  T
   5    -13.1748876 -0.356887E-01  0.174E-01    0.13       1.0  T
   6    -13.1478259  0.270618E-01  0.153E+00    0.31       1.0  T
   7    -12.4583977  0.689428E+00  0.725E+00    0.00       1.0  T
   8    -12.5761164 -0.117719E+00  0.667E+00    0.00       1.0  T
   9    -13.1566581 -0.580542E+00  0.122E+00    0.21       1.0  T
  10    -13.1624305 -0.577236E-02  0.101E+00    0.18       1.0  T
  11    -13.1729509 -0.105205E-01  0.401E-01    0.14       1.0  T
  12    -13.1745766 -0.162568E-02  0.177E-01    0.13       1.0  T
  13    -13.1745722  0.441043E-05  0.178E-01    0.13       1.0  T
  14    -13.1749662 -0.393948E-03  0.216E-02    0.12       1.9  T
  15    -13.1749560  0.101442E-04  0.356E-02    0.12       1.1  T
  16    -13.1749621 -0.607511E-05  0.280E-02    0.12       1.5  T
  17    -13.1749678 -0.567315E-05  0.183E-02    0.12       2.2  T
  18    -13.1749712 -0.345926E-05  0.780E-03    0.12       5.2  T
  19    -13.1749719 -0.696559E-06  0.234E-03    0.12      17.4  T
  20    -13.1749720 -0.621394E-07  0.747E-04    0.12      54.7  T
  21    -13.1749720 -0.699503E-08  0.536E-05    0.12     761.7  T

   *** convergence criteria satisfied after 21 iterations ***

         #    Occupation            Energy/Eh            Energy/eV
      -------------------------------------------------------------
         1        2.0000           -0.9016675             -24.5356
       ...           ...                  ...                  ...
         5        2.0000           -0.3629941              -9.8776
         6        2.0000           -0.3149165              -8.5693
         7        2.0000           -0.2741408              -7.4597
         8        2.0000           -0.2741397              -7.4597
         9        1.9089           -0.1571880              -4.2773
        10        1.9024           -0.1571197              -4.2754
        11        1.9024           -0.1571195              -4.2754 (HOMO)
        12        0.2864           -0.1525984              -4.1524 (LUMO)
        13                          0.1898813               5.1669
        14                          0.1898817               5.1669
        15                          0.1910472               5.1987
        16                          0.1910476               5.1987
       ...                                ...                  ...
        20                          0.3868538              10.5268
      -------------------------------------------------------------
                  HL-Gap            0.0045211 Eh            0.1230 eV
             Fermi-level           -0.1542981 Eh           -4.1987 eV

 SCC (total)                   0 d,  0 h,  0 min,  0.005 sec
 SCC setup                      ...        0 min,  0.000 sec (  1.950%)
 Dispersion                     ...        0 min,  0.000 sec (  0.400%)
 integral evaluation            ...        0 min,  0.001 sec ( 20.915%)
 zeroth order Hamiltonian       ...        0 min,  0.000 sec (  0.420%)
 iterations                     ...        0 min,  0.003 sec ( 55.609%)
 molecular gradient             ...        0 min,  0.001 sec ( 18.395%)
 printout                       ...        0 min,  0.000 sec (  1.720%)

         :::::::::::::::::::::::::::::::::::::::::::::::::::::
         ::                     SUMMARY                     ::
         :::::::::::::::::::::::::::::::::::::::::::::::::::::
         :: total energy              -6.050351415569 Eh    ::
         :: gradient norm             23.731617103980 Eh/a0 ::
         :: HOMO-LUMO gap              0.123025474912 eV    ::
         ::.................................................::
         :: SCC energy               -13.174971987796 Eh    ::
         :: -> isotropic ES            0.186713094661 Eh    ::
         :: -> anisotropic ES          0.001231772227 Eh    ::
         :: -> anisotropic XC          0.005041413150 Eh    ::
         :: -> dispersion             -0.001655093042 Eh    ::
         :: repulsion energy           0.058054587829 Eh    ::
         :: add. restraining           7.066569172626 Eh    ::
         :::::::::::::::::::::::::::::::::::::::::::::::::::::

      ----------------------------------------------------------- 
     |                   =====================                   |
     |                        A N C O P T                        |
     |                   =====================                   |
     |               Approximate Normal Coordinate               |
     |                Rational Function Optimizer                |
      ----------------------------------------------------------- 

          ...................................................
          :                      SETUP                      :
          :.................................................:
          :   optimization level            normal          :
          :   max. optcycles                   200          :
          :   ANC micro-cycles                  20          :
          :   degrees of freedom                12          :
          :.................................................:
          :   RF solver                   davidson          :
          :   write xtbopt.log                true          :
          :   linear?                        false          :
          :   energy convergence         0.5000000E-05 Eh   :
          :   grad. convergence          0.1000000E-02 Eh/α :
          :   maximium RF displ.         1.0000000          :
          :   Hlow (freq-cutoff)         0.1000000E-01      :
          :   Hmax (freq-cutoff)         5.0000000          :
          :   S6 in model hess.         20.0000000          :
          ...................................................

generating ANC from model Hessian ...
Using Lindh-Hessian (1995)
 Shifting diagonal of input Hessian by    6.68940915069722     
 Lowest  eigenvalues of input Hessian
    0.010000    0.010036   -0.000000   -0.000000    0.000000    0.000000
    0.000000    0.000000    6.695250    6.695252    6.729534    6.830745
    6.830748    7.141102    7.499877    7.499908   26.725101   66.874886
 Highest eigenvalues
    6.830748    7.141102    7.499877    7.499908   26.725101   66.874886
 

........................................................................
.............................. CYCLE    1 ..............................
........................................................................
   1    -13.1749720 -0.131750E+02  0.575E-05    0.12       0.0  T
   2    -13.1749719  0.568183E-07  0.212E-03    0.12      19.2  T
   3    -13.1749720 -0.568600E-07  0.116E-06    0.12   35046.7  T
   4    -13.1749720  0.248690E-13  0.151E-06    0.12   27031.7  T
     SCC iter.                  ...        0 min,  0.000 sec
     gradient                   ...        0 min,  0.001 sec
 * total energy  :    -6.0503514 Eh     change       -0.1894081E-08 Eh
   gradient norm :    23.7316155 Eh/α   predicted     0.0000000E+00 (-100.00%)
   displ. norm   :     0.9001888 α      lambda       -0.2136293E+02
   maximum displ.:     0.7802874 α      in ANC's #3, #12, #6, ...

........................................................................
.............................. CYCLE    2 ..............................
........................................................................
   1    -12.2163014 -0.122163E+02  0.103E+01    0.00       0.0  T
   2    -12.7136680 -0.497367E+00  0.973E+00    4.55       1.0  T
   3    -12.9893333 -0.275665E+00  0.557E+00    1.31       1.0  T
   4    -12.9935745 -0.424112E-02  0.658E+00    0.38       1.0  T
   5    -13.0171844 -0.236099E-01  0.458E+00    1.19       1.0  T
   6    -12.2109639  0.806220E+00  0.102E+01    0.00       1.0  T
   7    -13.0465484 -0.835585E+00  0.368E+00    0.99       1.0  T
   8    -13.0561731 -0.962466E-02  0.322E+00    0.79       1.0  T
   9    -12.2102698  0.845903E+00  0.973E+00    0.00       1.0  T
  10    -13.0658142 -0.855544E+00  0.334E+00    0.84       1.0  T
  11    -12.2227456  0.843069E+00  0.937E+00    0.00       1.0  T
  12    -13.0724663 -0.849721E+00  0.314E+00    0.80       1.0  T
  13    -13.0812133 -0.874697E-02  0.245E+00    0.29       1.0  T
  14    -12.2345538  0.846660E+00  0.930E+00    0.00       1.0  T
  15    -13.0722401 -0.837686E+00  0.286E+00    0.82       1.0  T
  16    -13.0716835  0.556588E-03  0.274E+00    0.62       1.0  T
  17    -13.0713931  0.290486E-03  0.274E+00    0.60       1.0  T
  18    -13.1257577 -0.543646E-01  0.111E+00    0.08       1.0  T
  19    -13.0749518  0.508059E-01  0.261E+00    0.35       1.0  T
  20    -13.1276097 -0.526579E-01  0.101E+00    0.08       1.0  T
  21    -13.0937114  0.338984E-01  0.215E+00    0.20       1.0  T
  22    -12.6240518  0.469660E+00  0.705E+00    0.01       1.0  T
  23    -13.0700177 -0.445966E+00  0.282E+00    0.75       1.0  T
  24    -13.0768586 -0.684090E-02  0.254E+00    0.30       1.0  T
  25    -12.3398863  0.736972E+00  0.875E+00    0.00       1.0  T
  26    -13.0695853 -0.729699E+00  0.284E+00    0.82       1.0  T
  27    -13.1000650 -0.304797E-01  0.197E+00    0.19       1.0  T
  28    -13.1254865 -0.254215E-01  0.112E+00    0.08       1.0  T
  29    -13.0832639  0.422226E-01  0.240E+00    0.24       1.0  T
  30    -12.7418651  0.341399E+00  0.621E+00    0.02       1.0  T
  31    -13.0713201 -0.329455E+00  0.272E+00    0.50       1.0  T
  32    -13.1318261 -0.605060E-01  0.773E-01    0.13       1.0  T
  33    -13.1248227  0.700340E-02  0.114E+00    0.08       1.0  T
  34    -13.1155237  0.929894E-02  0.152E+00    0.16       1.0  T
  35    -12.8416674  0.273856E+00  0.538E+00    0.03       1.0  T
  36    -13.0752374 -0.233570E+00  0.259E+00    0.32       1.0  T
  37    -13.1345895 -0.593521E-01  0.573E-01    0.09       1.0  T
  38    -13.1373622 -0.277273E-02  0.200E-01    0.10       1.0  T
  39    -13.1273455  0.100167E-01  0.102E+00    0.08       1.0  T
  40    -13.1367618 -0.941635E-02  0.316E-01    0.10       1.0  T
  41    -13.1025288  0.342331E-01  0.188E+00    0.07       1.0  T
  42    -13.1377177 -0.351889E-01  0.626E-02    0.11       1.0  T
  43    -13.0910308  0.466869E-01  0.216E+00    0.07       1.0  T
  44    -13.1377445 -0.467137E-01  0.304E-02    0.11       1.3  T
  45    -13.1089049  0.288396E-01  0.170E+00    0.07       1.0  T
  46    -13.1329048 -0.240000E-01  0.699E-01    0.09       1.0  T
  47    -13.1237937  0.911117E-02  0.119E+00    0.08       1.0  T
  48    -13.1281118 -0.431819E-02  0.985E-01    0.08       1.0  T
  49    -13.1282682 -0.156367E-03  0.977E-01    0.09       1.0  T
  50    -13.1376961 -0.942791E-02  0.751E-02    0.11       1.0  T
  51    -13.1228908  0.148053E-01  0.124E+00    0.14       1.0  T
  52    -13.1195157  0.337506E-02  0.137E+00    0.15       1.0  T
  53    -13.0546160  0.648997E-01  0.288E+00    0.06       1.0  T
  54    -13.0952605 -0.406446E-01  0.211E+00    0.20       1.0  T
  55    -13.1327942 -0.375336E-01  0.713E-01    0.09       1.0  T
  56    -13.1320127  0.781504E-03  0.766E-01    0.13       1.0  T
  57    -13.1310895  0.923191E-03  0.821E-01    0.09       1.0  T
  58    -13.1310907 -0.120784E-05  0.827E-01    0.13       1.0  T
  59    -13.1349982 -0.390755E-02  0.529E-01    0.09       1.0  T
  60    -13.1360164 -0.101815E-02  0.421E-01    0.12       1.0  T
  61    -13.1366931 -0.676750E-03  0.328E-01    0.10       1.0  T
  62    -13.1372031 -0.509949E-03  0.236E-01    0.11       1.0  T
  63    -13.1375019 -0.298769E-03  0.159E-01    0.10       1.0  T
  64    -13.1376520 -0.150180E-03  0.994E-02    0.11       1.0  T
  65    -13.1377086 -0.565719E-04  0.639E-02    0.10       1.0  T
  66    -13.1377358 -0.271489E-04  0.364E-02    0.11       1.1  T
  67    -13.1377439 -0.810814E-05  0.222E-02    0.10       1.8  T
  68    -13.1377476 -0.375591E-05  0.106E-02    0.11       3.8  T
  69    -13.1377485 -0.865462E-06  0.491E-03    0.10       8.3  T
  70    -13.1377487 -0.236681E-06  0.150E-04    0.10     272.4  T
     SCC iter.                  ...        0 min,  0.009 sec
     gradient                   ...        0 min,  0.001 sec
 * total energy  :    -7.1534339 Eh     change       -0.1103082E+01 Eh
   gradient norm :    26.3752074 Eh/α   predicted    -0.1933709E+02 (1653.00%)
   displ. norm   :     0.5585319 α      lambda       -0.1232444E+02
   maximum displ.:     0.4306237 α      in ANC's #3, #12, #1, ...

........................................................................
.............................. CYCLE    3 ..............................
........................................................................
   1    -13.0970221 -0.130970E+02  0.242E+00    0.37       0.0  T
   2    -12.1473194  0.949703E+00  0.101E+01    0.00       1.0  T
   3    -12.1808504 -0.335310E-01  0.932E+00    0.00       1.0  T
   4    -13.0534330 -0.872583E+00  0.359E+00    0.62       1.0  T
   5    -12.1931416  0.860291E+00  0.923E+00    0.00       1.0  T
   6    -13.0957387 -0.902597E+00  0.267E+00    1.02       1.0  T
   7    -13.0852236  0.105151E-01  0.264E+00    0.77       1.0  T
   8    -13.0866036 -0.138002E-02  0.256E+00    0.58       1.0  T
   9    -13.0896232 -0.301951E-02  0.244E+00    0.31       1.0  T
  10    -12.2986153  0.791008E+00  0.864E+00    0.00       1.0  T
  11    -13.0868941 -0.788279E+00  0.258E+00    0.69       1.0  T
  12    -13.0925692 -0.567515E-02  0.236E+00    0.29       1.0  T
  13    -13.1150015 -0.224323E-01  0.183E+00    0.18       1.0  T
  14    -13.1438520 -0.288505E-01  0.775E-01    0.13       1.0  T
  15    -13.1501227 -0.627065E-02  0.106E-01    0.10       1.0  T
  16    -13.1500286  0.940988E-04  0.141E-01    0.10       1.0  T
  17    -13.1487294  0.129912E-02  0.374E-01    0.09       1.0  T
  18    -13.1501755 -0.144604E-02  0.810E-02    0.10       1.0  T
  19    -13.1501073  0.681344E-04  0.114E-01    0.10       1.0  T
  20    -13.1502426 -0.135224E-03  0.221E-02    0.10       1.9  T
  21    -13.1502456 -0.303384E-05  0.137E-02    0.10       3.0  T
  22    -13.1501857  0.599073E-04  0.758E-02    0.10       1.0  T
  23    -13.1502382 -0.525066E-04  0.295E-02    0.10       1.4  T
  24    -13.1502307  0.754057E-05  0.396E-02    0.10       1.0  T
  25    -13.1502402 -0.953910E-05  0.261E-02    0.10       1.6  T
  26    -13.1502424 -0.218778E-05  0.219E-02    0.10       1.9  T
  27    -13.1502467 -0.431149E-05  0.896E-03    0.10       4.6  T
  28    -13.1502474 -0.704496E-06  0.388E-03    0.10      10.5  T
  29    -13.1502476 -0.148499E-06  0.114E-03    0.10      35.7  T
     SCC iter.                  ...        0 min,  0.002 sec
     gradient                   ...        0 min,  0.001 sec
 * total energy  :   -12.6390339 Eh     change       -0.5485600E+01 Eh
   gradient norm :     4.2479518 Eh/α   predicted    -0.8084568E+01 (  47.38%)
   displ. norm   :     0.4527603 α      lambda       -0.1914790E+01
   maximum displ.:     0.4456193 α      in ANC's #12, #3, #1, ...

........................................................................
.............................. CYCLE    4 ..............................
........................................................................
   1    -13.1136223 -0.131136E+02  0.231E+00    0.77       0.0  T
   2    -12.1197780  0.993844E+00  0.987E+00    0.00       1.0  T
   3    -13.1195279 -0.999750E+00  0.200E+00    0.24       1.0  T
   4    -12.1753021  0.944226E+00  0.901E+00    0.00       1.0  T
   5    -13.1145620 -0.939260E+00  0.209E+00    0.31       1.0  T
   6    -13.1557067 -0.411447E-01  0.714E-01    0.13       1.0  T
   7    -12.6531812  0.502526E+00  0.653E+00    0.00       1.0  T
   8    -13.1513082 -0.498127E+00  0.940E-01    0.09       1.0  T
   9    -13.1548327 -0.352454E-02  0.762E-01    0.09       1.0  T
  10    -13.1590111 -0.417844E-02  0.465E-01    0.10       1.0  T
  11    -13.1578540  0.115712E-02  0.562E-01    0.09       1.0  T
  12    -13.1612068 -0.335278E-02  0.146E-01    0.10       1.0  T
  13    -13.1612574 -0.505618E-04  0.131E-01    0.11       1.0  T
  14    -13.1608690  0.388307E-03  0.227E-01    0.12       1.0  T
  15    -13.1607232  0.145858E-03  0.254E-01    0.12       1.0  T
  16    -13.1613092 -0.586036E-03  0.112E-01    0.11       1.0  T
  17    -13.1614477 -0.138453E-03  0.168E-02    0.11       2.4  T
  18    -13.1614509 -0.320513E-05  0.142E-03    0.11      28.8  T
  19    -13.1614509  0.272783E-07  0.209E-03    0.11      19.5  T
     SCC iter.                  ...        0 min,  0.001 sec
     gradient                   ...        0 min,  0.001 sec
 * total energy  :   -12.3794436 Eh     change        0.2595903E+00 Eh
   gradient norm :     6.4233161 Eh/α   predicted    -0.1153653E+01 (-544.41%)
   displ. norm   :     0.2305365 α      lambda       -0.1344328E+01
   maximum displ.:     0.2185298 α      in ANC's #12, #3, #1, ...

........................................................................
.............................. CYCLE    5 ..............................
........................................................................
   1    -12.1708488 -0.121708E+02  0.929E+00    0.00       0.0  T
   2    -12.7417398 -0.570891E+00  0.955E+00    4.67       1.0  T
   3    -13.0262331 -0.284493E+00  0.521E+00    1.92       1.0  T
   4    -13.0994232 -0.731901E-01  0.337E+00    1.28       1.0  T
   5    -13.0833402  0.160831E-01  0.347E+00    1.51       1.0  T
   6    -13.0877707 -0.443050E-02  0.280E+00    0.92       1.0  T
   7    -13.0931432 -0.537252E-02  0.252E+00    0.53       1.0  T
   8    -12.2132510  0.879892E+00  0.900E+00    0.00       1.0  T
   9    -13.0839477 -0.870697E+00  0.335E+00    1.52       1.0  T
  10    -13.0876651 -0.371742E-02  0.309E+00    1.49       1.0  T
  11    -13.0884242 -0.759155E-03  0.304E+00    1.49       1.0  T
  12    -13.0941275 -0.570326E-02  0.258E+00    0.91       1.0  T
  13    -12.1688924  0.925235E+00  0.929E+00    0.00       1.0  T
  14    -13.0803542 -0.911462E+00  0.366E+00    1.53       1.0  T
  15    -13.0905891 -0.102349E-01  0.294E+00    1.47       1.0  T
  16    -13.1063315 -0.157424E-01  0.213E+00    0.24       1.0  T
  17    -12.1657573  0.940574E+00  0.945E+00    0.00       1.0  T
  18    -13.0710106 -0.905253E+00  0.420E+00    1.58       1.0  T
  19    -13.0873919 -0.163813E-01  0.322E+00    1.48       1.0  T
  20    -12.1685466  0.918845E+00  0.929E+00    0.00       1.0  T
  21    -13.0588038 -0.890257E+00  0.484E+00    1.64       1.0  T
  22    -13.0846458 -0.258420E-01  0.342E+00    1.50       1.0  T
  23    -12.1745212  0.910125E+00  0.919E+00    0.00       1.0  T
  24    -13.0598706 -0.885349E+00  0.481E+00    1.63       1.0  T
  25    -13.0874377 -0.275670E-01  0.323E+00    1.48       1.0  T
  26    -13.1482182 -0.607805E-01  0.750E-01    0.09       1.0  T
  27    -13.0957119  0.525062E-01  0.251E+00    0.82       1.0  T
  28    -12.1663847  0.929327E+00  0.941E+00    0.00       1.0  T
  29    -13.0388668 -0.872482E+00  0.562E+00    1.74       1.0  T
  30    -13.0830745 -0.442077E-01  0.354E+00    1.51       1.0  T
  31    -13.1028099 -0.197354E-01  0.221E+00    0.28       1.0  T
  32    -12.1632982  0.939512E+00  0.957E+00    0.00       1.0  T
  33    -13.0299746 -0.866676E+00  0.597E+00    1.78       1.0  T
  34    -13.0835627 -0.535880E-01  0.355E+00    1.50       1.0  T
  35    -13.0989109 -0.153482E-01  0.231E+00    0.38       1.0  T
  36    -12.1616944  0.937216E+00  0.965E+00    0.00       1.0  T
  37    -13.0375107 -0.875816E+00  0.573E+00    1.74       1.0  T
  38    -13.0860795 -0.485688E-01  0.341E+00    1.48       1.0  T
  39    -13.0993184 -0.132388E-01  0.230E+00    0.35       1.0  T
  40    -12.1598522  0.939466E+00  0.975E+00    0.00       1.0  T
  41    -13.0413220 -0.881470E+00  0.562E+00    1.72       1.0  T
  42    -13.0862678 -0.449458E-01  0.341E+00    1.48       1.0  T
  43    -13.1092961 -0.230283E-01  0.205E+00    0.23       1.0  T
  44    -12.1596352  0.949661E+00  0.977E+00    0.00       1.0  T
  45    -13.0472735 -0.887638E+00  0.540E+00    1.69       1.0  T
  46    -13.0876108 -0.403373E-01  0.330E+00    1.47       1.0  T
  47    -12.5044829  0.583128E+00  0.751E+00    0.00       1.0  T
  48    -13.0551777 -0.550695E+00  0.505E+00    1.65       1.0  T
  49    -13.0935634 -0.383857E-01  0.273E+00    1.44       1.0  T
  50    -12.1625454  0.931018E+00  0.962E+00    0.00       1.0  T
  51    -13.0488447 -0.886299E+00  0.531E+00    1.68       1.0  T
  52    -13.0889369 -0.400922E-01  0.317E+00    1.47       1.0  T
  53    -12.1718029  0.917134E+00  0.921E+00    0.00       1.0  T
  54    -13.0419943 -0.870191E+00  0.557E+00    1.72       1.0  T
  55    -13.0904637 -0.484694E-01  0.300E+00    1.46       1.0  T
  56    -12.1668469  0.923617E+00  0.938E+00    0.00       1.0  T
  57    -13.0463797 -0.879533E+00  0.540E+00    1.69       1.0  T
  58    -13.0898914 -0.435116E-01  0.307E+00    1.46       1.0  T
  59    -12.1696718  0.920220E+00  0.924E+00    0.00       1.0  T
  60    -13.0459027 -0.876231E+00  0.541E+00    1.70       1.0  T
  61    -13.0905479 -0.446451E-01  0.300E+00    1.46       1.0  T
  62    -12.1689553  0.921593E+00  0.927E+00    0.00       1.0  T
  63    -13.0487116 -0.879756E+00  0.529E+00    1.68       1.0  T
  64    -13.0903661 -0.416544E-01  0.301E+00    1.46       1.0  T
  65    -12.1951962  0.895170E+00  0.909E+00    0.00       1.0  T
  66    -13.0530601 -0.857864E+00  0.510E+00    1.66       1.0  T
  67    -13.0910481 -0.379880E-01  0.295E+00    1.46       1.0  T
  68    -12.1939752  0.897073E+00  0.909E+00    0.00       1.0  T
  69    -13.0569347 -0.862959E+00  0.492E+00    1.65       1.0  T
  70    -13.0908927 -0.339580E-01  0.296E+00    1.46       1.0  T
  71    -13.1515362 -0.606435E-01  0.516E-01    0.12       1.0  T
  72    -12.3097471  0.841789E+00  0.853E+00    0.00       1.0  T
  73    -13.0662020 -0.756455E+00  0.448E+00    1.60       1.0  T
  74    -13.0920517 -0.258497E-01  0.285E+00    1.45       1.0  T
  75    -13.0246130  0.674387E-01  0.340E+00    0.04       1.0  T
  76    -13.0879043 -0.632913E-01  0.317E+00    1.48       1.0  T
  77    -13.1018121 -0.139078E-01  0.224E+00    0.28       1.0  T
  78    -12.1643962  0.937416E+00  0.952E+00    0.00       1.0  T
  79    -13.0532230 -0.888827E+00  0.510E+00    1.66       1.0  T
  80    -13.0868146 -0.335916E-01  0.332E+00    1.48       1.0  T
  81    -13.0948435 -0.802889E-02  0.262E+00    1.15       1.0  T
  82    -12.1681250  0.926719E+00  0.931E+00    0.00       1.0  T
  83    -13.0535989 -0.885474E+00  0.509E+00    1.66       1.0  T
  84    -13.0892855 -0.356866E-01  0.311E+00    1.47       1.0  T
  85    -13.0982598 -0.897435E-02  0.233E+00    0.36       1.0  T
  86    -12.1634606  0.934799E+00  0.957E+00    0.00       1.0  T
  87    -13.0435831 -0.880122E+00  0.552E+00    1.71       1.0  T
  88    -13.0855248 -0.419417E-01  0.342E+00    1.49       1.0  T
  89    -13.0961545 -0.106297E-01  0.249E+00    0.80       1.0  T
  90    -12.1642425  0.931912E+00  0.952E+00    0.00       1.0  T
  91    -13.0416206 -0.877378E+00  0.561E+00    1.72       1.0  T
  92    -13.0865691 -0.449485E-01  0.335E+00    1.48       1.0  T
  93    -13.0990665 -0.124974E-01  0.230E+00    0.34       1.0  T
  94    -12.1607989  0.938268E+00  0.971E+00    0.00       1.0  T
  95    -13.0350723 -0.874273E+00  0.587E+00    1.75       1.0  T
  96    -13.0837220 -0.486498E-01  0.357E+00    1.49       1.0  T
  97    -13.0972491 -0.135271E-01  0.239E+00    0.54       1.0  T
  98    -12.1602340  0.937015E+00  0.974E+00    0.00       1.0  T
  99    -13.0342953 -0.874061E+00  0.591E+00    1.75       1.0  T
 100    -13.0844817 -0.501864E-01  0.353E+00    1.49       1.0  T
 101    -13.1085496 -0.240679E-01  0.207E+00    0.23       1.0  T
 102    -12.1587679  0.949782E+00  0.982E+00    0.00       1.0  T
 103    -13.0379388 -0.879171E+00  0.579E+00    1.73       1.0  T
 104    -13.0854924 -0.475536E-01  0.347E+00    1.48       1.0  T
 105    -13.1544018 -0.689094E-01  0.715E-02    0.11       1.0  T
 106    -13.0766349  0.777669E-01  0.265E+00    0.05       1.0  T
 107    -13.0900599 -0.134250E-01  0.305E+00    1.46       1.0  T
 108    -12.1619347  0.928125E+00  0.965E+00    0.00       1.0  T
 109    -13.0449687 -0.883034E+00  0.549E+00    1.70       1.0  T
 110    -13.0884674 -0.434986E-01  0.320E+00    1.47       1.0  T
 111    -12.1688012  0.919666E+00  0.928E+00    0.00       1.0  T
 112    -13.0424292 -0.873628E+00  0.558E+00    1.71       1.0  T
 113    -13.0907137 -0.482846E-01  0.299E+00    1.46       1.0  T
 114    -12.1658069  0.924907E+00  0.944E+00    0.00       1.0  T
 115    -13.0441252 -0.878318E+00  0.552E+00    1.70       1.0  T
 116    -13.0892948 -0.451696E-01  0.312E+00    1.47       1.0  T
 117    -12.1684457  0.920849E+00  0.930E+00    0.00       1.0  T
 118    -13.0438672 -0.875421E+00  0.552E+00    1.70       1.0  T
 119    -13.0902295 -0.463623E-01  0.303E+00    1.46       1.0  T
 120    -12.1674467  0.922783E+00  0.935E+00    0.00       1.0  T
 121    -13.0450754 -0.877629E+00  0.547E+00    1.70       1.0  T
 122    -13.0896633 -0.445879E-01  0.308E+00    1.47       1.0  T
 123    -12.1688840  0.920779E+00  0.928E+00    0.00       1.0  T
 124    -13.0457880 -0.876904E+00  0.543E+00    1.70       1.0  T
 125    -13.0901398 -0.443518E-01  0.303E+00    1.46       1.0  T
 126    -12.1686574  0.921482E+00  0.929E+00    0.00       1.0  T
 127    -13.0470497 -0.878392E+00  0.538E+00    1.69       1.0  T
 128    -13.0898907 -0.428410E-01  0.305E+00    1.47       1.0  T
 129    -12.1700084  0.919882E+00  0.924E+00    0.00       1.0  T
 130    -13.0488595 -0.878851E+00  0.530E+00    1.68       1.0  T
 131    -13.0902450 -0.413855E-01  0.302E+00    1.46       1.0  T
 132    -12.1703316  0.919913E+00  0.923E+00    0.00       1.0  T
 133    -13.0508146 -0.880483E+00  0.521E+00    1.67       1.0  T
 134    -13.0901351 -0.393205E-01  0.302E+00    1.46       1.0  T
 135    -12.2302881  0.859847E+00  0.892E+00    0.00       1.0  T
 136    -13.0562600 -0.825972E+00  0.497E+00    1.65       1.0  T
 137    -13.0909543 -0.346942E-01  0.295E+00    1.46       1.0  T
 138    -12.1829615  0.907993E+00  0.915E+00    0.00       1.0  T
 139    -13.0565169 -0.873555E+00  0.495E+00    1.65       1.0  T
 140    -13.0902131 -0.336961E-01  0.301E+00    1.46       1.0  T
 141    -13.1344373 -0.442243E-01  0.136E+00    0.16       1.0  T
 142    -12.1660489  0.968388E+00  0.943E+00    0.00       1.0  T
 143    -13.0512542 -0.885205E+00  0.520E+00    1.67       1.0  T
 144    -13.0869957 -0.357415E-01  0.329E+00    1.48       1.0  T
 145    -13.0956533 -0.865762E-02  0.251E+00    0.84       1.0  T
 146    -12.1653613  0.930292E+00  0.947E+00    0.00       1.0  T
 147    -13.0470504 -0.881689E+00  0.538E+00    1.69       1.0  T
 148    -13.0865738 -0.395234E-01  0.333E+00    1.48       1.0  T
 149    -13.0961929 -0.961905E-02  0.246E+00    0.70       1.0  T
 150    -12.1636571  0.932536E+00  0.956E+00    0.00       1.0  T
 151    -13.0431440 -0.879487E+00  0.555E+00    1.71       1.0  T
 152    -13.0857225 -0.425785E-01  0.341E+00    1.49       1.0  T
 153    -13.0965369 -0.108144E-01  0.244E+00    0.63       1.0  T
 154    -12.1621970  0.934340E+00  0.964E+00    0.00       1.0  T
 155    -13.0400479 -0.877851E+00  0.569E+00    1.72       1.0  T
 156    -13.0852277 -0.451798E-01  0.345E+00    1.49       1.0  T
 157    -13.0971264 -0.118987E-01  0.239E+00    0.50       1.0  T
 158    -12.1603534  0.936773E+00  0.974E+00    0.00       1.0  T
 159    -13.0380458 -0.877692E+00  0.578E+00    1.73       1.0  T
 160    -13.0847398 -0.466940E-01  0.350E+00    1.49       1.0  T
 161    -13.0979521 -0.132123E-01  0.234E+00    0.40       1.0  T
 162    -12.1587273  0.939225E+00  0.982E+00    0.00       1.0  T
 163    -13.0382355 -0.879508E+00  0.578E+00    1.73       1.0  T
 164    -13.0849321 -0.466967E-01  0.350E+00    1.49       1.0  T
 165    -13.1049118 -0.199797E-01  0.216E+00    0.25       1.0  T
 166    -12.1578603  0.947051E+00  0.987E+00    0.00       1.0  T
 167    -13.0414218 -0.883561E+00  0.567E+00    1.71       1.0  T
 168    -13.0861032 -0.446814E-01  0.342E+00    1.48       1.0  T
 169    -13.1171246 -0.310214E-01  0.184E+00    0.07       1.0  T
 170    -13.0917528  0.253719E-01  0.292E+00    1.45       1.0  T
 171    -12.1617496  0.930003E+00  0.966E+00    0.00       1.0  T
 172    -13.0441059 -0.882356E+00  0.555E+00    1.70       1.0  T
 173    -13.0886786 -0.445727E-01  0.319E+00    1.47       1.0  T
 174    -12.1683134  0.920365E+00  0.930E+00    0.00       1.0  T
 175    -13.0384930 -0.870180E+00  0.575E+00    1.73       1.0  T
 176    -13.0901304 -0.516374E-01  0.305E+00    1.46       1.0  T
 177    -12.1659665  0.924164E+00  0.943E+00    0.00       1.0  T
 178    -13.0410176 -0.875051E+00  0.565E+00    1.72       1.0  T
 179    -13.0892742 -0.482566E-01  0.312E+00    1.47       1.0  T
 180    -12.1676606  0.921614E+00  0.934E+00    0.00       1.0  T
 181    -13.0397999 -0.872139E+00  0.569E+00    1.72       1.0  T
 182    -13.0895543 -0.497544E-01  0.309E+00    1.47       1.0  T
 183    -12.1673642  0.922190E+00  0.936E+00    0.00       1.0  T
 184    -13.0405915 -0.873227E+00  0.566E+00    1.72       1.0  T
 185    -13.0893397 -0.487482E-01  0.311E+00    1.47       1.0  T
 186    -12.1680162  0.921323E+00  0.932E+00    0.00       1.0  T
 187    -13.0404900 -0.872474E+00  0.566E+00    1.72       1.0  T
 188    -13.0893910 -0.489010E-01  0.310E+00    1.47       1.0  T
 189    -12.1681985  0.921193E+00  0.931E+00    0.00       1.0  T
 190    -13.0409542 -0.872756E+00  0.564E+00    1.72       1.0  T
 191    -13.0893314 -0.483772E-01  0.311E+00    1.47       1.0  T
 192    -12.1686304  0.920701E+00  0.929E+00    0.00       1.0  T
 193    -13.0413565 -0.872726E+00  0.562E+00    1.72       1.0  T
 194    -13.0893480 -0.479915E-01  0.310E+00    1.47       1.0  T
 195    -12.1689656  0.920382E+00  0.928E+00    0.00       1.0  T
 196    -13.0420491 -0.873084E+00  0.559E+00    1.71       1.0  T
 197    -13.0893398 -0.472907E-01  0.310E+00    1.47       1.0  T
 198    -12.1694429  0.919897E+00  0.926E+00    0.00       1.0  T
 199    -13.0429607 -0.873518E+00  0.555E+00    1.71       1.0  T
 200    -13.0893643 -0.464036E-01  0.310E+00    1.47       1.0  T
 201    -12.1701600  0.919204E+00  0.924E+00    0.00       1.0  T
 202    -13.0442286 -0.874069E+00  0.549E+00    1.70       1.0  T
 203    -13.0893931 -0.451645E-01  0.309E+00    1.47       1.0  T
 204    -12.1733642  0.916029E+00  0.920E+00    0.00       1.0  T
 205    -13.0460484 -0.872684E+00  0.541E+00    1.70       1.0  T
 206    -13.0894717 -0.434233E-01  0.308E+00    1.47       1.0  T
 207    -12.2008122  0.888660E+00  0.906E+00    0.00       1.0  T
 208    -13.0493468 -0.848535E+00  0.528E+00    1.68       1.0  T
 209    -13.0897464 -0.403997E-01  0.306E+00    1.47       1.0  T
 210    -12.2901481  0.799598E+00  0.863E+00    0.00       1.0  T
 211    -13.0548942 -0.764746E+00  0.503E+00    1.65       1.0  T
 212    -13.0903736 -0.354794E-01  0.300E+00    1.46       1.0  T
 213    -12.2229159  0.867458E+00  0.895E+00    0.00       1.0  T
 214    -13.0539202 -0.831004E+00  0.507E+00    1.66       1.0  T
 215    -13.0896347 -0.357144E-01  0.306E+00    1.47       1.0  T
 216    -13.1458513 -0.562166E-01  0.891E-01    0.13       1.0  T
 217    -12.1672237  0.978628E+00  0.937E+00    0.00       1.0  T
 218    -13.0492347 -0.882011E+00  0.528E+00    1.68       1.0  T
 219    -13.0871514 -0.379166E-01  0.327E+00    1.48       1.0  T
 220    -13.0960902 -0.893886E-02  0.246E+00    0.67       1.0  T
 221    -12.1636920  0.932398E+00  0.956E+00    0.00       1.0  T
 222    -13.0445346 -0.880843E+00  0.549E+00    1.70       1.0  T
 223    -13.0852695 -0.407349E-01  0.343E+00    1.49       1.0  T
 224    -13.0957200 -0.104506E-01  0.251E+00    0.84       1.0  T
 225    -12.1636509  0.932069E+00  0.956E+00    0.00       1.0  T
 226    -13.0425473 -0.878896E+00  0.558E+00    1.71       1.0  T
 227    -13.0860876 -0.435402E-01  0.338E+00    1.48       1.0  T
 228    -13.0968325 -0.107449E-01  0.240E+00    0.52       1.0  T
 229    -12.1609903  0.935842E+00  0.971E+00    0.00       1.0  T
 230    -13.0406534 -0.879663E+00  0.567E+00    1.72       1.0  T
 231    -13.0853312 -0.446777E-01  0.345E+00    1.49       1.0  T
 232    -13.0970318 -0.117006E-01  0.239E+00    0.51       1.0  T
 233    -12.1599729  0.937059E+00  0.976E+00    0.00       1.0  T
 234    -13.0401987 -0.880226E+00  0.570E+00    1.72       1.0  T
 235    -13.0858271 -0.456284E-01  0.342E+00    1.48       1.0  T
 236    -13.1003196 -0.144925E-01  0.227E+00    0.31       1.0  T
 237    -12.1581908  0.942129E+00  0.985E+00    0.00       1.0  T
 238    -13.0417493 -0.883559E+00  0.565E+00    1.71       1.0  T
 239    -13.0861596 -0.444103E-01  0.340E+00    1.48       1.0  T
 240    -13.1144335 -0.282738E-01  0.193E+00    0.21       1.0  T
 241    -12.1589607  0.955473E+00  0.981E+00    0.00       1.0  T
 242    -13.0439315 -0.884971E+00  0.557E+00    1.70       1.0  T
 243    -13.0875877 -0.436562E-01  0.330E+00    1.47       1.0  T
 244    -12.4728483  0.614739E+00  0.768E+00    0.00       1.0  T
 245    -13.0519410 -0.579093E+00  0.523E+00    1.66       1.0  T
 246    -13.0934632 -0.415221E-01  0.275E+00    1.44       1.0  T
 247    -12.1631375  0.930326E+00  0.959E+00    0.00       1.0  T
 248    -13.0417197 -0.878582E+00  0.564E+00    1.71       1.0  T
 249    -13.0885933 -0.468736E-01  0.319E+00    1.47       1.0  T
 250    -12.1689718  0.919621E+00  0.927E+00    0.00       1.0  T
     SCC iter.                  ...        0 min,  0.113 sec
     gradient                   ...        0 min,  0.001 sec
 * total energy  :   -12.1002194 Eh     change        0.2792242E+00 Eh
   gradient norm :     0.3660585 Eh/α   predicted    -0.7078875E+00 (-353.52%)
   displ. norm   :     0.0360561 α      lambda       -0.6474315E-02
   maximum displ.:     0.0298391 α      in ANC's #1, #12, #2, ...

........................................................................
.............................. CYCLE    6 ..............................
........................................................................
   1    -13.0285339 -0.130285E+02  0.749E+00    1.72       0.0  T
   2    -12.7540843  0.274450E+00  0.114E+01    0.39       1.0  T
   3    -13.1038701 -0.349786E+00  0.346E+00    1.20       1.0  T
   4    -12.1442633  0.959607E+00  0.107E+01    0.00       1.0  T
   5    -12.1748239 -0.305606E-01  0.921E+00    0.00       1.0  T
   6    -13.0038327 -0.829009E+00  0.609E+00    2.19       1.0  T
   7    -13.0347916 -0.309589E-01  0.460E+00    2.01       1.0  T
   8    -13.0567575 -0.219659E-01  0.410E+00    1.72       1.0  T
   9    -13.0581117 -0.135418E-02  0.408E+00    1.71       1.0  T
  10    -13.0651603 -0.704860E-02  0.383E+00    1.66       1.0  T
  11    -13.0664303 -0.127002E-02  0.375E+00    1.65       1.0  T
  12    -12.1746089  0.891821E+00  0.929E+00    0.00       1.0  T
  13    -13.0118062 -0.837197E+00  0.622E+00    1.88       1.0  T
  14    -13.0491896 -0.373834E-01  0.468E+00    1.72       1.0  T
  15    -13.0810326 -0.318430E-01  0.307E+00    1.55       1.0  T
  16    -12.1654791  0.915554E+00  0.966E+00    0.00       1.0  T
  17    -13.0317002 -0.866221E+00  0.569E+00    1.76       1.0  T
  18    -13.0798934 -0.481932E-01  0.336E+00    1.53       1.0  T
  19    -12.1722406  0.907653E+00  0.924E+00    0.00       1.0  T
  20    -13.0426968 -0.870456E+00  0.539E+00    1.69       1.0  T
  21    -13.0822623 -0.395655E-01  0.333E+00    1.50       1.0  T
  22    -13.0940161 -0.117538E-01  0.244E+00    0.35       1.0  T
  23    -12.1624843  0.931532E+00  0.970E+00    0.00       1.0  T
  24    -13.0110811 -0.848597E+00  0.663E+00    1.83       1.0  T
  25    -13.0850612 -0.739801E-01  0.328E+00    1.47       1.0  T
  26    -12.1703203  0.914741E+00  0.925E+00    0.00       1.0  T
  27    -13.0226845 -0.852364E+00  0.630E+00    1.77       1.0  T
  28    -13.0866298 -0.639453E-01  0.320E+00    1.46       1.0  T
  29    -12.3303172  0.756313E+00  0.842E+00    0.00       1.0  T
  30    -13.0397204 -0.709403E+00  0.569E+00    1.69       1.0  T
  31    -13.0879270 -0.482066E-01  0.311E+00    1.45       1.0  T
  32    -12.4225597  0.665367E+00  0.795E+00    0.00       1.0  T
  33    -13.0482770 -0.625717E+00  0.534E+00    1.65       1.0  T
  34    -13.0886810 -0.404040E-01  0.305E+00    1.44       1.0  T
  35    -12.2497497  0.838931E+00  0.882E+00    0.00       1.0  T
  36    -13.0423647 -0.792615E+00  0.559E+00    1.67       1.0  T
  37    -13.0877420 -0.453773E-01  0.312E+00    1.45       1.0  T
  38    -13.1144232 -0.266812E-01  0.194E+00    0.20       1.0  T
  39    -12.1648729  0.949550E+00  0.953E+00    0.00       1.0  T
  40    -13.0196336 -0.854761E+00  0.644E+00    1.78       1.0  T
  41    -13.0888489 -0.692153E-01  0.307E+00    1.44       1.0  T
  42    -12.1713980  0.917451E+00  0.922E+00    0.00       1.0  T
  43    -13.0333755 -0.861978E+00  0.597E+00    1.71       1.0  T
  44    -13.0890173 -0.556418E-01  0.305E+00    1.44       1.0  T
  45    -12.2416017  0.847416E+00  0.886E+00    0.00       1.0  T
  46    -13.0434389 -0.801837E+00  0.557E+00    1.67       1.0  T
  47    -13.0888507 -0.454118E-01  0.305E+00    1.44       1.0  T
  48    -12.7899406  0.298910E+00  0.564E+00    0.01       1.0  T
  49    -13.0710953 -0.281155E+00  0.425E+00    1.53       1.0  T
  50    -13.0923373 -0.212421E-01  0.270E+00    1.28       1.0  T
  51    -12.1674815  0.924856E+00  0.938E+00    0.00       1.0  T
  52    -13.0337658 -0.866284E+00  0.594E+00    1.71       1.0  T
  53    -13.0890769 -0.553111E-01  0.303E+00    1.44       1.0  T
  54    -12.2418147  0.847262E+00  0.886E+00    0.00       1.0  T
  55    -13.0498196 -0.808005E+00  0.530E+00    1.64       1.0  T
  56    -13.0891457 -0.393261E-01  0.300E+00    1.44       1.0  T
  57    -13.0091940  0.799517E-01  0.357E+00    0.04       1.0  T
  58    -13.0832350 -0.740410E-01  0.346E+00    1.47       1.0  T
  59    -13.0949958 -0.117608E-01  0.242E+00    0.44       1.0  T
  60    -12.1653945  0.929601E+00  0.950E+00    0.00       1.0  T
  61    -13.0321751 -0.866781E+00  0.600E+00    1.72       1.0  T
  62    -13.0895724 -0.573974E-01  0.300E+00    1.44       1.0  T
  63    -12.1749622  0.914610E+00  0.919E+00    0.00       1.0  T
  64    -13.0489512 -0.873989E+00  0.535E+00    1.64       1.0  T
  65    -13.0899526 -0.410014E-01  0.295E+00    1.44       1.0  T
  66    -12.3798730  0.710080E+00  0.817E+00    0.00       1.0  T
  67    -13.0610690 -0.681196E+00  0.478E+00    1.58       1.0  T
  68    -13.0904159 -0.293469E-01  0.288E+00    1.44       1.0  T
  69    -12.3614615  0.728954E+00  0.827E+00    0.00       1.0  T
  70    -13.0631237 -0.701662E+00  0.466E+00    1.58       1.0  T
  71    -13.0898363 -0.267126E-01  0.291E+00    1.44       1.0  T
  72    -13.1378712 -0.480349E-01  0.123E+00    0.15       1.0  T
  73    -12.1707974  0.967074E+00  0.924E+00    0.00       1.0  T
  74    -13.0566547 -0.885857E+00  0.498E+00    1.61       1.0  T
  75    -13.0887854 -0.321307E-01  0.301E+00    1.45       1.0  T
  76    -13.0956230 -0.683754E-02  0.239E+00    0.37       1.0  T
  77    -12.1681983  0.927425E+00  0.935E+00    0.00       1.0  T
  78    -13.0485980 -0.880400E+00  0.535E+00    1.64       1.0  T
  79    -13.0894119 -0.408138E-01  0.299E+00    1.44       1.0  T
  80    -13.1212522 -0.318403E-01  0.176E+00    0.18       1.0  T
  81    -12.1689037  0.952348E+00  0.931E+00    0.00       1.0  T
  82    -13.0516236 -0.882720E+00  0.523E+00    1.63       1.0  T
  83    -13.0903040 -0.386804E-01  0.291E+00    1.43       1.0  T
  84    -13.0705882  0.197158E-01  0.272E+00    0.05       1.0  T
  85    -13.0874065 -0.168183E-01  0.315E+00    1.45       1.0  T
  86    -13.0520418  0.353648E-01  0.300E+00    0.05       1.0  T
  87    -13.0872967 -0.352550E-01  0.316E+00    1.45       1.0  T
  88    -12.9900914  0.972053E-01  0.380E+00    0.04       1.0  T
  89    -13.0853764 -0.952851E-01  0.331E+00    1.46       1.0  T
  90    -13.1070147 -0.216383E-01  0.211E+00    0.23       1.0  T
  91    -12.1676041  0.939411E+00  0.938E+00    0.00       1.0  T
  92    -13.0517489 -0.884145E+00  0.523E+00    1.63       1.0  T
  93    -13.0911935 -0.394446E-01  0.285E+00    1.43       1.0  T
  94    -12.3199204  0.771273E+00  0.848E+00    0.00       1.0  T
  95    -13.0674152 -0.747495E+00  0.447E+00    1.55       1.0  T
  96    -13.0920873 -0.246721E-01  0.273E+00    1.38       1.0  T
  97    -12.4959578  0.596129E+00  0.755E+00    0.00       1.0  T
  98    -13.0728309 -0.576873E+00  0.415E+00    1.53       1.0  T
  99    -13.0921588 -0.193279E-01  0.270E+00    1.27       1.0  T
 100    -13.0948609 -0.270208E-02  0.229E+00    0.06       1.0  T
 101    -13.0892918  0.556906E-02  0.297E+00    1.44       1.0  T
 102    -13.1156152 -0.263234E-01  0.190E+00    0.20       1.0  T
 103    -12.1698461  0.945769E+00  0.926E+00    0.00       1.0  T
 104    -13.0633531 -0.893507E+00  0.467E+00    1.57       1.0  T
 105    -13.0911143 -0.277612E-01  0.282E+00    1.43       1.0  T
 106    -13.1074448 -0.163305E-01  0.210E+00    0.23       1.0  T
 107    -12.1699992  0.937446E+00  0.926E+00    0.00       1.0  T
 108    -13.0638484 -0.893849E+00  0.465E+00    1.57       1.0  T
 109    -13.0915269 -0.276785E-01  0.279E+00    1.43       1.0  T
 110    -13.1204224 -0.288955E-01  0.178E+00    0.18       1.0  T
 111    -12.1766855  0.943737E+00  0.919E+00    0.00       1.0  T
 112    -13.0678292 -0.891144E+00  0.444E+00    1.55       1.0  T
 113    -13.0917066 -0.238774E-01  0.276E+00    1.43       1.0  T
 114    -13.1075461 -0.158394E-01  0.210E+00    0.23       1.0  T
 115    -12.1716850  0.935861E+00  0.922E+00    0.00       1.0  T
 116    -13.0673143 -0.895629E+00  0.447E+00    1.55       1.0  T
 117    -13.0917618 -0.244475E-01  0.276E+00    1.43       1.0  T
 118    -13.1049750 -0.132132E-01  0.216E+00    0.24       1.0  T
 119    -12.1734043  0.931571E+00  0.921E+00    0.00       1.0  T
 120    -13.0685030 -0.895099E+00  0.441E+00    1.55       1.0  T
 121    -13.0919716 -0.234686E-01  0.274E+00    1.40       1.0  T
 122    -13.1042569 -0.122853E-01  0.217E+00    0.24       1.0  T
 123    -12.1826726  0.921584E+00  0.915E+00    0.00       1.0  T
 124    -13.0701924 -0.887520E+00  0.431E+00    1.54       1.0  T
 125    -13.0921025 -0.219102E-01  0.272E+00    1.35       1.0  T
 126    -13.1006051 -0.850251E-02  0.226E+00    0.27       1.0  T
 127    -12.2309617  0.869643E+00  0.892E+00    0.00       1.0  T
 128    -13.0725069 -0.841545E+00  0.418E+00    1.53       1.0  T
 129    -13.0922981 -0.197912E-01  0.269E+00    1.27       1.0  T
 130    -13.0983783 -0.608024E-02  0.231E+00    0.30       1.0  T
 131    -12.5445003  0.553878E+00  0.727E+00    0.00       1.0  T
 132    -13.0785521 -0.534052E+00  0.380E+00    1.50       1.0  T
 133    -13.0933683 -0.148162E-01  0.258E+00    0.92       1.0  T
 134    -13.1171262 -0.237579E-01  0.186E+00    0.19       1.0  T
 135    -13.1519217 -0.347955E-01  0.397E-01    0.09       1.0  T
 136    -13.0931621  0.587596E-01  0.261E+00    1.02       1.0  T
 137    -12.8268422  0.266320E+00  0.536E+00    0.02       1.0  T
 138    -13.0847868 -0.257945E+00  0.336E+00    1.46       1.0  T
 139    -13.0951478 -0.103610E-01  0.242E+00    0.45       1.0  T
 140    -12.2529924  0.842155E+00  0.881E+00    0.00       1.0  T
 141    -13.0761386 -0.823146E+00  0.397E+00    1.51       1.0  T
 142    -13.0935961 -0.174575E-01  0.258E+00    0.93       1.0  T
 143    -13.1309314 -0.373353E-01  0.146E+00    0.16       1.0  T
 144    -13.1090161  0.219153E-01  0.206E+00    0.22       1.0  T
 145    -12.3748958  0.734120E+00  0.820E+00    0.00       1.0  T
 146    -13.0789273 -0.704032E+00  0.379E+00    1.49       1.0  T
 147    -13.0941412 -0.152139E-01  0.252E+00    0.76       1.0  T
 148    -13.1519688 -0.578276E-01  0.392E-01    0.09       1.0  T
 149    -13.0935704  0.583984E-01  0.258E+00    0.95       1.0  T
 150    -12.6425146  0.451056E+00  0.668E+00    0.00       1.0  T
 151    -13.0833965 -0.440882E+00  0.348E+00    1.47       1.0  T
 152    -13.0952853 -0.118888E-01  0.241E+00    0.45       1.0  T
 153    -12.4011385  0.694147E+00  0.807E+00    0.00       1.0  T
 154    -13.0802644 -0.679126E+00  0.371E+00    1.49       1.0  T
 155    -13.0945952 -0.143309E-01  0.247E+00    0.63       1.0  T
 156    -13.1337155 -0.391203E-01  0.134E+00    0.08       1.0  T
 157    -13.0923511  0.413644E-01  0.271E+00    1.34       1.0  T
 158    -13.1323230 -0.399719E-01  0.138E+00    0.07       1.0  T
 159    -13.0925966  0.397264E-01  0.268E+00    1.27       1.0  T
 160    -12.9067068  0.185890E+00  0.467E+00    0.03       1.0  T
 161    -13.0879466 -0.181240E+00  0.312E+00    1.45       1.0  T
 162    -13.1150272 -0.270806E-01  0.191E+00    0.20       1.0  T
 163    -12.6468885  0.468139E+00  0.665E+00    0.00       1.0  T
 164    -13.0844990 -0.437611E+00  0.340E+00    1.46       1.0  T
 165    -13.0959144 -0.114154E-01  0.238E+00    0.39       1.0  T
 166    -12.5953625  0.500552E+00  0.697E+00    0.00       1.0  T
 167    -13.0839979 -0.488635E+00  0.344E+00    1.47       1.0  T
 168    -13.0955130 -0.115152E-01  0.240E+00    0.43       1.0  T
 169    -12.9809934  0.114520E+00  0.391E+00    0.04       1.0  T
 170    -13.0891533 -0.108160E+00  0.302E+00    1.44       1.0  T
 171    -13.1122068 -0.230535E-01  0.198E+00    0.21       1.0  T
 172    -13.0402804  0.719264E-01  0.318E+00    0.05       1.0  T
 173    -13.0904037 -0.501233E-01  0.290E+00    1.43       1.0  T
 174    -13.1311933 -0.407896E-01  0.145E+00    0.16       1.0  T
 175    -13.1214308  0.976253E-02  0.174E+00    0.18       1.0  T
 176    -13.1519363 -0.305055E-01  0.396E-01    0.09       1.0  T
 177    -13.0941514  0.577849E-01  0.252E+00    0.79       1.0  T
 178    -12.8121577  0.281994E+00  0.548E+00    0.01       1.0  T
 179    -13.0880950 -0.275937E+00  0.312E+00    1.44       1.0  T
 180    -13.1201566 -0.320616E-01  0.178E+00    0.18       1.0  T
 181    -12.9692274  0.150929E+00  0.404E+00    0.03       1.0  T
 182    -13.0900392 -0.120812E+00  0.295E+00    1.43       1.0  T
 183    -13.1495801 -0.595410E-01  0.607E-01    0.09       1.0  T
 184    -13.0942610  0.553191E-01  0.252E+00    0.80       1.0  T
 185    -12.2597505  0.834510E+00  0.878E+00    0.00       1.0  T
 186    -13.0828324 -0.823082E+00  0.355E+00    1.47       1.0  T
 187    -13.0999199 -0.170875E-01  0.227E+00    0.29       1.0  T
 188    -12.2438222  0.856098E+00  0.886E+00    0.00       1.0  T
 189    -13.0821870 -0.838365E+00  0.360E+00    1.47       1.0  T
 190    -13.0989852 -0.167982E-01  0.229E+00    0.30       1.0  T
 191    -12.3743001  0.724685E+00  0.821E+00    0.00       1.0  T
 192    -13.0835300 -0.709230E+00  0.349E+00    1.47       1.0  T
 193    -13.0989950 -0.154650E-01  0.229E+00    0.30       1.0  T
 194    -12.8278538  0.271141E+00  0.535E+00    0.02       1.0  T
 195    -13.0880055 -0.260152E+00  0.312E+00    1.45       1.0  T
 196    -13.1106445 -0.226390E-01  0.202E+00    0.21       1.0  T
 197    -13.1522481 -0.416036E-01  0.359E-01    0.10       1.0  T
 198    -13.0939605  0.582876E-01  0.254E+00    0.84       1.0  T
 199    -13.1425653 -0.486049E-01  0.102E+00    0.14       1.0  T
 200    -13.0962106  0.463547E-01  0.237E+00    0.37       1.0  T
 201    -13.1449257 -0.487151E-01  0.888E-01    0.08       1.0  T
 202    -13.0938014  0.511242E-01  0.256E+00    0.91       1.0  T
 203    -13.1536315 -0.598301E-01  0.924E-02    0.11       1.0  T
 204    -13.0949231  0.587085E-01  0.245E+00    0.57       1.0  T
 205    -12.9965390  0.983841E-01  0.374E+00    0.04       1.0  T
 206    -13.0913546 -0.948156E-01  0.282E+00    1.43       1.0  T
 207    -13.1477811 -0.564265E-01  0.728E-01    0.09       1.0  T
 208    -13.0944232  0.533580E-01  0.251E+00    0.76       1.0  T
 209    -12.5422315  0.552192E+00  0.729E+00    0.00       1.0  T
 210    -13.0873308 -0.545099E+00  0.320E+00    1.45       1.0  T
 211    -13.1395756 -0.522448E-01  0.115E+00    0.14       1.0  T
 212    -13.1121552  0.274204E-01  0.198E+00    0.21       1.0  T
 213    -12.7455179  0.366637E+00  0.598E+00    0.01       1.0  T
 214    -13.0889205 -0.343403E+00  0.306E+00    1.44       1.0  T
 215    -13.1467496 -0.578291E-01  0.807E-01    0.13       1.0  T
 216    -13.0982972  0.484524E-01  0.231E+00    0.31       1.0  T
 217    -12.4548085  0.643489E+00  0.778E+00    0.00       1.0  T
 218    -13.0868328 -0.632024E+00  0.324E+00    1.45       1.0  T
 219    -13.1181763 -0.313435E-01  0.183E+00    0.19       1.0  T
 220    -13.0902174  0.279589E-01  0.238E+00    0.06       1.0  T
 221    -13.0928147 -0.259727E-02  0.268E+00    1.29       1.0  T
 222    -13.0528949  0.399198E-01  0.300E+00    0.05       1.0  T
 223    -13.0924042 -0.395093E-01  0.273E+00    1.42       1.0  T
 224    -12.9339051  0.158499E+00  0.441E+00    0.03       1.0  T
 225    -13.0910406 -0.157136E+00  0.286E+00    1.43       1.0  T
 226    -12.9749262  0.116114E+00  0.398E+00    0.03       1.0  T
 227    -13.0914469 -0.116521E+00  0.282E+00    1.43       1.0  T
 228    -12.7747442  0.316703E+00  0.576E+00    0.01       1.0  T
 229    -13.0895236 -0.314779E+00  0.301E+00    1.44       1.0  T
 230    -12.9968863  0.926373E-01  0.373E+00    0.04       1.0  T
 231    -13.0915630 -0.946767E-01  0.281E+00    1.43       1.0  T
 232    -12.6750749  0.416488E+00  0.646E+00    0.00       1.0  T
 233    -13.0886003 -0.413525E+00  0.309E+00    1.44       1.0  T
 234    -13.1211843 -0.325840E-01  0.171E+00    0.07       1.0  T
 235    -13.0933539  0.278303E-01  0.262E+00    1.11       1.0  T
 236    -13.0133510  0.800030E-01  0.353E+00    0.04       1.0  T
 237    -13.0916394 -0.782885E-01  0.279E+00    1.43       1.0  T
 238    -13.1488184 -0.571789E-01  0.679E-01    0.12       1.0  T
 239    -13.0954779  0.533405E-01  0.240E+00    0.44       1.0  T
 240    -13.1345464 -0.390685E-01  0.134E+00    0.15       1.0  T
 241    -13.0976237  0.369227E-01  0.233E+00    0.32       1.0  T
 242    -13.1191354 -0.215117E-01  0.180E+00    0.19       1.0  T
 243    -13.1065708  0.125646E-01  0.211E+00    0.23       1.0  T
 244    -13.1214444 -0.148736E-01  0.174E+00    0.18       1.0  T
 245    -13.1098859  0.115585E-01  0.203E+00    0.22       1.0  T
 246    -13.1325465 -0.226606E-01  0.141E+00    0.16       1.0  T
 247    -13.1058545  0.266921E-01  0.213E+00    0.24       1.0  T
 248    -13.1536946 -0.478401E-01  0.370E-02    0.10       1.1  T
 249    -13.0953748  0.583198E-01  0.241E+00    0.48       1.0  T
 250    -13.1130291 -0.176543E-01  0.191E+00    0.07       1.0  T
     SCC iter.                  ...        0 min,  0.115 sec
     gradient                   ...        0 min,  0.001 sec
 * total energy  :   -13.0474241 Eh     change       -0.9472047E+00 Eh
   gradient norm :     0.0789648 Eh/α   predicted    -0.3241366E-02 ( -99.66%)
   displ. norm   :     0.5232326 α      lambda       -0.4345835E-02
   maximum displ.:     0.4965337 α      in ANC's #1, #2, #12, ...

........................................................................
.............................. CYCLE    7 ..............................
........................................................................
   1    -13.0743929 -0.130744E+02  0.321E+00    0.83       0.0  T
   2    -12.1100566  0.964336E+00  0.101E+01    0.00       1.0  T
   3    -13.0849242 -0.974868E+00  0.256E+00    0.45       1.0  T
   4    -12.1976629  0.887261E+00  0.897E+00    0.00       1.0  T
   5    -13.0567887 -0.859126E+00  0.344E+00    1.07       1.0  T
   6    -13.0785561 -0.217674E-01  0.253E+00    0.46       1.0  T
   7    -13.1114594 -0.329033E-01  0.166E+00    0.17       1.0  T
   8    -12.4993813  0.612078E+00  0.750E+00    0.00       1.0  T
   9    -13.0837126 -0.584331E+00  0.235E+00    0.33       1.0  T
  10    -13.0927048 -0.899225E-02  0.214E+00    0.23       1.0  T
  11    -13.1397216 -0.470168E-01  0.307E-01    0.11       1.0  T
  12    -13.1186704  0.210512E-01  0.144E+00    0.16       1.0  T
  13    -13.1403496 -0.216792E-01  0.188E-01    0.11       1.0  T
  14    -13.1305469  0.980267E-02  0.974E-01    0.13       1.0  T
  15    -13.1406962 -0.101493E-01  0.559E-02    0.10       1.0  T
  16    -13.1365342  0.416207E-02  0.624E-01    0.12       1.0  T
  17    -13.1407179 -0.418375E-02  0.327E-02    0.10       1.2  T
  18    -13.1392427  0.147521E-02  0.371E-01    0.11       1.0  T
  19    -13.1406859 -0.144319E-02  0.633E-02    0.10       1.0  T
  20    -13.1403893  0.296575E-03  0.177E-01    0.11       1.0  T
  21    -13.1406709 -0.281540E-03  0.734E-02    0.10       1.0  T
  22    -13.1406838 -0.129712E-04  0.650E-02    0.10       1.0  T
  23    -13.1406898 -0.600551E-05  0.604E-02    0.10       1.0  T
  24    -13.1407281 -0.382916E-04  0.110E-02    0.10       3.7  T
  25    -13.1406987  0.294601E-04  0.532E-02    0.10       1.0  T
  26    -13.1407278 -0.291478E-04  0.121E-02    0.10       3.4  T
  27    -13.1407268  0.104262E-05  0.156E-02    0.10       2.6  T
  28    -13.1407294 -0.264436E-05  0.438E-04    0.10      93.1  T
  29    -13.1407293  0.145733E-06  0.369E-03    0.10      11.0  T
     SCC iter.                  ...        0 min,  0.002 sec
     gradient                   ...        0 min,  0.001 sec
 * total energy  :   -13.0183766 Eh     change        0.2904749E-01 Eh
   gradient norm :     1.3651249 Eh/α   predicted    -0.2767699E-02 (-109.53%)
   displ. norm   :     0.3852647 α      lambda       -0.1658997E+00
   maximum displ.:     0.3793845 α      in ANC's #1, #2, #12, ...

........................................................................
.............................. CYCLE    8 ..............................
........................................................................
   1    -13.1138246 -0.131138E+02  0.204E+00    0.20       0.0  T
   2    -12.1337838  0.980041E+00  0.100E+01    0.00       1.0  T
   3    -12.1688321 -0.350483E-01  0.924E+00    0.00       1.0  T
   4    -13.0951885 -0.926356E+00  0.240E+00    0.32       1.0  T
   5    -13.1138446 -0.186561E-01  0.190E+00    0.21       1.0  T
   6    -13.1151799 -0.133537E-02  0.186E+00    0.20       1.0  T
   7    -13.0822607  0.329192E-01  0.252E+00    0.06       1.0  T
   8    -13.1519014 -0.696407E-01  0.242E-01    0.11       1.0  T
   9    -13.1523008 -0.399404E-03  0.151E-01    0.10       1.0  T
  10    -13.1523958 -0.949623E-04  0.118E-01    0.10       1.0  T
  11    -13.1524914 -0.956762E-04  0.714E-02    0.11       1.0  T
  12    -13.1525408 -0.493572E-04  0.236E-02    0.11       1.7  T
  13    -13.1525449 -0.408617E-05  0.135E-02    0.10       3.0  T
  14    -13.1525463 -0.143022E-05  0.708E-03    0.10       5.8  T
  15    -13.1525463  0.300123E-07  0.727E-03    0.10       5.6  T
  16    -13.1525468 -0.500359E-06  0.262E-03    0.10      15.6  T
  17    -13.1525469 -0.731464E-07  0.350E-04    0.10     116.6  T
     SCC iter.                  ...        0 min,  0.001 sec
     gradient                   ...        0 min,  0.001 sec
 * total energy  :   -13.0863742 Eh     change       -0.6799756E-01 Eh
   gradient norm :     0.0888847 Eh/α   predicted    -0.9526199E-01 (  40.10%)
   displ. norm   :     0.7585432 α      lambda       -0.1656306E-01
   maximum displ.:     0.7560340 α      in ANC's #2, #1, #4, ...

........................................................................
.............................. CYCLE    9 ..............................
........................................................................
   1    -12.6871858 -0.126872E+02  0.639E+00    0.00       0.0  T
   2    -12.7882820 -0.101096E+00  0.816E+00    3.42       1.0  T
   3    -13.0536510 -0.265369E+00  0.392E+00    1.32       1.0  T
   4    -13.0618191 -0.816801E-02  0.333E+00    1.29       1.0  T
   5    -12.1437696  0.918049E+00  0.974E+00    0.00       1.0  T
   6    -13.0591040 -0.915334E+00  0.327E+00    1.33       1.0  T
   7    -13.0668998 -0.779579E-02  0.293E+00    1.26       1.0  T
   8    -13.0660604  0.839384E-03  0.272E+00    1.06       1.0  T
   9    -13.0698106 -0.375022E-02  0.252E+00    0.68       1.0  T
  10    -13.0768911 -0.708046E-02  0.226E+00    0.27       1.0  T
  11    -12.2413366  0.835554E+00  0.882E+00    0.00       1.0  T
  12    -13.0656786 -0.824342E+00  0.290E+00    1.28       1.0  T
  13    -13.0683830 -0.270438E-02  0.261E+00    0.87       1.0  T
  14    -13.0688541 -0.471122E-03  0.256E+00    0.75       1.0  T
  15    -13.0704261 -0.157200E-02  0.244E+00    0.42       1.0  T
  16    -12.1524008  0.918025E+00  0.931E+00    0.00       1.0  T
  17    -13.0607413 -0.908340E+00  0.322E+00    1.31       1.0  T
  18    -13.0690887 -0.834745E-02  0.255E+00    0.72       1.0  T
  19    -13.0082687  0.608200E-01  0.332E+00    0.04       1.0  T
  20    -13.0657631 -0.574943E-01  0.283E+00    1.29       1.0  T
  21    -13.0705000 -0.473689E-02  0.243E+00    0.41       1.0  T
  22    -12.1519230  0.918577E+00  0.934E+00    0.00       1.0  T
  23    -13.0615123 -0.909589E+00  0.316E+00    1.31       1.0  T
  24    -13.0691889 -0.767660E-02  0.253E+00    0.65       1.0  T
  25    -12.2446944  0.824494E+00  0.880E+00    0.00       1.0  T
  26    -13.0557488 -0.811054E+00  0.354E+00    1.34       1.0  T
  27    -13.0661952 -0.104464E-01  0.281E+00    1.28       1.0  T
  28    -13.0693263 -0.313115E-02  0.251E+00    0.58       1.0  T
  29    -12.1510644  0.918262E+00  0.938E+00    0.00       1.0  T
  30    -13.0624850 -0.911421E+00  0.309E+00    1.30       1.0  T
  31    -13.0700988 -0.761376E-02  0.245E+00    0.44       1.0  T
  32    -12.1533305  0.916768E+00  0.928E+00    0.00       1.0  T
  33    -13.0499881 -0.896658E+00  0.390E+00    1.37       1.0  T
  34    -13.0657269 -0.157388E-01  0.287E+00    1.28       1.0  T
  35    -13.0692904 -0.356347E-02  0.251E+00    0.60       1.0  T
  36    -12.1529929  0.916298E+00  0.929E+00    0.00       1.0  T
  37    -13.0474786 -0.894486E+00  0.404E+00    1.38       1.0  T
  38    -13.0658911 -0.184124E-01  0.285E+00    1.28       1.0  T
  39    -13.0702653 -0.437424E-02  0.244E+00    0.42       1.0  T
  40    -12.1524931  0.917772E+00  0.931E+00    0.00       1.0  T
  41    -13.0504936 -0.898001E+00  0.388E+00    1.36       1.0  T
  42    -13.0667744 -0.162808E-01  0.276E+00    1.28       1.0  T
  43    -13.0789230 -0.121486E-01  0.222E+00    0.25       1.0  T
  44    -12.6641732  0.414750E+00  0.643E+00    0.00       1.0  T
  45    -13.0276648 -0.363492E+00  0.498E+00    1.47       1.0  T
  46    -13.0643459 -0.366811E-01  0.304E+00    1.28       1.0  T
  47    -13.0699471 -0.560123E-02  0.247E+00    0.49       1.0  T
  48    -12.1509669  0.918980E+00  0.938E+00    0.00       1.0  T
  49    -13.0678209 -0.916854E+00  0.267E+00    1.07       1.0  T
  50    -12.5718629  0.495958E+00  0.702E+00    0.00       1.0  T
  51    -13.0219305 -0.450068E+00  0.522E+00    1.49       1.0  T
  52    -13.0624785 -0.405480E-01  0.318E+00    1.29       1.0  T
  53    -13.0684753 -0.599683E-02  0.261E+00    0.89       1.0  T
  54    -12.1653907  0.903085E+00  0.919E+00    0.00       1.0  T
  55    -13.0225316 -0.857141E+00  0.521E+00    1.49       1.0  T
  56    -13.0631627 -0.406311E-01  0.312E+00    1.29       1.0  T
  57    -13.0692156 -0.605286E-02  0.254E+00    0.69       1.0  T
  58    -12.1526629  0.916553E+00  0.930E+00    0.00       1.0  T
  59    -13.0486488 -0.895986E+00  0.401E+00    1.37       1.0  T
  60    -13.0671313 -0.184825E-01  0.273E+00    1.24       1.0  T
  61    -13.0833610 -0.162296E-01  0.207E+00    0.06       1.0  T
  62    -13.0481013  0.352597E-01  0.403E+00    1.37       1.0  T
  63    -13.0684119 -0.203106E-01  0.261E+00    0.90       1.0  T
  64    -12.1516492  0.916763E+00  0.935E+00    0.00       1.0  T
  65    -13.0643212 -0.912672E+00  0.297E+00    1.29       1.0  T
  66    -13.0761179 -0.117967E-01  0.228E+00    0.27       1.0  T
  67    -12.6653627  0.410755E+00  0.642E+00    0.00       1.0  T
  68    -13.0199500 -0.354587E+00  0.531E+00    1.50       1.0  T
  69    -13.0636149 -0.436649E-01  0.308E+00    1.29       1.0  T
  70    -13.0700268 -0.641192E-02  0.246E+00    0.49       1.0  T
  71    -12.1517200  0.918307E+00  0.935E+00    0.00       1.0  T
  72    -13.0644133 -0.912693E+00  0.297E+00    1.29       1.0  T
  73    -13.0727172 -0.830391E-02  0.236E+00    0.31       1.0  T
  74    -12.1771526  0.895565E+00  0.913E+00    0.00       1.0  T
  75    -13.0166686 -0.839516E+00  0.544E+00    1.51       1.0  T
  76    -13.0618431 -0.451745E-01  0.322E+00    1.30       1.0  T
  77    -13.0686312 -0.678814E-02  0.260E+00    0.86       1.0  T
  78    -12.1645537  0.904078E+00  0.919E+00    0.00       1.0  T
  79    -13.0198362 -0.855283E+00  0.533E+00    1.50       1.0  T
  80    -13.0628815 -0.430453E-01  0.313E+00    1.29       1.0  T
  81    -13.0695002 -0.661870E-02  0.251E+00    0.63       1.0  T
  82    -12.1523708  0.917129E+00  0.932E+00    0.00       1.0  T
  83    -13.0564946 -0.904124E+00  0.354E+00    1.33       1.0  T
  84    -13.0686683 -0.121737E-01  0.258E+00    0.79       1.0  T
  85    -12.1569726  0.911696E+00  0.924E+00    0.00       1.0  T
  86    -13.0250444 -0.868072E+00  0.512E+00    1.48       1.0  T
  87    -13.0631675 -0.381231E-01  0.309E+00    1.29       1.0  T
  88    -13.0693960 -0.622844E-02  0.252E+00    0.63       1.0  T
  89    -12.1534279  0.915968E+00  0.928E+00    0.00       1.0  T
  90    -13.0400772 -0.886649E+00  0.445E+00    1.41       1.0  T
  91    -13.0657556 -0.256784E-01  0.286E+00    1.28       1.0  T
  92    -13.0783425 -0.125869E-01  0.223E+00    0.25       1.0  T
  93    -13.1104187 -0.320762E-01  0.135E+00    0.07       1.0  T
  94    -13.0499229  0.604958E-01  0.393E+00    1.36       1.0  T
  95    -13.0694331 -0.195103E-01  0.251E+00    0.60       1.0  T
  96    -12.1501306  0.919303E+00  0.943E+00    0.00       1.0  T
  97    -12.1268634  0.232672E-01  0.106E+01    0.00       1.0  T
  98    -13.0278548 -0.900991E+00  0.500E+00    1.46       1.0  T
  99    -13.0637203 -0.358656E-01  0.304E+00    1.29       1.0  T
 100    -12.1513328  0.912388E+00  0.937E+00    0.00       1.0  T
 101    -13.0197959 -0.868463E+00  0.533E+00    1.50       1.0  T
 102    -13.0599181 -0.401221E-01  0.334E+00    1.31       1.0  T
 103    -13.0775916 -0.176735E-01  0.224E+00    0.26       1.0  T
 104    -12.1452662  0.932325E+00  0.968E+00    0.00       1.0  T
 105    -13.0199583 -0.874692E+00  0.533E+00    1.50       1.0  T
 106    -13.0607724 -0.408142E-01  0.328E+00    1.31       1.0  T
 107    -13.1180344 -0.572619E-01  0.107E+00    0.08       1.0  T
 108    -13.0603941  0.576403E-01  0.327E+00    1.31       1.0  T
 109    -12.1487617  0.911632E+00  0.950E+00    0.00       1.0  T
 110    -13.0194762 -0.870714E+00  0.534E+00    1.50       1.0  T
 111    -13.0624133 -0.429371E-01  0.316E+00    1.30       1.0  T
 112    -12.1538299  0.908583E+00  0.927E+00    0.00       1.0  T
 113    -13.0222929 -0.868463E+00  0.524E+00    1.49       1.0  T
 114    -13.0606761 -0.383832E-01  0.329E+00    1.31       1.0  T
 115    -13.0731337 -0.124576E-01  0.235E+00    0.31       1.0  T
 116    -12.1448428  0.928291E+00  0.970E+00    0.00       1.0  T
 117    -13.0217659 -0.876923E+00  0.526E+00    1.49       1.0  T
 118    -13.0613376 -0.395717E-01  0.323E+00    1.30       1.0  T
 119    -13.1294260 -0.680884E-01  0.288E-01    0.10       1.0  T
 120    -13.0650196  0.644064E-01  0.290E+00    1.29       1.0  T
 121    -12.1464732  0.918546E+00  0.962E+00    0.00       1.0  T
 122    -13.0224398 -0.875967E+00  0.522E+00    1.49       1.0  T
 123    -13.0628482 -0.404084E-01  0.311E+00    1.30       1.0  T
 124    -12.1542649  0.908583E+00  0.926E+00    0.00       1.0  T
 125    -13.0246209 -0.870356E+00  0.514E+00    1.48       1.0  T
 126    -13.0606473 -0.360264E-01  0.328E+00    1.31       1.0  T
 127    -13.0707704 -0.101230E-01  0.242E+00    0.39       1.0  T
 128    -12.1450964  0.925674E+00  0.969E+00    0.00       1.0  T
 129    -13.0238950 -0.878799E+00  0.517E+00    1.48       1.0  T
 130    -13.0614241 -0.375291E-01  0.322E+00    1.30       1.0  T
 131    -13.1225996 -0.611755E-01  0.846E-01    0.13       1.0  T
 132    -13.0932376  0.293620E-01  0.187E+00    0.19       1.0  T
 133    -12.1454882  0.947749E+00  0.967E+00    0.00       1.0  T
 134    -13.0244830 -0.878995E+00  0.514E+00    1.48       1.0  T
 135    -13.0628438 -0.383609E-01  0.311E+00    1.30       1.0  T
 136    -12.1569193  0.905925E+00  0.924E+00    0.00       1.0  T
 137    -13.0265912 -0.869672E+00  0.505E+00    1.47       1.0  T
 138    -13.0603602 -0.337691E-01  0.330E+00    1.31       1.0  T
 139    -13.0700593 -0.969900E-02  0.246E+00    0.47       1.0  T
 140    -12.1454018  0.924657E+00  0.968E+00    0.00       1.0  T
 141    -13.0256787 -0.880277E+00  0.509E+00    1.47       1.0  T
 142    -13.0613621 -0.356835E-01  0.322E+00    1.30       1.0  T
 143    -13.1185364 -0.571743E-01  0.105E+00    0.14       1.0  T
 144    -12.1538602  0.964676E+00  0.927E+00    0.00       1.0  T
 145    -13.0251721 -0.871312E+00  0.510E+00    1.48       1.0  T
 146    -13.0612937 -0.361216E-01  0.323E+00    1.30       1.0  T
 147    -13.0951001 -0.338064E-01  0.182E+00    0.18       1.0  T
 148    -12.1476284  0.947472E+00  0.956E+00    0.00       1.0  T
 149    -13.0247379 -0.877109E+00  0.513E+00    1.48       1.0  T
 150    -13.0616262 -0.368883E-01  0.320E+00    1.30       1.0  T
 151    -13.1302982 -0.686720E-01  0.111E-02    0.10       3.7  T
 152    -13.0679680  0.623302E-01  0.263E+00    0.92       1.0  T
 153    -12.1456011  0.922367E+00  0.967E+00    0.00       1.0  T
 154    -13.0296063 -0.884005E+00  0.492E+00    1.46       1.0  T
 155    -13.0621614 -0.325550E-01  0.315E+00    1.30       1.0  T
 156    -12.7635371  0.298624E+00  0.571E+00    0.01       1.0  T
 157    -13.0438741 -0.280337E+00  0.424E+00    1.39       1.0  T
 158    -13.0661230 -0.222490E-01  0.281E+00    1.28       1.0  T
 159    -12.1492079  0.916915E+00  0.948E+00    0.00       1.0  T
 160    -13.0287202 -0.879512E+00  0.495E+00    1.46       1.0  T
 161    -13.0611029 -0.323827E-01  0.323E+00    1.31       1.0  T
 162    -13.0768506 -0.157478E-01  0.227E+00    0.26       1.0  T
 163    -12.1444113  0.932439E+00  0.973E+00    0.00       1.0  T
 164    -13.0315812 -0.887170E+00  0.483E+00    1.45       1.0  T
 165    -13.0612192 -0.296380E-01  0.321E+00    1.31       1.0  T
 166    -13.1018850 -0.406658E-01  0.164E+00    0.17       1.0  T
 167    -12.1479424  0.953943E+00  0.955E+00    0.00       1.0  T
 168    -13.0307612 -0.882819E+00  0.486E+00    1.45       1.0  T
 169    -13.0606787 -0.299176E-01  0.325E+00    1.31       1.0  T
 170    -13.0765492 -0.158705E-01  0.227E+00    0.26       1.0  T
 171    -12.1440540  0.932495E+00  0.976E+00    0.00       1.0  T
 172    -13.0328745 -0.888820E+00  0.476E+00    1.44       1.0  T
 173    -13.0610018 -0.281273E-01  0.322E+00    1.31       1.0  T
 174    -13.1290903 -0.680885E-01  0.337E-01    0.11       1.0  T
 175    -13.0947455  0.343449E-01  0.184E+00    0.18       1.0  T
 176    -12.1455071  0.949238E+00  0.968E+00    0.00       1.0  T
 177    -13.0323989 -0.886892E+00  0.478E+00    1.45       1.0  T
 178    -13.0613558 -0.289569E-01  0.320E+00    1.31       1.0  T
 179    -13.0005811  0.607746E-01  0.342E+00    0.04       1.0  T
 180    -13.0559298 -0.553487E-01  0.353E+00    1.34       1.0  T
 181    -13.0728868 -0.169570E-01  0.236E+00    0.30       1.0  T
 182    -12.1424601  0.930427E+00  0.984E+00    0.00       1.0  T
 183    -13.0347613 -0.892301E+00  0.467E+00    1.44       1.0  T
 184    -13.0617322 -0.269709E-01  0.316E+00    1.31       1.0  T
 185    -12.1915277  0.870205E+00  0.906E+00    0.00       1.0  T
 186    -13.0343471 -0.842819E+00  0.469E+00    1.44       1.0  T
 187    -13.0584889 -0.241418E-01  0.340E+00    1.32       1.0  T
 188    -13.0691419 -0.106530E-01  0.251E+00    0.57       1.0  T
 189    -12.1446820  0.924460E+00  0.973E+00    0.00       1.0  T
 190    -13.0327157 -0.888034E+00  0.476E+00    1.45       1.0  T
 191    -13.0604930 -0.277773E-01  0.325E+00    1.31       1.0  T
 192    -12.8738060  0.186687E+00  0.479E+00    0.02       1.0  T
 193    -13.0505875 -0.176782E+00  0.385E+00    1.37       1.0  T
 194    -13.0675047 -0.169172E-01  0.266E+00    0.99       1.0  T
 195    -12.1457242  0.921780E+00  0.967E+00    0.00       1.0  T
 196    -13.0304782 -0.884754E+00  0.486E+00    1.46       1.0  T
 197    -13.0607227 -0.302445E-01  0.324E+00    1.31       1.0  T
 198    -12.2200442  0.840678E+00  0.892E+00    0.00       1.0  T
 199    -13.0310096 -0.810965E+00  0.484E+00    1.45       1.0  T
 200    -13.0584831 -0.274736E-01  0.340E+00    1.32       1.0  T
 201    -13.0703116 -0.118285E-01  0.244E+00    0.38       1.0  T
 202    -12.1427440  0.927568E+00  0.983E+00    0.00       1.0  T
 203    -13.0303347 -0.887591E+00  0.486E+00    1.46       1.0  T
 204    -13.0608140 -0.304793E-01  0.323E+00    1.31       1.0  T
 205    -12.1539787  0.906835E+00  0.927E+00    0.00       1.0  T
 206    -13.0250281 -0.871049E+00  0.509E+00    1.48       1.0  T
 207    -13.0582099 -0.331818E-01  0.342E+00    1.32       1.0  T
 208    -13.0726494 -0.144395E-01  0.237E+00    0.31       1.0  T
 209    -12.1419755  0.930674E+00  0.987E+00    0.00       1.0  T
 210    -13.0282998 -0.886324E+00  0.495E+00    1.47       1.0  T
 211    -13.0610202 -0.327204E-01  0.321E+00    1.31       1.0  T
 212    -12.1525704  0.908450E+00  0.932E+00    0.00       1.0  T
 213    -13.0213153 -0.868745E+00  0.524E+00    1.50       1.0  T
 214    -13.0588557 -0.375404E-01  0.338E+00    1.32       1.0  T
 215    -13.1212981 -0.624424E-01  0.908E-01    0.08       1.0  T
 216    -13.0668083  0.544898E-01  0.269E+00    1.01       1.0  T
 217    -12.1454464  0.921362E+00  0.969E+00    0.00       1.0  T
 218    -13.0255320 -0.880086E+00  0.507E+00    1.48       1.0  T
 219    -13.0610071 -0.354751E-01  0.321E+00    1.31       1.0  T
 220    -12.1529957  0.908011E+00  0.931E+00    0.00       1.0  T
 221    -13.0212216 -0.868226E+00  0.525E+00    1.50       1.0  T
 222    -13.0589083 -0.376867E-01  0.337E+00    1.32       1.0  T
 223    -13.1153908 -0.564825E-01  0.119E+00    0.14       1.0  T
 224    -12.1481943  0.967197E+00  0.955E+00    0.00       1.0  T
 225    -13.0220419 -0.873848E+00  0.521E+00    1.49       1.0  T
 226    -13.0600321 -0.379903E-01  0.328E+00    1.31       1.0  T
 227    -12.1791159  0.880916E+00  0.912E+00    0.00       1.0  T
 228    -13.0214560 -0.842340E+00  0.524E+00    1.50       1.0  T
 229    -13.0585150 -0.370590E-01  0.340E+00    1.32       1.0  T
 230    -13.0803989 -0.218839E-01  0.219E+00    0.23       1.0  T
 231    -12.1423868  0.938012E+00  0.986E+00    0.00       1.0  T
 232    -13.0244867 -0.882100E+00  0.511E+00    1.48       1.0  T
 233    -13.0610192 -0.365325E-01  0.320E+00    1.31       1.0  T
 234    -12.1524111  0.908608E+00  0.934E+00    0.00       1.0  T
 235    -13.0176714 -0.865260E+00  0.538E+00    1.51       1.0  T
 236    -13.0595209 -0.418495E-01  0.332E+00    1.32       1.0  T
 237    -12.3438795  0.715641E+00  0.830E+00    0.00       1.0  T
 238    -13.0244414 -0.680562E+00  0.512E+00    1.48       1.0  T
 239    -13.0602179 -0.357765E-01  0.327E+00    1.31       1.0  T
 240    -12.1574433  0.902775E+00  0.924E+00    0.00       1.0  T
 241    -13.0160077 -0.858564E+00  0.546E+00    1.52       1.0  T
 242    -13.0592573 -0.432496E-01  0.334E+00    1.32       1.0  T
 243    -13.1282379 -0.689806E-01  0.449E-01    0.11       1.0  T
 244    -12.1532578  0.974980E+00  0.930E+00    0.00       1.0  T
 245    -13.0144889 -0.861231E+00  0.551E+00    1.53       1.0  T
 246    -13.0599118 -0.454229E-01  0.329E+00    1.31       1.0  T
 247    -13.0490170  0.108948E-01  0.271E+00    0.05       1.0  T
 248    -13.0586407 -0.962367E-02  0.333E+00    1.33       1.0  T
 249    -12.1710137  0.887627E+00  0.916E+00    0.00       1.0  T
 250    -13.0177940 -0.846780E+00  0.539E+00    1.51       1.0  T
     SCC iter.                  ...        0 min,  0.112 sec
     gradient                   ...        0 min,  0.001 sec
 * total energy  :   -12.8605105 Eh     change        0.2258637E+00 Eh
   gradient norm :     1.9510572 Eh/α   predicted    -0.1304679E-01 (-105.78%)
   displ. norm   :     0.4857534 α      lambda       -0.2876808E+00
   maximum displ.:     0.4843712 α      in ANC's #2, #1, #12, ...

........................................................................
.............................. CYCLE   10 ..............................
........................................................................
   1    -13.0858203 -0.130858E+02  0.315E+00    1.48       0.0  T
[...]
........................................................................
   1    -13.1480269 -0.131480E+02  0.191E-01    0.10       0.0  T
   2    -13.0891111  0.589158E-01  0.241E+00    0.32       1.0  T
   3    -13.1480275 -0.589164E-01  0.168E-01    0.10       1.0  T
   4    -13.1454455  0.258201E-02  0.507E-01    0.12       1.0  T
   5    -13.1471783 -0.173281E-02  0.320E-01    0.10       1.0  T
   6    -13.1480007 -0.822409E-03  0.169E-01    0.11       1.0  T
   7    -13.1481797 -0.179004E-03  0.111E-01    0.10       1.0  T
   8    -13.1483056 -0.125855E-03  0.317E-02    0.11       1.3  T
   9    -13.1483142 -0.857255E-05  0.153E-02    0.10       2.7  T
  10    -13.1483158 -0.163054E-05  0.909E-03    0.10       4.5  T
  11    -13.1483163 -0.487548E-06  0.639E-03    0.10       6.4  T
  12    -13.1483167 -0.440290E-06  0.488E-04    0.10      83.6  T
  13    -13.1483167  0.157470E-07  0.128E-03    0.10      31.9  T
     SCC iter.                  ...        0 min,  0.001 sec
     gradient                   ...        0 min,  0.001 sec
 * total energy  :   -13.0884389 Eh     change        0.2497279E-03 Eh
   gradient norm :     0.1531729 Eh/α   predicted    -0.5926077E-04 (-123.73%)
   displ. norm   :     0.0776394 α      lambda       -0.5670046E-03
   maximum displ.:     0.0699736 α      in ANC's #5, #1, #4, ...

........................................................................
.............................. CYCLE   24 ..............................
........................................................................
   1    -13.1484269 -0.131484E+02  0.125E-01    0.10       0.0  T
   2    -13.1463990  0.202794E-02  0.433E-01    0.12       1.0  T
   3    -13.1300889  0.163101E-01  0.130E+00    0.08       1.0  T
   4    -13.1484191 -0.183301E-01  0.716E-02    0.11       1.0  T
   5    -13.1484017  0.173609E-04  0.621E-02    0.10       1.0  T
   6    -13.1484213 -0.195617E-04  0.440E-02    0.10       1.0  T
   7    -13.1484406 -0.193598E-04  0.113E-02    0.10       3.6  T
   8    -13.1484411 -0.471139E-06  0.888E-03    0.10       4.6  T
   9    -13.1484418 -0.759533E-06  0.279E-03    0.10      14.6  T
  10    -13.1484419 -0.809366E-07  0.438E-04    0.10      93.2  T
     SCC iter.                  ...        0 min,  0.001 sec
     gradient                   ...        0 min,  0.001 sec
 * total energy  :   -13.0887050 Eh     change       -0.2661175E-03 Eh
   gradient norm :     0.0176124 Eh/α   predicted    -0.2852126E-03 (   7.18%)
   displ. norm   :     0.0154346 α      lambda       -0.5293834E-04
   maximum displ.:     0.0119798 α      in ANC's #1, #5, #4, ...

........................................................................
.............................. CYCLE   25 ..............................
........................................................................
   1    -13.1482721 -0.131483E+02  0.125E-01    0.11       0.0  T
   2    -12.2773747  0.870897E+00  0.865E+00    0.00       1.0  T
   3    -13.1480903 -0.870716E+00  0.177E-01    0.11       1.0  T
   4    -13.1484029 -0.312614E-03  0.547E-02    0.11       1.0  T
   5    -13.1484024  0.453902E-06  0.539E-02    0.11       1.0  T
   6    -13.1484321 -0.297268E-04  0.144E-02    0.10       2.8  T
   7    -13.1484340 -0.189401E-05  0.587E-03    0.10       7.0  T
   8    -13.1484344 -0.370171E-06  0.825E-04    0.10      49.5  T
   9    -13.1484344 -0.713658E-08  0.153E-04    0.10     266.0  T
     SCC iter.                  ...        0 min,  0.001 sec
     gradient                   ...        0 min,  0.001 sec
 * total energy  :   -13.0886619 Eh     change        0.4307713E-04 Eh
   gradient norm :     0.0439639 Eh/α   predicted    -0.2647747E-04 (-161.47%)
   displ. norm   :     0.0175420 α      lambda       -0.1023062E-03
   maximum displ.:     0.0143936 α      in ANC's #5, #1, #4, ...

........................................................................
.............................. CYCLE   26 ..............................
........................................................................
   1    -13.1483954 -0.131484E+02  0.665E-02    0.10       0.0  T
   2    -13.1156736  0.327217E-01  0.176E+00    0.18       1.0  T
   3    -13.1481100 -0.324363E-01  0.172E-01    0.10       1.0  T
   4    -13.1482273 -0.117354E-03  0.135E-01    0.11       1.0  T
   5    -13.1484280 -0.200718E-03  0.197E-02    0.10       2.1  T
   6    -13.1484313 -0.324380E-05  0.704E-03    0.10       5.8  T
   7    -13.1484317 -0.442721E-06  0.325E-03    0.10      12.6  T
   8    -13.1484315  0.238005E-06  0.567E-03    0.10       7.2  T
     SCC iter.                  ...        0 min,  0.001 sec
     gradient                   ...        0 min,  0.001 sec
 * total energy  :   -13.0887126 Eh     change       -0.5064082E-04 Eh
   gradient norm :     0.0017346 Eh/α   predicted    -0.5117000E-04 (   1.04%)
   displ. norm   :     0.0051346 α      lambda       -0.3324508E-06
   maximum displ.:     0.0041085 α      in ANC's #5, #1, #4, ...

........................................................................
.............................. CYCLE   27 ..............................
........................................................................
   1    -13.1484237 -0.131484E+02  0.124E-02    0.10       0.0  T
   2    -13.1459059  0.251783E-02  0.482E-01    0.12       1.0  T
   3    -13.1483333 -0.242735E-02  0.918E-02    0.11       1.0  T
   4    -13.1484211 -0.878064E-04  0.205E-02    0.11       2.0  T
   5    -13.1484221 -0.106532E-05  0.164E-02    0.11       2.5  T
   6    -13.1484249 -0.280991E-05  0.107E-03    0.10      38.2  T
   7    -13.1484249 -0.114302E-07  0.111E-04    0.10     367.9  T
   8    -13.1484249  0.175015E-08  0.424E-04    0.10      96.2  T
     SCC iter.                  ...        0 min,  0.001 sec
     gradient                   ...        0 min,  0.001 sec
 * total energy  :   -13.0887132 Eh     change       -0.6407536E-06 Eh
   gradient norm :     0.0018731 Eh/α   predicted    -0.1669668E-06 ( -73.94%)
   displ. norm   :     0.0021517 α      lambda       -0.1426655E-06
   maximum displ.:     0.0020336 α      in ANC's #5, #4, #1, ...

........................................................................
.............................. CYCLE   28 ..............................
........................................................................
   1    -13.1484231 -0.131484E+02  0.949E-03    0.10       0.0  T
   2    -13.1455374  0.288568E-02  0.513E-01    0.09       1.0  T
   3    -13.1484174 -0.287996E-02  0.246E-02    0.10       1.7  T
   4    -13.1484239 -0.648545E-05  0.416E-03    0.10       9.8  T
   5    -13.1484238  0.120823E-06  0.520E-03    0.10       7.9  T
   6    -13.1484240 -0.273251E-06  0.111E-03    0.10      36.9  T
   7    -13.1484241 -0.125949E-07  0.138E-04    0.10     295.6  T
   8    -13.1484241  0.113136E-08  0.356E-04    0.10     114.8  T
     SCC iter.                  ...        0 min,  0.001 sec
     gradient                   ...        0 min,  0.001 sec
 * total energy  :   -13.0887133 Eh     change       -0.8458620E-07 Eh
   gradient norm :     0.0000316 Eh/α   predicted    -0.7124857E-07 ( -15.77%)
   displ. norm   :     0.0012973 α      lambda       -0.9323482E-08
   maximum displ.:     0.0009249 α      in ANC's #4, #1, #2, ...

   *** GEOMETRY OPTIMIZATION CONVERGED AFTER 28 ITERATIONS ***

------------------------------------------------------------------------
 total energy gain   :        -7.0383619 Eh    -4416.6388 kcal/mol
 total RMSD          :         0.2810774 a0        0.1487 Å
 total power (kW/mol):      -659.9720200 (step)********** (real)
------------------------------------------------------------------------

 ANCopt (total)                0 d,  0 h,  0 min,  0.746 sec
 optimizer setup                ...        0 min,  0.000 sec (  0.011%)
 model hessian                  ...        0 min,  0.000 sec (  0.028%)
 ANC generation                 ...        0 min,  0.000 sec (  0.021%)
 coordinate transformation      ...        0 min,  0.000 sec (  0.018%)
 single point calculation       ...        0 min,  0.743 sec ( 99.607%)
 optimization log               ...        0 min,  0.001 sec (  0.090%)
 hessian update                 ...        0 min,  0.000 sec (  0.014%)
 rational function              ...        0 min,  0.001 sec (  0.104%)

================
 final structure:
================
6
 xtb: 6.2.3 (830e466)
F        -4.42492805640564   -0.26165132068639    0.08778197253799
Cl        2.22989520383868    0.12604202671891   -0.03072133780838
C        -0.43289714204955   -0.02309734956544    0.00471340320048
H        -0.48389664003286   -0.60799647611878   -0.88750190177920
H        -0.46617995399275   -0.50866794663736    0.95542322832693
H        -0.56493341135787    1.03531106628905   -0.05099536447786
 
 Bond Distances (Angstroems)
 ---------------------------
C3-H4=1.0681         C3-H5=1.0681         C3-H6=1.0681         H4-C3=1.0681         H5-C3=1.0681         H6-C3=1.0681         
 C  H  Rav=1.0681 sigma=0.0000  Rmin=1.0681  Rmax=1.0681     3
 
 selected bond angles (degree)
 --------------------
H5-C3-H4=119.55                H6-C3-H4=119.55                H6-C3-H5=119.54                
 
 selected dihedral angles (degree)
 ---------------------------------

 
 CMA Distance (Angstroems)
 ---------------------------
R(CMA):  5.8686
           -------------------------------------------------
          |                Final Singlepoint                |
           -------------------------------------------------

          ...................................................
          :                      SETUP                      :
          :.................................................:
          :  # basis functions                  21          :
          :  # atomic orbitals                  20          :
          :  # shells                           10          :
          :  # electrons                        22          :
          :  max. iterations                   250          :
          :  Hamiltonian                  GFN2-xTB          :
          :  restarted?                      false          :
          :  GBSA solvation                  false          :
          :  PC potential                    false          :
          :  electronic temp.          300.0000000     K    :
          :  accuracy                    1.0000000          :
          :  -> integral cutoff          0.2500000E+02      :
          :  -> integral neglect         0.1000000E-07      :
          :  -> SCF convergence          0.1000000E-05 Eh   :
          :  -> wf. convergence          0.1000000E-03 e    :
          :  Broyden damping             0.4000000          :
          ...................................................

 iter      E             dE          RMSdq      gap      omega  full diag
   1    -13.1484241 -0.131484E+02  0.152E-04    0.10       0.0  T
   2    -13.1484241  0.528628E-08  0.733E-04    0.10      55.7  T
   3    -13.1484240  0.672390E-07  0.261E-03    0.10      15.6  T
   4    -13.1484241 -0.664334E-07  0.772E-04    0.10      52.9  T

   *** convergence criteria satisfied after 4 iterations ***

         #    Occupation            Energy/Eh            Energy/eV
      -------------------------------------------------------------
         1        2.0000           -0.8770831             -23.8666
       ...           ...                  ...                  ...
         5        2.0000           -0.3663716              -9.9695
         6        2.0000           -0.2732644              -7.4359
         7        2.0000           -0.2546886              -6.9304
         8        2.0000           -0.2546881              -6.9304
         9        1.8721           -0.2070032              -5.6328
        10        1.8672           -0.2069650              -5.6318
        11        1.8671           -0.2069647              -5.6318 (HOMO)
        12        0.3936           -0.2031179              -5.5271 (LUMO)
        13                          0.2232272               6.0743
        14                          0.2232273               6.0743
        15                          0.2243403               6.1046
        16                          0.2244988               6.1089
       ...                                ...                  ...
        20                          0.4047817              11.0147
      -------------------------------------------------------------
                  HL-Gap            0.0038467 Eh            0.1047 eV
             Fermi-level           -0.2044540 Eh           -5.5635 eV

 SCC (total)                   0 d,  0 h,  0 min,  0.002 sec
 SCC setup                      ...        0 min,  0.000 sec (  2.940%)
 Dispersion                     ...        0 min,  0.000 sec (  0.495%)
 integral evaluation            ...        0 min,  0.001 sec ( 40.291%)
 zeroth order Hamiltonian       ...        0 min,  0.000 sec (  0.742%)
 iterations                     ...        0 min,  0.000 sec ( 17.467%)
 molecular gradient             ...        0 min,  0.001 sec ( 34.250%)
 printout                       ...        0 min,  0.000 sec (  2.751%)

         :::::::::::::::::::::::::::::::::::::::::::::::::::::
         ::                     SUMMARY                     ::
         :::::::::::::::::::::::::::::::::::::::::::::::::::::
         :: total energy             -13.088713322386 Eh    ::
         :: gradient norm              0.000034198417 Eh/a0 ::
         :: HOMO-LUMO gap              0.104675312311 eV    ::
         ::.................................................::
         :: SCC energy               -13.148424055992 Eh    ::
         :: -> isotropic ES            0.165550803092 Eh    ::
         :: -> anisotropic ES          0.000616161853 Eh    ::
         :: -> anisotropic XC          0.005595734818 Eh    ::
         :: -> dispersion             -0.001607177438 Eh    ::
         :: repulsion energy           0.059692404381 Eh    ::
         :: add. restraining           0.000022804811 Eh    ::
         :::::::::::::::::::::::::::::::::::::::::::::::::::::

           -------------------------------------------------
          |                Property Printout                |
           -------------------------------------------------

    * Orbital Energies and Occupations

         #    Occupation            Energy/Eh            Energy/eV
      -------------------------------------------------------------
         1        2.0000           -0.8770831             -23.8666
         2        2.0000           -0.4913359             -13.3699
         3        2.0000           -0.4634925             -12.6123
         4        2.0000           -0.3664297              -9.9711
         5        2.0000           -0.3663716              -9.9695
         6        2.0000           -0.2732644              -7.4359
         7        2.0000           -0.2546886              -6.9304
         8        2.0000           -0.2546881              -6.9304
         9        1.8721           -0.2070032              -5.6328
        10        1.8672           -0.2069650              -5.6318
        11        1.8671           -0.2069647              -5.6318 (HOMO)
        12        0.3936           -0.2031179              -5.5271 (LUMO)
        13                          0.2232272               6.0743
        14                          0.2232273               6.0743
        15                          0.2243403               6.1046
        16                          0.2244988               6.1089
        17                          0.2244988               6.1089
        18                          0.2421987               6.5906
        19                          0.4047451              11.0137
        20                          0.4047817              11.0147
      -------------------------------------------------------------
                  HL-Gap            0.0038467 Eh            0.1047 eV
             Fermi-level           -0.2044540 Eh           -5.5635 eV

     #   Z        covCN         q      C6AA      α(0)
     1   9 F      0.000    -0.602    16.857     4.782
     2  17 Cl     0.050    -0.566   110.522    16.000
     3   6 C      2.830    -0.069    29.706     8.931
     4   1 H      0.927     0.079     1.990     2.206
     5   1 H      0.927     0.079     1.987     2.204
     6   1 H      0.927     0.079     1.990     2.206

 Mol. C6AA /au·bohr⁶  :        583.621275
 Mol. C8AA /au·bohr⁸  :      16463.237952
 Mol. α(0) /au        :         36.329740


Wiberg/Mayer (AO) data.
largest (>0.10) Wiberg bond orders for each atom
          total WBO             WBO to atom ...
     1  F   0.004
     2  Cl  0.508        C    3 0.508
     3  C   3.489        H    6 0.992    H    4 0.992    H    5 0.992    Cl   2 0.508
     4  H   0.994        C    3 0.992
     5  H   0.994        C    3 0.992
     6  H   0.994        C    3 0.992

molecular dipole:
                 x           y           z       tot (Debye)
 q only:        2.482       0.154      -0.065
   full:        2.532       0.156      -0.065       6.449
molecular quadrupole (traceless):
                xx          xy          yy          xz          yz          zz
 q only:      -52.367      -4.613      26.062       1.466       0.086      26.305
  q+dip:      -52.496      -4.624      26.126       1.470       0.086      26.370
   full:      -51.665      -4.555      25.712       1.454       0.085      25.953

           -------------------------------------------------
          |                Geometry Summary                 |
           -------------------------------------------------

      molecular mass/u    :       69.4858989
   center of mass at/Å    :       -0.1689074      -0.0124027       0.0093865
  moments of inertia/u·Å² :        0.3435734E+01   0.5530662E+03   0.5530681E+03
rotational constants/cm⁻¹ :        0.4906559E+01   0.3048032E-01   0.3048021E-01

 * 3 selected distances

     #   Z        #   Z                                     value/Å
     3   6 C      4   1 H                                 1.0680618
     3   6 C      5   1 H                                 1.0680523 (min)
     3   6 C      6   1 H                                 1.0680662 (max)

 * 1 distinct bonds (by element types)

   Z      Z             #   av. dist./Å        max./Å        min./Å
   1 H    6 C           3     1.0680601     1.0680662     1.0680523


optimized geometry written to: xtbopt.xyz


           -------------------------------------------------
          | TOTAL ENERGY              -13.088713322386 Eh   |
          | GRADIENT NORM               0.000034198417 Eh/α |
          | HOMO-LUMO GAP               0.104675312311 eV   |
           -------------------------------------------------
########################################################################
[WARNING] Runtime exception occurred
-6- scf: Self consistent charge iterator did not converge
-5- scf: Self consistent charge iterator did not converge
-4- scf: Self consistent charge iterator did not converge
-3- scf: Self consistent charge iterator did not converge
-2- scf: Self consistent charge iterator did not converge
-1- scf: Self consistent charge iterator did not converge
########################################################################

------------------------------------------------------------------------
 * finished run on 2020/04/08 at 23:03:32.029     
------------------------------------------------------------------------
 total:
 * wall-time:     0 d,  0 h,  0 min,  0.762 sec
 *  cpu-time:     0 d,  0 h,  0 min,  0.758 sec
 * ratio c/w:     0.994 speedup
 SCF:
 * wall-time:     0 d,  0 h,  0 min,  0.005 sec
 *  cpu-time:     0 d,  0 h,  0 min,  0.005 sec
 * ratio c/w:     1.000 speedup
 ANC optimizer:
 * wall-time:     0 d,  0 h,  0 min,  0.748 sec
 *  cpu-time:     0 d,  0 h,  0 min,  0.744 sec
 * ratio c/w:     0.994 speedup

