      -----------------------------------------------------------      
     |                   =====================                   |     
     |                           x T B                           |     
     |                   =====================                   |     
     |                         S. Grimme                         |     
     |          Mulliken Center for Theoretical Chemistry        |     
     |                    University of Bonn                     |     
      -----------------------------------------------------------      

   * xtb version 6.2.3 (830e466) compiled by 'ehlert@majestix' on 2020-03-16

   xtb is free software: you can redistribute it and/or modify it under
   the terms of the GNU Lesser General Public License as published by
   the Free Software Foundation, either version 3 of the License, or
   (at your option) any later version.
   
   xtb is distributed in the hope that it will be useful,
   but WITHOUT ANY WARRANTY; without even the implied warranty of
   MERCHANTABILITY or FITNESS FOR A PARTICULAR PURPOSE.  See the
   GNU Lesser General Public License for more details.
   
   Cite this work as:
   * S. Grimme, C. Bannwarth, P. Shushkov, J. Chem. Theory Comput., 2017,
     13, 1989-2009. DOI: 10.1021/acs.jctc.7b00118
   * C. Bannwarth, S. Ehlert and S. Grimme., J. Chem. Theory Comput., 2019,
     15, 1652-1671. DOI: 10.1021/acs.jctc.8b01176
   * P. Pracht, E. Caldeweyher, S. Ehlert, S. Grimme, ChemRxiv, 2019, preprint.
     DOI: 10.26434/chemrxiv.8326202.v1
   
   for DFT-D4:
   * E. Caldeweyher, C. Bannwarth and S. Grimme, J. Chem. Phys., 2017,
     147, 034112. DOI: 10.1063/1.4993215
   * E. Caldeweyher, S. Ehlert, A. Hansen, H. Neugebauer, S. Spicher,
     C. Bannwarth and S. Grimme, J. Chem. Phys., 2019, 150, 154122.
     DOI: 10.1063/1.5090222
   
   for sTDA-xTB:
   * S. Grimme and C. Bannwarth, J. Chem. Phys., 2016, 145, 054103.
     DOI: 10.1063/1.4959605
   
   in the mass-spec context:
   * V. Asgeirsson, C. Bauer and S. Grimme, Chem. Sci., 2017, 8, 4879.
     DOI: 10.1039/c7sc00601b
   
   for metadynamics refer to:
   * S. Grimme, J. Chem. Theory Comput., 2019, 155, 2847-2862
     DOI: 10.1021/acs.jctc.9b00143
   
   with help from (in alphabetical order)
   C. Bannwarth, F. Bohle, G. Brandenburg, E. Caldeweyher, M. Checinski,
   S. Dohm, S. Ehlert, S. Ehrlich, F. März, H. Neugebauer, J. Pisarek,
   P. Pracht, P. Shushkov, and S. Spicher.
   
 * started run on 2020/04/08 at 23:04:00.658     

           -------------------------------------------------
          |                Calculation Setup                |
           -------------------------------------------------

          program call               : /home/tom/.local/bin/xtb SN2_PES_scan_1-3_xtb.xyz --chrg -1 --opt --input xcontrol_SN2_PES_scan_1-3
          coordinate file            : SN2_PES_scan_1-3_xtb.xyz
          omp threads                :                     1
          number of atoms            :                     6
          number of electrons        :                    22
          charge                     :                    -1
          spin                       :                   0.0
          first test random number   :      0.93192594182384

constraining bond 1 3 to    3.5000000 Å, actual value:    4.0000138 Å
constraining bond 2 3 to    3.1120000 Å, actual value:    2.6672086 Å

molecular fragmentation (1/2 indicates fragments):
122222
# atoms in fragment 1/2:     1     5
 fragment masses (1/2) :       19.00       50.49
CMA distance (Bohr)    :  11.090
constraining FC (au)   : 10.0000
########################################################################
[WARNING] Please study the warnings concerning your input carefully
-2- prog_main: XTBPATH is not set, using XTBHOME instead
-1- prog_main: XTBHOME is not set, using HOME instead
########################################################################
           ------------------------------------------------- 
          |                 G F N 2 - x T B                 |
          | Geometry, Frequencies, Noncovalent interactions |
          |            JCTC 2019 parametrisation            |
           ------------------------------------------------- 
             k(s)              :                1.8500
             k(p)              :                2.2300
             k(d)              :                2.2300
             k(f)              :                2.0000
             kEN (H0ij)        :               -2.0000
             D4 a1             :                0.5200
             D4 a2             :                5.0000
             D4 s6             :                1.0000
             D4 s8             :                2.7000
             D4 s9             :                5.0000
             alphaj            :                2.0000

  Z AO/shell   Hii/eV     exponent
  1     Wed Apr 25 08:07:45 CEST 2018   EN: 2.200 GM2: 0.406  GM3: 0.0800  RAES: 1.40
     1s    -10.707211    1.230000
  6     Wed Apr 25 08:07:45 CEST 2018   EN: 2.550 GM2: 0.538  GM3: 0.1500  RAES: 3.00
     2s    -13.970922    2.096432
     2p    -10.063292    1.800000
  9     Mon Apr 23 13:58:50 CEST 2018   EN: 3.980 GM2: 0.532  GM3: 0.1426  RAES: 2.40
     2s    -23.458179    2.416361
     2p    -15.746583    2.308399
 17     Mon Apr 23 14:09:22 CEST 2018   EN: 3.160 GM2: 0.249  GM3: 0.1495  RAES: 2.50
     3s    -29.278781    2.485265
     3p    -12.673758    2.199650
     3d     -0.240338    2.476089

           ------------------------------------------------- 
          |        Self-Consistent Charge Iterations        |
           ------------------------------------------------- 

          ...................................................
          :                      SETUP                      :
          :.................................................:
          :  # basis functions                  21          :
          :  # atomic orbitals                  20          :
          :  # shells                           10          :
          :  # electrons                        22          :
          :  max. iterations                   250          :
          :  Hamiltonian                  GFN2-xTB          :
          :  restarted?                      false          :
          :  GBSA solvation                  false          :
          :  PC potential                    false          :
          :  electronic temp.          300.0000000     K    :
          :  accuracy                    1.0000000          :
          :  -> integral cutoff          0.2500000E+02      :
          :  -> integral neglect         0.1000000E-07      :
          :  -> SCF convergence          0.1000000E-05 Eh   :
          :  -> wf. convergence          0.1000000E-03 e    :
          :  Broyden damping             0.4000000          :
          ...................................................

 iter      E             dE          RMSdq      gap      omega  full diag
   1    -12.8947745 -0.128948E+02  0.930E+00    1.45       0.0  T
   2    -12.0659108  0.828864E+00  0.101E+01    0.00       1.0  T
   3    -13.0777613 -0.101185E+01  0.431E+00    1.43       1.0  T
   4    -13.0864534 -0.869206E-02  0.349E+00    1.39       1.0  T
   5    -12.1508365  0.935617E+00  0.969E+00    0.00       1.0  T
   6    -12.3085064 -0.157670E+00  0.846E+00    0.00       1.0  T
   7    -12.1639785  0.144528E+00  0.923E+00    0.00       1.0  T
   8    -12.1656227 -0.164411E-02  0.917E+00    0.00       1.0  T
   9    -12.3897622 -0.224140E+00  0.804E+00    0.00       1.0  T
  10    -13.0939289 -0.704167E+00  0.231E+00    0.30       1.0  T
  11    -13.1078774 -0.139485E-01  0.196E+00    0.21       1.0  T
  12    -12.1608240  0.947053E+00  0.933E+00    0.00       1.0  T
  13    -13.0895060 -0.928682E+00  0.248E+00    0.65       1.0  T
  14    -12.2014324  0.888074E+00  0.901E+00    0.00       1.0  T
  15    -13.0901268 -0.888694E+00  0.245E+00    0.61       1.0  T
  16    -12.1604540  0.929673E+00  0.932E+00    0.00       1.0  T
  17    -13.0913953 -0.930941E+00  0.240E+00    0.49       1.0  T
  18    -12.1580316  0.933364E+00  0.945E+00    0.00       1.0  T
  19    -13.1017468 -0.943715E+00  0.214E+00    0.23       1.0  T
  20    -12.1548876  0.946859E+00  0.961E+00    0.00       1.0  T
  21    -12.1797412 -0.248536E-01  0.913E+00    0.00       1.0  T
  22    -13.1464857 -0.966744E+00  0.613E-01    0.11       1.0  T
  23    -12.1560894  0.990396E+00  0.953E+00    0.00       1.0  T
  24    -12.1685234 -0.124339E-01  0.919E+00    0.00       1.0  T
  25    -12.2717302 -0.103207E+00  0.869E+00    0.00       1.0  T
  26    -12.2558302  0.159001E-01  0.876E+00    0.00       1.0  T
  27    -12.1596285  0.962017E-01  0.930E+00    0.00       1.0  T
  28    -12.1591606  0.467900E-03  0.932E+00    0.00       1.0  T
  29    -12.1587442  0.416334E-03  0.933E+00    0.00       1.0  T
  30    -12.1587033  0.409724E-04  0.934E+00    0.00       1.0  T
  31    -12.1603917 -0.168844E-02  0.927E+00    0.00       1.0  T
  32    -12.1776531 -0.172614E-01  0.914E+00    0.00       1.0  T
  33    -12.1599352  0.177179E-01  0.929E+00    0.00       1.0  T
  34    -12.1608595 -0.924233E-03  0.926E+00    0.00       1.0  T
  35    -13.0803125 -0.919453E+00  0.326E+00    1.28       1.0  T
  36    -12.0337492  0.104656E+01  0.135E+01    0.00       1.0  T
  37    -12.0817653 -0.480161E-01  0.120E+01    0.00       1.0  T
  38    -12.0483740  0.333914E-01  0.132E+01    0.00       1.0  T
  39    -12.1106264 -0.622524E-01  0.111E+01    0.00       1.0  T
  40    -12.1584833 -0.478569E-01  0.929E+00    0.00       1.0  T
  41    -13.0146579 -0.856175E+00  0.570E+00    2.01       1.0  T
  42    -13.0928524 -0.781945E-01  0.424E+00    1.05       1.0  T
  43    -12.1401326  0.952720E+00  0.107E+01    0.00       1.0  T
  44    -12.9763984 -0.836266E+00  0.645E+00    2.25       1.0  T
  45    -13.0786335 -0.102235E+00  0.320E+00    1.52       1.0  T
  46    -13.0981831 -0.195496E-01  0.286E+00    1.15       1.0  T
  47    -12.1607576  0.937425E+00  0.932E+00    0.00       1.0  T
  48    -13.0066251 -0.845868E+00  0.578E+00    1.99       1.0  T
  49    -13.0895183 -0.828932E-01  0.268E+00    1.40       1.0  T
  50    -13.0954730 -0.595476E-02  0.236E+00    0.60       1.0  T
  51    -13.0952862  0.186864E-03  0.233E+00    0.52       1.0  T
  52    -13.0948369  0.449291E-03  0.232E+00    0.55       1.0  T
  53    -13.0930518  0.178504E-02  0.238E+00    0.65       1.0  T
  54    -13.0940022 -0.950318E-03  0.231E+00    0.48       1.0  T
  55    -13.1433344 -0.493323E-01  0.762E-01    0.12       1.0  T
  56    -13.0884946  0.548398E-01  0.260E+00    1.13       1.0  T
  57    -12.1602093  0.928285E+00  0.927E+00    0.00       1.0  T
  58    -13.0080636 -0.847854E+00  0.571E+00    1.98       1.0  T
  59    -13.0982117 -0.901481E-01  0.222E+00    0.34       1.0  T
  60    -12.1757258  0.922486E+00  0.918E+00    0.00       1.0  T
  61    -13.0198536 -0.844128E+00  0.544E+00    1.88       1.0  T
  62    -13.0964305 -0.765769E-01  0.231E+00    0.57       1.0  T
  63    -13.1465759 -0.501454E-01  0.726E-01    0.11       1.0  T
  64    -13.0896330  0.569429E-01  0.262E+00    1.30       1.0  T
  65    -13.0965098 -0.687674E-02  0.225E+00    0.06       1.0  T
  66    -13.0762717  0.202381E-01  0.329E+00    1.53       1.0  T
  67    -12.8986514  0.177620E+00  0.475E+00    0.02       1.0  T
  68    -13.0614710 -0.162820E+00  0.394E+00    1.63       1.0  T
  69    -13.1235161 -0.620451E-01  0.155E+00    0.17       1.0  T
  70    -13.1395446 -0.160286E-01  0.930E-01    0.13       1.0  T
  71    -13.0929436  0.466010E-01  0.234E+00    0.52       1.0  T
  72    -12.1598898  0.933054E+00  0.928E+00    0.00       1.0  T
  73    -13.0369253 -0.877036E+00  0.481E+00    1.80       1.0  T
  74    -13.0961401 -0.592148E-01  0.228E+00    0.48       1.0  T
  75    -12.7218875  0.374253E+00  0.614E+00    0.00       1.0  T
  76    -13.0593085 -0.337421E+00  0.404E+00    1.65       1.0  T
  77    -13.0954013 -0.360928E-01  0.228E+00    0.47       1.0  T
  78    -13.0418780  0.535233E-01  0.314E+00    0.05       1.0  T
  79    -13.0765967 -0.347187E-01  0.328E+00    1.52       1.0  T
  80    -13.1093732 -0.327765E-01  0.190E+00    0.21       1.0  T
  81    -13.0565474  0.528258E-01  0.292E+00    0.05       1.0  T
  82    -13.0777187 -0.211713E-01  0.319E+00    1.52       1.0  T
  83    -13.1379371 -0.602184E-01  0.108E+00    0.08       1.0  T
  84    -13.0866241  0.513131E-01  0.271E+00    1.34       1.0  T
  85    -12.2816263  0.804998E+00  0.865E+00    0.00       1.0  T
  86    -13.0509820 -0.769356E+00  0.432E+00    1.71       1.0  T
  87    -13.0952929 -0.443108E-01  0.229E+00    0.50       1.0  T
  88    -13.1401897 -0.448969E-01  0.968E-01    0.08       1.0  T
  89    -13.0875035  0.526862E-01  0.269E+00    1.34       1.0  T
  90    -13.1474402 -0.599367E-01  0.451E-01    0.10       1.0  T
  91    -13.0893132  0.581270E-01  0.254E+00    0.95       1.0  T
  92    -12.2872566  0.802057E+00  0.862E+00    0.00       1.0  T
  93    -13.0549696 -0.767713E+00  0.415E+00    1.69       1.0  T
  94    -13.0949759 -0.400063E-01  0.229E+00    0.49       1.0  T
  95    -13.1474148 -0.524389E-01  0.448E-01    0.10       1.0  T
  96    -13.0894906  0.579242E-01  0.255E+00    1.00       1.0  T
  97    -13.0625582  0.269323E-01  0.281E+00    0.05       1.0  T
  98    -13.0814759 -0.189177E-01  0.298E+00    1.49       1.0  T
  99    -13.1474170 -0.659411E-01  0.397E-01    0.11       1.0  T
 100    -13.0912235  0.561935E-01  0.240E+00    0.59       1.0  T
 101    -12.1716378  0.919586E+00  0.917E+00    0.00       1.0  T
 102    -13.0580868 -0.886449E+00  0.401E+00    1.67       1.0  T
 103    -13.0949375 -0.368507E-01  0.229E+00    0.47       1.0  T
 104    -13.1480258 -0.530883E-01  0.330E-01    0.10       1.0  T
 105    -13.0901288  0.578970E-01  0.249E+00    0.85       1.0  T
 106    -13.0004689  0.896599E-01  0.365E+00    0.04       1.0  T
 107    -13.0800483 -0.795793E-01  0.304E+00    1.50       1.0  T
 108    -13.1239226 -0.438743E-01  0.149E+00    0.17       1.0  T
 109    -13.1475976 -0.236750E-01  0.320E-01    0.11       1.0  T
 110    -13.0911467  0.564509E-01  0.238E+00    0.51       1.0  T
 111    -12.1656549  0.925492E+00  0.921E+00    0.00       1.0  T
 112    -13.0626365 -0.896982E+00  0.380E+00    1.65       1.0  T
 113    -13.0950786 -0.324421E-01  0.226E+00    0.42       1.0  T
 114    -13.1275006 -0.324220E-01  0.141E+00    0.07       1.0  T
 115    -13.0873934  0.401072E-01  0.264E+00    1.13       1.0  T
 116    -13.1478726 -0.604792E-01  0.331E-01    0.10       1.0  T
 117    -13.0904507  0.574220E-01  0.243E+00    0.64       1.0  T
 118    -12.2444696  0.845981E+00  0.882E+00    0.00       1.0  T
 119    -13.0660359 -0.821566E+00  0.367E+00    1.62       1.0  T
 120    -13.0944641 -0.284282E-01  0.228E+00    0.44       1.0  T
 121    -13.1483203 -0.538563E-01  0.224E-01    0.10       1.0  T
 122    -13.0908083  0.575120E-01  0.243E+00    0.66       1.0  T
 123    -12.8830925  0.207716E+00  0.485E+00    0.02       1.0  T
 124    -13.0790992 -0.196007E+00  0.307E+00    1.52       1.0  T
 125    -13.1044398 -0.253406E-01  0.201E+00    0.23       1.0  T
 126    -12.6966756  0.407764E+00  0.629E+00    0.00       1.0  T
 127    -13.0750965 -0.378421E+00  0.326E+00    1.55       1.0  T
 128    -13.0955584 -0.204619E-01  0.223E+00    0.33       1.0  T
 129    -12.9906165  0.104942E+00  0.377E+00    0.04       1.0  T
 130    -13.0825108 -0.918943E-01  0.290E+00    1.48       1.0  T
 131    -13.1062915 -0.237807E-01  0.197E+00    0.22       1.0  T
 132    -12.9721839  0.134108E+00  0.398E+00    0.03       1.0  T
 133    -13.0820175 -0.109834E+00  0.291E+00    1.49       1.0  T
 134    -13.1163667 -0.343492E-01  0.171E+00    0.19       1.0  T
 135    -13.1233082 -0.694157E-02  0.154E+00    0.07       1.0  T
 136    -13.0877495  0.355588E-01  0.258E+00    0.91       1.0  T
 137    -12.8981679  0.189582E+00  0.471E+00    0.02       1.0  T
 138    -13.0813820 -0.183214E+00  0.294E+00    1.50       1.0  T
 139    -13.1201635 -0.387815E-01  0.160E+00    0.18       1.0  T
 140    -13.1406121 -0.204486E-01  0.879E-01    0.09       1.0  T
 141    -13.0893351  0.512770E-01  0.248E+00    0.69       1.0  T
 142    -12.4996801  0.589655E+00  0.750E+00    0.00       1.0  T
 143    -13.0756007 -0.575921E+00  0.322E+00    1.55       1.0  T
 144    -13.0956240 -0.200233E-01  0.223E+00    0.32       1.0  T
 145    -13.0916695  0.395451E-02  0.228E+00    0.06       1.0  T
 146    -13.0869060  0.476351E-02  0.264E+00    1.06       1.0  T
 147    -13.1412189 -0.543129E-01  0.809E-01    0.13       1.0  T
 148    -13.0985641  0.426549E-01  0.215E+00    0.26       1.0  T
 149    -12.2942099  0.804354E+00  0.857E+00    0.00       1.0  T
 150    -13.0736928 -0.779483E+00  0.330E+00    1.57       1.0  T
 151    -13.0944446 -0.207518E-01  0.226E+00    0.37       1.0  T
 152    -13.1480586 -0.536140E-01  0.221E-01    0.11       1.0  T
 153    -13.0913805  0.566781E-01  0.237E+00    0.48       1.0  T
 154    -12.8681871  0.223193E+00  0.498E+00    0.02       1.0  T
 155    -13.0822004 -0.214013E+00  0.288E+00    1.49       1.0  T
 156    -13.1108884 -0.286881E-01  0.185E+00    0.20       1.0  T
 157    -13.0541232  0.567653E-01  0.292E+00    0.05       1.0  T
 158    -13.0859496 -0.318265E-01  0.268E+00    1.07       1.0  T
 159    -13.1482829 -0.623332E-01  0.193E-01    0.11       1.0  T
 160    -13.0922895  0.559934E-01  0.232E+00    0.37       1.0  T
 161    -12.3105864  0.781703E+00  0.849E+00    0.00       1.0  T
 162    -13.0760338 -0.765447E+00  0.318E+00    1.55       1.0  T
 163    -13.0947046 -0.186708E-01  0.225E+00    0.35       1.0  T
 164    -13.1483698 -0.536652E-01  0.154E-01    0.11       1.0  T
 165    -13.0912798  0.570899E-01  0.237E+00    0.47       1.0  T
 166    -12.9391555  0.152124E+00  0.431E+00    0.03       1.0  T
 167    -13.0844019 -0.145246E+00  0.276E+00    1.22       1.0  T
 168    -13.1253105 -0.409085E-01  0.145E+00    0.16       1.0  T
 169    -13.1482353 -0.229249E-01  0.170E-01    0.11       1.0  T
 170    -13.0922069  0.560284E-01  0.232E+00    0.36       1.0  T
 171    -12.2716403  0.820567E+00  0.868E+00    0.00       1.0  T
 172    -13.0769948 -0.805354E+00  0.312E+00    1.54       1.0  T
 173    -13.0951832 -0.181884E-01  0.224E+00    0.33       1.0  T
 174    -13.1479077 -0.527245E-01  0.265E-01    0.10       1.0  T
 175    -13.0909942  0.569135E-01  0.238E+00    0.48       1.0  T
 176    -12.9759484  0.115046E+00  0.392E+00    0.03       1.0  T
 177    -13.0856811 -0.109733E+00  0.268E+00    1.06       1.0  T
 178    -13.1378746 -0.521935E-01  0.975E-01    0.14       1.0  T
 179    -13.1196193  0.182553E-01  0.162E+00    0.18       1.0  T
 180    -13.0435235  0.760958E-01  0.307E+00    0.05       1.0  T
 181    -13.0868475 -0.433241E-01  0.260E+00    0.86       1.0  T
 182    -13.0871502 -0.302699E-03  0.236E+00    0.06       1.0  T
 183    -13.0884804 -0.133016E-02  0.251E+00    0.71       1.0  T
 184    -13.0237970  0.646834E-01  0.334E+00    0.04       1.0  T
 185    -13.0871483 -0.633513E-01  0.259E+00    0.87       1.0  T
 186    -13.1466696 -0.595213E-01  0.438E-01    0.09       1.0  T
 187    -13.0918991  0.547705E-01  0.233E+00    0.38       1.0  T
 188    -12.4954010  0.596498E+00  0.752E+00    0.00       1.0  T
 189    -13.0810513 -0.585650E+00  0.292E+00    1.47       1.0  T
 190    -13.0967878 -0.157365E-01  0.219E+00    0.29       1.0  T
 191    -13.1174601 -0.206723E-01  0.169E+00    0.07       1.0  T
 192    -13.0892074  0.282527E-01  0.248E+00    0.66       1.0  T
 193    -13.1456200 -0.564126E-01  0.533E-01    0.09       1.0  T
 194    -13.0915920  0.540280E-01  0.235E+00    0.39       1.0  T
 195    -12.6291012  0.462491E+00  0.672E+00    0.00       1.0  T
 196    -13.0825318 -0.453431E+00  0.284E+00    1.32       1.0  T
 197    -13.1012598 -0.187280E-01  0.209E+00    0.25       1.0  T
 198    -13.0812826  0.199772E-01  0.247E+00    0.06       1.0  T
 199    -13.0882271 -0.694449E-02  0.253E+00    0.75       1.0  T
 200    -13.1473211 -0.590940E-01  0.324E-01    0.11       1.0  T
 201    -13.0990043  0.483168E-01  0.215E+00    0.25       1.0  T
 202    -12.5591103  0.539894E+00  0.715E+00    0.00       1.0  T
 203    -13.0821769 -0.523067E+00  0.285E+00    1.33       1.0  T
 204    -13.0995722 -0.173953E-01  0.213E+00    0.26       1.0  T
 205    -13.1058048 -0.623264E-02  0.197E+00    0.06       1.0  T
 206    -13.0889999  0.168049E-01  0.248E+00    0.65       1.0  T
 207    -13.1471567 -0.581567E-01  0.371E-01    0.10       1.0  T
 208    -13.0927186  0.544380E-01  0.231E+00    0.34       1.0  T
 209    -12.6235164  0.469202E+00  0.676E+00    0.00       1.0  T
 210    -13.0832322 -0.459716E+00  0.280E+00    1.22       1.0  T
 211    -13.1028161 -0.195839E-01  0.205E+00    0.24       1.0  T
 212    -13.1040915 -0.127539E-02  0.201E+00    0.06       1.0  T
 213    -13.0890534  0.150381E-01  0.248E+00    0.63       1.0  T
 214    -13.1454180 -0.563646E-01  0.547E-01    0.09       1.0  T
 215    -13.0922578  0.531603E-01  0.232E+00    0.35       1.0  T
 216    -12.6883590  0.403899E+00  0.634E+00    0.00       1.0  T
 217    -13.0841609 -0.395802E+00  0.275E+00    1.13       1.0  T
 218    -13.1072069 -0.230460E-01  0.195E+00    0.21       1.0  T
 219    -13.1056616  0.154527E-02  0.198E+00    0.06       1.0  T
 220    -13.0891938  0.164678E-01  0.247E+00    0.60       1.0  T
 221    -13.1384469 -0.492530E-01  0.968E-01    0.08       1.0  T
 222    -13.0912516  0.471953E-01  0.236E+00    0.40       1.0  T
 223    -12.8066059  0.284646E+00  0.548E+00    0.01       1.0  T
 224    -13.0855621 -0.278956E+00  0.267E+00    0.98       1.0  T
 225    -13.1192787 -0.337166E-01  0.163E+00    0.18       1.0  T
 226    -13.1358811 -0.166024E-01  0.108E+00    0.08       1.0  T
 227    -13.0904408  0.454403E-01  0.239E+00    0.45       1.0  T
 228    -12.9454336  0.145007E+00  0.424E+00    0.03       1.0  T
 229    -13.0872731 -0.141840E+00  0.257E+00    0.79       1.0  T
 230    -13.1431654 -0.558923E-01  0.687E-01    0.13       1.0  T
 231    -13.1192476  0.239178E-01  0.164E+00    0.18       1.0  T
 232    -13.0663618  0.528858E-01  0.272E+00    0.05       1.0  T
 233    -13.0887216 -0.223598E-01  0.248E+00    0.59       1.0  T
 234    -13.0700712  0.186504E-01  0.266E+00    0.05       1.0  T
 235    -13.0892093 -0.191381E-01  0.246E+00    0.56       1.0  T
 236    -13.0900275 -0.818205E-03  0.230E+00    0.06       1.0  T
 237    -13.0896126  0.414917E-03  0.243E+00    0.52       1.0  T
 238    -13.0727848  0.168278E-01  0.261E+00    0.05       1.0  T
 239    -13.0893204 -0.165356E-01  0.245E+00    0.55       1.0  T
 240    -13.1123355 -0.230151E-01  0.181E+00    0.07       1.0  T
 241    -13.0902986  0.220369E-01  0.240E+00    0.45       1.0  T
 242    -13.0084517  0.818469E-01  0.353E+00    0.04       1.0  T
 243    -13.0884215 -0.799698E-01  0.250E+00    0.65       1.0  T
 244    -13.1482521 -0.598306E-01  0.168E-01    0.10       1.0  T
 245    -13.0995390  0.487132E-01  0.214E+00    0.25       1.0  T
 246    -12.7409100  0.358629E+00  0.597E+00    0.01       1.0  T
 247    -13.0858356 -0.344926E+00  0.264E+00    0.90       1.0  T
 248    -13.1136517 -0.278161E-01  0.178E+00    0.19       1.0  T
 249    -13.0967966  0.168552E-01  0.216E+00    0.06       1.0  T
 250    -13.0894748  0.732178E-02  0.244E+00    0.53       1.0  T

   *** convergence criteria cannot be satisfied within 250 iterations ***

         #    Occupation            Energy/Eh            Energy/eV
      -------------------------------------------------------------
         1        2.0000           -0.8732623             -23.7627
       ...           ...                  ...                  ...
         5        2.0000           -0.3625900              -9.8666
         6        2.0000           -0.2692134              -7.3257
         7        2.0000           -0.2511044              -6.8329
         8        2.0000           -0.2511039              -6.8329
         9        2.0000           -0.2181659              -5.9366
        10        2.0000           -0.2181649              -5.9366
        11        2.0000           -0.2181376              -5.9358 (HOMO)
        12        0.0001           -0.1987269              -5.4076 (LUMO)
        13                          0.2278026               6.1988
        14                          0.2278027               6.1988
        15                          0.2289380               6.2297
        16                          0.2289991               6.2314
       ...                                ...                  ...
        20                          0.4082944              11.1103
      -------------------------------------------------------------
                  HL-Gap            0.0194107 Eh            0.5282 eV
             Fermi-level           -0.2079196 Eh           -5.6578 eV

 SCC (total)                   0 d,  0 h,  0 min,  0.116 sec
 SCC setup                      ...        0 min,  0.000 sec (  0.058%)
 Dispersion                     ...        0 min,  0.000 sec (  0.011%)
 integral evaluation            ...        0 min,  0.001 sec (  0.572%)
 zeroth order Hamiltonian       ...        0 min,  0.000 sec (  0.012%)
 iterations                     ...        0 min,  0.114 sec ( 98.789%)
 molecular gradient             ...        0 min,  0.001 sec (  0.486%)
 printout                       ...        0 min,  0.000 sec (  0.051%)

         :::::::::::::::::::::::::::::::::::::::::::::::::::::
         ::                     SUMMARY                     ::
         :::::::::::::::::::::::::::::::::::::::::::::::::::::
         :: total energy               2.963266789941 Eh    ::
         :: gradient norm             43.705002122434 Eh/a0 ::
         :: HOMO-LUMO gap              0.528191657220 eV    ::
         ::.................................................::
         :: SCC energy               -13.089474781623 Eh    ::
         :: -> isotropic ES            0.310221153326 Eh    ::
         :: -> anisotropic ES         -0.003584932001 Eh    ::
         :: -> anisotropic XC          0.006544289477 Eh    ::
         :: -> dispersion             -0.001605139651 Eh    ::
         :: repulsion energy           0.059692900710 Eh    ::
         :: add. restraining          15.993123199499 Eh    ::
         :::::::::::::::::::::::::::::::::::::::::::::::::::::

      ----------------------------------------------------------- 
     |                   =====================                   |
     |                        A N C O P T                        |
     |                   =====================                   |
     |               Approximate Normal Coordinate               |
     |                Rational Function Optimizer                |
      ----------------------------------------------------------- 

          ...................................................
          :                      SETUP                      :
          :.................................................:
          :   optimization level            normal          :
          :   max. optcycles                   200          :
          :   ANC micro-cycles                  20          :
          :   degrees of freedom                12          :
          :.................................................:
          :   RF solver                   davidson          :
          :   write xtbopt.log                true          :
          :   linear?                        false          :
          :   energy convergence         0.5000000E-05 Eh   :
          :   grad. convergence          0.1000000E-02 Eh/α :
          :   maximium RF displ.         1.0000000          :
          :   Hlow (freq-cutoff)         0.1000000E-01      :
          :   Hmax (freq-cutoff)         5.0000000          :
          :   S6 in model hess.         20.0000000          :
          ...................................................

generating ANC from model Hessian ...
Using Lindh-Hessian (1995)
 Shifting diagonal of input Hessian by    2.75715555694338     
 Lowest  eigenvalues of input Hessian
    0.010000    0.010131   -0.000000   -0.000000    0.000000    0.000000
    0.000000    0.000000    2.763982    2.894504    2.894508    3.101430
    3.101446    3.197232    4.125288    4.125384   22.762847   62.779451
 Highest eigenvalues
    3.101446    3.197232    4.125288    4.125384   22.762847   62.779451
 

........................................................................
.............................. CYCLE    1 ..............................
........................................................................
   1    -13.1352545 -0.131353E+02  0.111E+00    0.08       0.0  T
   2    -13.0537647  0.814898E-01  0.365E+00    1.60       1.0  T
   3    -13.0923441 -0.385794E-01  0.237E+00    0.61       1.0  T
   4    -13.0944225 -0.207840E-02  0.226E+00    0.30       1.0  T
   5    -12.8892560  0.205166E+00  0.477E+00    0.02       1.0  T
   6    -13.1144693 -0.225213E+00  0.178E+00    0.19       1.0  T
   7    -13.1447722 -0.303028E-01  0.578E-01    0.12       1.0  T
   8    -13.1464987 -0.172656E-02  0.418E-01    0.09       1.0  T
   9    -13.1484134 -0.191463E-02  0.326E-02    0.11       1.3  T
  10    -13.1480475  0.365912E-03  0.185E-01    0.10       1.0  T
  11    -13.1484206 -0.373124E-03  0.180E-02    0.11       2.3  T
  12    -13.1484217 -0.115858E-05  0.147E-02    0.10       2.8  T
  13    -13.1484210  0.736173E-06  0.169E-02    0.10       2.4  T
  14    -13.1484240 -0.297087E-05  0.371E-03    0.10      11.0  T
  15    -13.1484239  0.548228E-07  0.432E-03    0.10       9.4  T
  16    -13.1484241 -0.204062E-06  0.114E-05    0.10    3568.6  T
  17    -13.1484241  0.984883E-10  0.952E-05    0.10     429.0  T
     SCC iter.                  ...        0 min,  0.001 sec
     gradient                   ...        0 min,  0.001 sec
 * total energy  :     2.9043875 Eh     change       -0.5887926E-01 Eh
   gradient norm :    43.7214576 Eh/α   predicted     0.0000000E+00 (-100.00%)
   displ. norm   :     0.9444533 α      lambda       -0.4129288E+02
   maximum displ.:     0.9438931 α      in ANC's #11, #12, #8, ...

........................................................................
.............................. CYCLE    2 ..............................
........................................................................
   1    -12.2511181 -0.122511E+02  0.949E+00    0.00       0.0  T
   2    -12.6420356 -0.390918E+00  0.972E+00    3.65       1.0  T
   3    -12.9798300 -0.337794E+00  0.524E+00    0.43       1.0  T
   4    -13.0236118 -0.437818E-01  0.383E+00    0.28       1.0  T
   5    -12.9438082  0.798036E-01  0.521E+00    0.59       1.0  T
   6    -12.2305058  0.713302E+00  0.103E+01    0.00       1.0  T
   7    -13.0146792 -0.784173E+00  0.324E+00    0.26       1.0  T
   8    -13.0292959 -0.146167E-01  0.272E+00    0.30       1.0  T
   9    -12.2641998  0.765096E+00  0.919E+00    0.01       1.0  T
  10    -13.0148975 -0.750698E+00  0.318E+00    0.34       1.0  T
  11    -13.0210656 -0.616810E-02  0.291E+00    0.35       1.0  T
  12    -13.0633125 -0.422469E-01  0.191E+00    0.09       1.0  T
  13    -12.7428800  0.320432E+00  0.607E+00    0.04       1.0  T
  14    -13.0921981 -0.349318E+00  0.680E-01    0.13       1.0  T
  15    -12.6808380  0.411360E+00  0.656E+00    0.04       1.0  T
  16    -12.9910947 -0.310257E+00  0.337E+00    0.07       1.0  T
  17    -12.3668869  0.624208E+00  0.860E+00    0.02       1.0  T
  18    -13.0646703 -0.697783E+00  0.183E+00    0.18       1.0  T
  19    -13.0921861 -0.275158E-01  0.573E-01    0.13       1.0  T
  20    -13.0804804  0.117057E-01  0.132E+00    0.10       1.0  T
  21    -13.0505899  0.298905E-01  0.223E+00    0.08       1.0  T
  22    -13.0611892 -0.105993E-01  0.196E+00    0.09       1.0  T
  23    -13.0875919 -0.264027E-01  0.972E-01    0.10       1.0  T
  24    -13.0933317 -0.573982E-02  0.522E-01    0.11       1.0  T
  25    -13.0816662  0.116655E-01  0.126E+00    0.10       1.0  T
  26    -13.0274878  0.541784E-01  0.273E+00    0.08       1.0  T
  27    -13.0244488  0.303899E-02  0.279E+00    0.08       1.0  T
  28    -13.0702313 -0.457825E-01  0.169E+00    0.09       1.0  T
  29    -13.0910661 -0.208348E-01  0.730E-01    0.11       1.0  T
  30    -13.0923559 -0.128982E-02  0.556E-01    0.13       1.0  T
  31    -13.0841671  0.818882E-02  0.107E+00    0.15       1.0  T
  32    -13.0845784 -0.411278E-03  0.104E+00    0.15       1.0  T
  33    -12.2619330  0.822645E+00  0.920E+00    0.02       1.0  T
  34    -12.2736146 -0.116816E-01  0.914E+00    0.02       1.0  T
  35    -12.2635335  0.100810E-01  0.921E+00    0.02       1.0  T
  36    -13.0813909 -0.817857E+00  0.149E+00    0.16       1.0  T
  37    -12.5056641  0.575727E+00  0.776E+00    0.03       1.0  T
  38    -13.0334473 -0.527783E+00  0.262E+00    0.29       1.0  T
  39    -13.0290301  0.441721E-02  0.271E+00    0.30       1.0  T
  40    -13.0176790  0.113512E-01  0.304E+00    0.33       1.0  T
  41    -13.0303599 -0.126809E-01  0.270E+00    0.29       1.0  T
  42    -13.0546017 -0.242419E-01  0.212E+00    0.20       1.0  T
  43    -13.0679449 -0.133432E-01  0.172E+00    0.18       1.0  T
  44    -13.0768165 -0.887155E-02  0.139E+00    0.17       1.0  T
  45    -13.0911017 -0.142853E-01  0.590E-01    0.14       1.0  T
  46    -13.0901450  0.956697E-03  0.663E-01    0.14       1.0  T
  47    -13.0940017 -0.385670E-02  0.194E-01    0.13       1.0  T
  48    -13.0923379  0.166386E-02  0.452E-01    0.14       1.0  T
  49    -13.0937069 -0.136903E-02  0.253E-01    0.13       1.0  T
  50    -13.0925644  0.114250E-02  0.425E-01    0.13       1.0  T
  51    -13.0934667 -0.902324E-03  0.295E-01    0.13       1.0  T
  52    -13.0929310  0.535790E-03  0.377E-01    0.13       1.0  T
  53    -13.0935703 -0.639323E-03  0.276E-01    0.13       1.0  T
  54    -13.0933898  0.180509E-03  0.307E-01    0.13       1.0  T
  55    -13.0939678 -0.578066E-03  0.187E-01    0.13       1.0  T
  56    -13.0939500  0.178776E-04  0.189E-01    0.13       1.0  T
  57    -13.0942591 -0.309115E-03  0.710E-02    0.12       1.0  T
  58    -13.0942586  0.490468E-06  0.591E-02    0.12       1.0  T
  59    -13.0942309  0.276334E-04  0.777E-02    0.12       1.0  T
  60    -13.0942786 -0.476276E-04  0.238E-02    0.12       1.7  T
  61    -13.0942817 -0.309119E-05  0.171E-02    0.12       2.4  T
  62    -13.0942774  0.429130E-05  0.276E-02    0.12       1.5  T
  63    -13.0942820 -0.462541E-05  0.141E-02    0.12       2.9  T
  64    -13.0942837 -0.170993E-05  0.972E-04    0.12      42.0  T
  65    -13.0942837  0.529580E-07  0.265E-03    0.12      15.4  T
     SCC iter.                  ...        0 min,  0.006 sec
     gradient                   ...        0 min,  0.000 sec
 * total energy  :   -11.6493113 Eh     change       -0.1455370E+02 Eh
   gradient norm :    12.9800815 Eh/α   predicted    -0.3906289E+02 ( 168.41%)
   displ. norm   :     0.2404665 α      lambda       -0.2787672E+01
   maximum displ.:     0.2073374 α      in ANC's #11, #12, #3, ...

........................................................................
.............................. CYCLE    3 ..............................
........................................................................
   1    -13.0493092 -0.130493E+02  0.269E+00    0.35       0.0  T
   2    -12.1802195  0.869090E+00  0.106E+01    0.00       1.0  T
   3    -12.2332612 -0.530416E-01  0.951E+00    0.01       1.0  T
   4    -13.0315513 -0.798290E+00  0.324E+00    0.59       1.0  T
   5    -13.0406631 -0.911178E-02  0.300E+00    0.54       1.0  T
   6    -13.0381487  0.251435E-02  0.312E+00    0.55       1.0  T
   7    -13.0453620 -0.721329E-02  0.290E+00    0.51       1.0  T
   8    -13.0477071 -0.234508E-02  0.277E+00    0.50       1.0  T
   9    -13.0496399 -0.193281E-02  0.270E+00    0.43       1.0  T
  10    -13.0206373  0.290026E-01  0.318E+00    0.06       1.0  T
  11    -13.0414413 -0.208039E-01  0.319E+00    0.52       1.0  T
  12    -13.0440015 -0.256028E-02  0.300E+00    0.51       1.0  T
  13    -13.0459050 -0.190350E-02  0.285E+00    0.51       1.0  T
  14    -13.1051244 -0.592194E-01  0.103E+00    0.10       1.0  T
  15    -13.0497942  0.553302E-01  0.270E+00    0.35       1.0  T
  16    -12.3354056  0.714389E+00  0.883E+00    0.02       1.0  T
  17    -13.0345154 -0.699110E+00  0.353E+00    0.55       1.0  T
  18    -13.0421223 -0.760690E-02  0.301E+00    0.53       1.0  T
  19    -13.0494616 -0.733937E-02  0.271E+00    0.36       1.0  T
  20    -12.2750693  0.774392E+00  0.916E+00    0.01       1.0  T
  21    -13.0241135 -0.749044E+00  0.408E+00    0.60       1.0  T
  22    -13.0416150 -0.175015E-01  0.308E+00    0.52       1.0  T
  23    -13.0466047 -0.498967E-02  0.280E+00    0.46       1.0  T
  24    -12.2514956  0.795109E+00  0.930E+00    0.01       1.0  T
  25    -13.0017912 -0.750296E+00  0.513E+00    0.67       1.0  T
  26    -13.0399516 -0.381604E-01  0.331E+00    0.53       1.0  T
  27    -13.0462705 -0.631889E-02  0.283E+00    0.51       1.0  T
  28    -12.3035685  0.742702E+00  0.901E+00    0.02       1.0  T
  29    -13.0115859 -0.708017E+00  0.479E+00    0.64       1.0  T
  30    -13.0422854 -0.306996E-01  0.310E+00    0.52       1.0  T
  31    -13.0636057 -0.213203E-01  0.235E+00    0.24       1.0  T
  32    -12.2285790  0.835027E+00  0.956E+00    0.01       1.0  T
  33    -12.9610909 -0.732512E+00  0.663E+00    0.81       1.0  T
  34    -13.0339115 -0.728206E-01  0.383E+00    0.55       1.0  T
  35    -13.0446739 -0.107624E-01  0.302E+00    0.50       1.0  T
  36    -13.1097129 -0.650390E-01  0.737E-01    0.10       1.0  T
  37    -12.2244601  0.885253E+00  0.973E+00    0.01       1.0  T
  38    -12.9642876 -0.739828E+00  0.653E+00    0.79       1.0  T
  39    -13.0355263 -0.712387E-01  0.378E+00    0.54       1.0  T
  40    -13.0445695 -0.904317E-02  0.300E+00    0.51       1.0  T
  41    -13.0861906 -0.416210E-01  0.175E+00    0.08       1.0  T
  42    -12.2261731  0.860017E+00  0.965E+00    0.01       1.0  T
  43    -12.9785115 -0.752338E+00  0.611E+00    0.75       1.0  T
  44    -13.0380166 -0.595050E-01  0.356E+00    0.53       1.0  T
  45    -13.0451820 -0.716545E-02  0.290E+00    0.51       1.0  T
  46    -12.3684468  0.676735E+00  0.864E+00    0.02       1.0  T
  47    -13.0240883 -0.655642E+00  0.427E+00    0.59       1.0  T
  48    -13.0449187 -0.208304E-01  0.288E+00    0.52       1.0  T
  49    -12.3346554  0.710263E+00  0.883E+00    0.02       1.0  T
  50    -13.0207428 -0.686087E+00  0.443E+00    0.60       1.0  T
  51    -13.0435637 -0.228209E-01  0.295E+00    0.52       1.0  T
  52    -13.1112177 -0.676540E-01  0.605E-01    0.10       1.0  T
  53    -12.2247553  0.886462E+00  0.972E+00    0.01       1.0  T
  54    -12.9744138 -0.749658E+00  0.624E+00    0.76       1.0  T
  55    -13.0360440 -0.616303E-01  0.368E+00    0.54       1.0  T
  56    -13.0442296 -0.818559E-02  0.295E+00    0.51       1.0  T
  57    -13.1098484 -0.656188E-01  0.675E-01    0.13       1.0  T
  58    -12.2235871  0.886261E+00  0.978E+00    0.01       1.0  T
  59    -12.9760525 -0.752465E+00  0.621E+00    0.75       1.0  T
  60    -13.0377108 -0.616583E-01  0.356E+00    0.53       1.0  T
  61    -13.0465401 -0.882929E-02  0.282E+00    0.51       1.0  T
  62    -12.2422225  0.804318E+00  0.936E+00    0.01       1.0  T
  63    -13.0001410 -0.757919E+00  0.539E+00    0.67       1.0  T
  64    -13.0430685 -0.429275E-01  0.302E+00    0.52       1.0  T
  65    -13.0073550  0.357135E-01  0.336E+00    0.06       1.0  T
  66    -12.5019898  0.505365E+00  0.786E+00    0.02       1.0  T
  67    -13.0325785 -0.530589E+00  0.378E+00    0.56       1.0  T
  68    -13.0438350 -0.112565E-01  0.293E+00    0.52       1.0  T
  69    -13.0640312 -0.201961E-01  0.234E+00    0.24       1.0  T
  70    -12.2267953  0.837236E+00  0.963E+00    0.01       1.0  T
  71    -12.9775899 -0.750795E+00  0.618E+00    0.75       1.0  T
  72    -13.0376702 -0.600803E-01  0.352E+00    0.54       1.0  T
  73    -13.0501700 -0.124998E-01  0.269E+00    0.35       1.0  T
  74    -12.2306004  0.819570E+00  0.950E+00    0.01       1.0  T
  75    -12.9854152 -0.754815E+00  0.594E+00    0.72       1.0  T
  76    -13.0402499 -0.548348E-01  0.329E+00    0.53       1.0  T
  77    -13.1113044 -0.710544E-01  0.552E-01    0.13       1.0  T
  78    -12.2235563  0.887748E+00  0.978E+00    0.01       1.0  T
  79    -12.9755001 -0.751944E+00  0.626E+00    0.75       1.0  T
  80    -13.0374518 -0.619517E-01  0.358E+00    0.53       1.0  T
  81    -13.0491816 -0.117298E-01  0.272E+00    0.39       1.0  T
  82    -12.2310124  0.818169E+00  0.949E+00    0.01       1.0  T
  83    -12.9901556 -0.759143E+00  0.579E+00    0.70       1.0  T
  84    -13.0417356 -0.515801E-01  0.316E+00    0.52       1.0  T
  85    -12.9871660  0.545696E-01  0.366E+00    0.06       1.0  T
  86    -13.0602493 -0.730834E-01  0.244E+00    0.25       1.0  T
  87    -12.2276238  0.832626E+00  0.959E+00    0.01       1.0  T
  88    -12.9856113 -0.757988E+00  0.594E+00    0.72       1.0  T
  89    -13.0397504 -0.541391E-01  0.335E+00    0.53       1.0  T
  90    -13.0500147 -0.102642E-01  0.269E+00    0.36       1.0  T
  91    -12.2296533  0.820361E+00  0.952E+00    0.01       1.0  T
  92    -12.9874952 -0.757842E+00  0.589E+00    0.71       1.0  T
  93    -13.0408759 -0.533807E-01  0.324E+00    0.52       1.0  T
  94    -13.1131998 -0.723239E-01  0.338E-01    0.12       1.0  T
  95    -12.2234180  0.889782E+00  0.979E+00    0.00       1.0  T
  96    -12.9795346 -0.756117E+00  0.614E+00    0.74       1.0  T
  97    -13.0381754 -0.586408E-01  0.352E+00    0.53       1.0  T
  98    -13.0492907 -0.111152E-01  0.272E+00    0.38       1.0  T
  99    -12.2301273  0.819163E+00  0.951E+00    0.01       1.0  T
 100    -12.9921058 -0.761978E+00  0.574E+00    0.70       1.0  T
 101    -13.0420466 -0.499408E-01  0.313E+00    0.52       1.0  T
 102    -13.0657160 -0.236694E-01  0.229E+00    0.08       1.0  T
 103    -12.2321217  0.833594E+00  0.947E+00    0.01       1.0  T
 104    -12.9965414 -0.764420E+00  0.557E+00    0.68       1.0  T
 105    -13.0412354 -0.446940E-01  0.320E+00    0.52       1.0  T
 106    -13.0477916 -0.655622E-02  0.275E+00    0.41       1.0  T
 107    -12.2303646  0.817427E+00  0.951E+00    0.01       1.0  T
 108    -12.9892622 -0.758898E+00  0.584E+00    0.71       1.0  T
 109    -13.0405128 -0.512506E-01  0.326E+00    0.52       1.0  T
 110    -13.1086282 -0.681154E-01  0.763E-01    0.14       1.0  T
 111    -12.2226417  0.885987E+00  0.983E+00    0.00       1.0  T
 112    -12.9788104 -0.756169E+00  0.617E+00    0.74       1.0  T
 113    -13.0368209 -0.580105E-01  0.363E+00    0.54       1.0  T
 114    -13.0487990 -0.119781E-01  0.273E+00    0.40       1.0  T
 115    -12.2300549  0.818744E+00  0.951E+00    0.01       1.0  T
 116    -12.9926434 -0.762589E+00  0.573E+00    0.69       1.0  T
 117    -13.0415786 -0.489352E-01  0.317E+00    0.52       1.0  T
 118    -13.1121976 -0.706190E-01  0.519E-01    0.10       1.0  T
 119    -12.2244389  0.887759E+00  0.974E+00    0.00       1.0  T
 120    -12.9857524 -0.761313E+00  0.595E+00    0.72       1.0  T
 121    -13.0386842 -0.529318E-01  0.346E+00    0.53       1.0  T
 122    -13.0481660 -0.948179E-02  0.275E+00    0.41       1.0  T
 123    -12.2297719  0.818394E+00  0.952E+00    0.01       1.0  T
 124    -12.9938852 -0.764113E+00  0.568E+00    0.69       1.0  T
 125    -13.0416219 -0.477367E-01  0.316E+00    0.52       1.0  T
 126    -13.1142792 -0.726573E-01  0.144E-01    0.11       1.0  T
 127    -12.2236885  0.890591E+00  0.978E+00    0.00       1.0  T
 128    -12.9868254 -0.763137E+00  0.592E+00    0.71       1.0  T
 129    -13.0386544 -0.518290E-01  0.346E+00    0.53       1.0  T
 130    -13.0483651 -0.971070E-02  0.274E+00    0.40       1.0  T
 131    -12.2290227  0.819342E+00  0.954E+00    0.01       1.0  T
 132    -12.9947991 -0.765776E+00  0.565E+00    0.69       1.0  T
 133    -13.0416538 -0.468547E-01  0.315E+00    0.52       1.0  T
 134    -13.1125280 -0.708742E-01  0.428E-01    0.13       1.0  T
 135    -12.2231145  0.889414E+00  0.981E+00    0.00       1.0  T
 136    -12.9881699 -0.765055E+00  0.587E+00    0.71       1.0  T
 137    -13.0387937 -0.506238E-01  0.345E+00    0.53       1.0  T
 138    -13.0489801 -0.101864E-01  0.272E+00    0.38       1.0  T
 139    -12.2279242  0.821056E+00  0.958E+00    0.00       1.0  T
 140    -12.9952121 -0.767288E+00  0.564E+00    0.69       1.0  T
 141    -13.0415802 -0.463681E-01  0.316E+00    0.52       1.0  T
 142    -13.1105129 -0.689327E-01  0.623E-01    0.13       1.0  T
 143    -12.2228867  0.887626E+00  0.982E+00    0.00       1.0  T
 144    -12.9896669 -0.766780E+00  0.582E+00    0.70       1.0  T
 145    -13.0390384 -0.493716E-01  0.342E+00    0.53       1.0  T
 146    -13.0499347 -0.108963E-01  0.269E+00    0.36       1.0  T
 147    -12.2267806  0.823154E+00  0.963E+00    0.00       1.0  T
 148    -12.9953781 -0.768597E+00  0.564E+00    0.68       1.0  T
 149    -13.0414244 -0.460463E-01  0.317E+00    0.52       1.0  T
 150    -13.1105536 -0.691292E-01  0.620E-01    0.13       1.0  T
 151    -12.2229264  0.887627E+00  0.982E+00    0.00       1.0  T
 152    -12.9911213 -0.768195E+00  0.578E+00    0.70       1.0  T
 153    -13.0392881 -0.481668E-01  0.340E+00    0.53       1.0  T
 154    -13.0511308 -0.118427E-01  0.266E+00    0.34       1.0  T
 155    -12.2257751  0.825356E+00  0.967E+00    0.00       1.0  T
 156    -12.9955122 -0.769737E+00  0.563E+00    0.68       1.0  T
 157    -13.0412371 -0.457249E-01  0.319E+00    0.52       1.0  T
 158    -13.1124921 -0.712550E-01  0.435E-01    0.13       1.0  T
 159    -12.2232960  0.889196E+00  0.980E+00    0.00       1.0  T
 160    -12.9926807 -0.769385E+00  0.573E+00    0.69       1.0  T
 161    -13.0395538 -0.468732E-01  0.337E+00    0.53       1.0  T
 162    -13.0522706 -0.127167E-01  0.263E+00    0.32       1.0  T
 163    -12.2250019  0.827269E+00  0.971E+00    0.00       1.0  T
 164    -12.9956766 -0.770675E+00  0.563E+00    0.68       1.0  T
 165    -13.0410292 -0.453527E-01  0.321E+00    0.52       1.0  T
 166    -13.1142398 -0.732105E-01  0.164E-01    0.12       1.0  T
 167    -12.2241358  0.890104E+00  0.975E+00    0.00       1.0  T
 168    -12.9945041 -0.770368E+00  0.567E+00    0.69       1.0  T
 169    -13.0398465 -0.453423E-01  0.333E+00    0.53       1.0  T
 170    -13.0529639 -0.131175E-01  0.261E+00    0.31       1.0  T
 171    -12.2244782  0.828486E+00  0.974E+00    0.00       1.0  T
 172    -12.9956787 -0.771201E+00  0.563E+00    0.68       1.0  T
 173    -13.0407345 -0.450558E-01  0.324E+00    0.52       1.0  T
 174    -13.1121948 -0.714603E-01  0.530E-01    0.10       1.0  T
 175    -12.2256467  0.886548E+00  0.968E+00    0.00       1.0  T
 176    -12.9966125 -0.770966E+00  0.560E+00    0.68       1.0  T
 177    -13.0401548 -0.435424E-01  0.329E+00    0.53       1.0  T
 178    -13.0535292 -0.133743E-01  0.259E+00    0.30       1.0  T
 179    -12.2240302  0.829499E+00  0.976E+00    0.00       1.0  T
 180    -12.9949611 -0.770931E+00  0.565E+00    0.69       1.0  T
 181    -13.0401844 -0.452233E-01  0.329E+00    0.53       1.0  T
 182    -13.1015281 -0.613437E-01  0.121E+00    0.09       1.0  T
 183    -12.2285455  0.872983E+00  0.956E+00    0.00       1.0  T
 184    -12.9991457 -0.770600E+00  0.551E+00    0.67       1.0  T
 185    -13.0405955 -0.414497E-01  0.323E+00    0.53       1.0  T
 186    -13.0576111 -0.170156E-01  0.249E+00    0.27       1.0  T
 187    -12.2231093  0.834502E+00  0.981E+00    0.00       1.0  T
 188    -12.9931434 -0.770034E+00  0.571E+00    0.69       1.0  T
 189    -13.0392353 -0.460919E-01  0.338E+00    0.53       1.0  T
 190    -13.0918013 -0.525660E-01  0.158E+00    0.08       1.0  T
 191    -12.2332256  0.858576E+00  0.945E+00    0.01       1.0  T
 192    -13.0010722 -0.767847E+00  0.544E+00    0.67       1.0  T
 193    -13.0411093 -0.400372E-01  0.318E+00    0.52       1.0  T
 194    -13.0833774 -0.422681E-01  0.181E+00    0.18       1.0  T
 195    -12.2223361  0.861041E+00  0.986E+00    0.00       1.0  T
 196    -12.9935572 -0.771221E+00  0.569E+00    0.69       1.0  T
 197    -13.0387936 -0.452364E-01  0.342E+00    0.53       1.0  T
 198    -13.0961614 -0.573677E-01  0.138E+00    0.16       1.0  T
 199    -12.2229377  0.873224E+00  0.982E+00    0.00       1.0  T
 200    -12.9954535 -0.772516E+00  0.563E+00    0.68       1.0  T
 201    -13.0395418 -0.440883E-01  0.337E+00    0.53       1.0  T
 202    -13.0833456 -0.438038E-01  0.182E+00    0.18       1.0  T
 203    -12.2226479  0.860698E+00  0.984E+00    0.00       1.0  T
 204    -12.9969965 -0.774349E+00  0.557E+00    0.68       1.0  T
 205    -13.0401288 -0.431323E-01  0.331E+00    0.53       1.0  T
 206    -13.1063823 -0.662535E-01  0.905E-01    0.14       1.0  T
 207    -12.2240172  0.882365E+00  0.976E+00    0.00       1.0  T
 208    -12.9989883 -0.774971E+00  0.551E+00    0.67       1.0  T
 209    -13.0404325 -0.414442E-01  0.327E+00    0.53       1.0  T
 210    -13.0735935 -0.331611E-01  0.209E+00    0.21       1.0  T
 211    -12.2227066  0.850887E+00  0.983E+00    0.00       1.0  T
 212    -13.0000219 -0.777315E+00  0.546E+00    0.67       1.0  T
 213    -13.0408365 -0.408146E-01  0.323E+00    0.52       1.0  T
 214    -13.1114719 -0.706354E-01  0.603E-01    0.10       1.0  T
 215    -12.2297948  0.881677E+00  0.952E+00    0.00       1.0  T
 216    -13.0030037 -0.773209E+00  0.537E+00    0.66       1.0  T
 217    -13.0408752 -0.378715E-01  0.319E+00    0.52       1.0  T
 218    -13.0529932 -0.121180E-01  0.260E+00    0.31       1.0  T
 219    -12.2236614  0.829332E+00  0.978E+00    0.00       1.0  T
 220    -13.0003571 -0.776696E+00  0.544E+00    0.67       1.0  T
 221    -13.0406037 -0.402466E-01  0.323E+00    0.53       1.0  T
 222    -12.7580714  0.282532E+00  0.605E+00    0.03       1.0  T
 223    -13.0329556 -0.274884E+00  0.380E+00    0.56       1.0  T
 224    -12.5113890  0.521567E+00  0.780E+00    0.02       1.0  T
 225    -13.0209138 -0.509525E+00  0.449E+00    0.60       1.0  T
 226    -13.0459112 -0.249974E-01  0.281E+00    0.46       1.0  T
 227    -12.2298214  0.816090E+00  0.953E+00    0.00       1.0  T
 228    -13.0021290 -0.772308E+00  0.537E+00    0.66       1.0  T
 229    -13.0397913 -0.376623E-01  0.324E+00    0.53       1.0  T
 230    -13.0694390 -0.296478E-01  0.220E+00    0.22       1.0  T
 231    -12.2226308  0.846808E+00  0.984E+00    0.00       1.0  T
 232    -12.9987753 -0.776144E+00  0.548E+00    0.67       1.0  T
 233    -13.0394453 -0.406701E-01  0.333E+00    0.53       1.0  T
 234    -13.1141609 -0.747156E-01  0.220E-01    0.11       1.0  T
 235    -12.2280706  0.886090E+00  0.958E+00    0.00       1.0  T
 236    -12.9994889 -0.771418E+00  0.549E+00    0.67       1.0  T
 237    -13.0394867 -0.399978E-01  0.332E+00    0.53       1.0  T
 238    -13.0558898 -0.164031E-01  0.253E+00    0.28       1.0  T
 239    -12.2235158  0.832374E+00  0.979E+00    0.00       1.0  T
 240    -12.9998422 -0.776326E+00  0.545E+00    0.67       1.0  T
 241    -13.0401151 -0.402729E-01  0.327E+00    0.53       1.0  T
 242    -12.9699287  0.701864E-01  0.390E+00    0.05       1.0  T
 243    -13.0398475 -0.699188E-01  0.325E+00    0.53       1.0  T
 244    -12.2423498  0.797498E+00  0.936E+00    0.01       1.0  T
 245    -13.0037530 -0.761403E+00  0.531E+00    0.66       1.0  T
 246    -13.0410832 -0.373303E-01  0.313E+00    0.53       1.0  T
 247    -12.6113849  0.429698E+00  0.715E+00    0.03       1.0  T
 248    -13.0257512 -0.414366E+00  0.423E+00    0.58       1.0  T
 249    -13.0672666 -0.415154E-01  0.226E+00    0.22       1.0  T
 250    -12.2243375  0.842929E+00  0.975E+00    0.00       1.0  T
     SCC iter.                  ...        0 min,  0.114 sec
     gradient                   ...        0 min,  0.001 sec
 * total energy  :   -12.1080607 Eh     change       -0.4587495E+00 Eh
   gradient norm :     1.6692404 Eh/α   predicted    -0.1474434E+01 ( 221.40%)
   displ. norm   :     0.2661107 α      lambda       -0.4416925E+00
   maximum displ.:     0.2623604 α      in ANC's #12, #11, #8, ...

........................................................................
.............................. CYCLE    4 ..............................
........................................................................
   1    -12.9704545 -0.129705E+02  0.847E+00    0.67       0.0  T
   2    -12.3760308  0.594424E+00  0.105E+01    0.00       1.0  T
   3    -12.9001207 -0.524090E+00  0.745E+00    0.62       1.0  T
   4    -12.2106145  0.689506E+00  0.112E+01    0.00       1.0  T
   5    -12.2553131 -0.446986E-01  0.887E+00    0.00       1.0  T
   6    -12.8921794 -0.636866E+00  0.681E+00    1.65       1.0  T
   7    -12.9604942 -0.683148E-01  0.495E+00    0.90       1.0  T
   8    -12.9852164 -0.247222E-01  0.433E+00    0.76       1.0  T
   9    -12.9947864 -0.957003E-02  0.438E+00    0.69       1.0  T
  10    -12.9967806 -0.199412E-02  0.433E+00    0.68       1.0  T
  11    -12.2257620  0.771019E+00  0.959E+00    0.00       1.0  T
  12    -13.0591104 -0.833348E+00  0.341E+00    0.26       1.0  T
  13    -12.2162154  0.842895E+00  0.102E+01    0.00       1.0  T
  14    -12.2238429 -0.762752E-02  0.971E+00    0.01       1.0  T
  15    -13.0492829 -0.825440E+00  0.287E+00    0.39       1.0  T
  16    -13.0300308  0.192521E-01  0.360E+00    0.49       1.0  T
  17    -13.0253193  0.471157E-02  0.384E+00    0.50       1.0  T
  18    -13.0215956  0.372365E-02  0.411E+00    0.51       1.0  T
  19    -13.0224273 -0.831730E-03  0.407E+00    0.51       1.0  T
  20    -13.0330410 -0.106136E-01  0.331E+00    0.48       1.0  T
  21    -12.2254829  0.807558E+00  0.960E+00    0.00       1.0  T
  22    -13.0153506 -0.789868E+00  0.543E+00    0.50       1.0  T
  23    -13.0337602 -0.184096E-01  0.352E+00    0.47       1.0  T
  24    -12.6612115  0.372549E+00  0.677E+00    0.02       1.0  T
  25    -13.0208354 -0.359624E+00  0.456E+00    0.50       1.0  T
  26    -13.0311005 -0.102651E-01  0.353E+00    0.48       1.0  T
  27    -12.8988022  0.132298E+00  0.470E+00    0.04       1.0  T
  28    -13.0271413 -0.128339E+00  0.410E+00    0.48       1.0  T
  29    -13.0361418 -0.900042E-02  0.318E+00    0.46       1.0  T
  30    -12.2273149  0.808827E+00  0.953E+00    0.00       1.0  T
  31    -13.0225855 -0.795271E+00  0.496E+00    0.48       1.0  T
  32    -13.0372388 -0.146533E-01  0.315E+00    0.46       1.0  T
  33    -12.2497007  0.787538E+00  0.931E+00    0.00       1.0  T
  34    -13.0165645 -0.766864E+00  0.493E+00    0.51       1.0  T
  35    -13.0326827 -0.161182E-01  0.345E+00    0.47       1.0  T
  36    -13.0401355 -0.745281E-02  0.294E+00    0.37       1.0  T
  37    -12.2305953  0.809540E+00  0.945E+00    0.00       1.0  T
  38    -13.0229018 -0.792307E+00  0.477E+00    0.48       1.0  T
  39    -13.0365930 -0.136912E-01  0.318E+00    0.46       1.0  T
  40    -12.9284853  0.108108E+00  0.438E+00    0.04       1.0  T
  41    -13.0253509 -0.968655E-01  0.408E+00    0.49       1.0  T
  42    -13.0362986 -0.109477E-01  0.322E+00    0.46       1.0  T
  43    -12.2348022  0.801496E+00  0.940E+00    0.00       1.0  T
  44    -13.0252773 -0.790475E+00  0.462E+00    0.48       1.0  T
  45    -13.0374303 -0.121529E-01  0.313E+00    0.46       1.0  T
  46    -13.0137311  0.236992E-01  0.325E+00    0.05       1.0  T
  47    -13.0278361 -0.141050E-01  0.385E+00    0.48       1.0  T
  48    -13.0385018 -0.106657E-01  0.308E+00    0.45       1.0  T
  49    -12.2293789  0.809123E+00  0.947E+00    0.00       1.0  T
  50    -13.0304183 -0.801039E+00  0.440E+00    0.46       1.0  T
  51    -13.0393851 -0.896681E-02  0.300E+00    0.45       1.0  T
  52    -12.5180013  0.521384E+00  0.775E+00    0.01       1.0  T
  53    -13.0197399 -0.501739E+00  0.449E+00    0.50       1.0  T
  54    -13.0358369 -0.160970E-01  0.330E+00    0.46       1.0  T
  55    -13.0833248 -0.474879E-01  0.188E+00    0.17       1.0  T
  56    -13.0572533  0.260715E-01  0.256E+00    0.22       1.0  T
  57    -12.2481510  0.809102E+00  0.931E+00    0.01       1.0  T
  58    -13.0249623 -0.776811E+00  0.442E+00    0.48       1.0  T
  59    -13.0388252 -0.138629E-01  0.312E+00    0.45       1.0  T
  60    -12.8826318  0.156193E+00  0.489E+00    0.03       1.0  T
  61    -13.0289161 -0.146284E+00  0.391E+00    0.48       1.0  T
  62    -13.0398690 -0.109529E-01  0.303E+00    0.45       1.0  T
  63    -12.2393641  0.800505E+00  0.937E+00    0.00       1.0  T
  64    -13.0285345 -0.789170E+00  0.431E+00    0.47       1.0  T
  65    -13.0391189 -0.105844E-01  0.306E+00    0.45       1.0  T
  66    -13.1005957 -0.614768E-01  0.126E+00    0.08       1.0  T
  67    -13.0342531  0.663426E-01  0.339E+00    0.46       1.0  T
  68    -13.0796852 -0.454321E-01  0.198E+00    0.17       1.0  T
  69    -12.4675132  0.612172E+00  0.806E+00    0.01       1.0  T
  70    -13.0250146 -0.557501E+00  0.421E+00    0.49       1.0  T
  71    -13.0398673 -0.148527E-01  0.308E+00    0.44       1.0  T
  72    -12.5040454  0.535822E+00  0.784E+00    0.01       1.0  T
  73    -13.0275038 -0.523458E+00  0.415E+00    0.48       1.0  T
  74    -13.0397445 -0.122407E-01  0.307E+00    0.45       1.0  T
  75    -13.0557060 -0.159615E-01  0.250E+00    0.06       1.0  T
  76    -13.0339390  0.217670E-01  0.349E+00    0.46       1.0  T
  77    -13.0524969 -0.185579E-01  0.265E+00    0.26       1.0  T
  78    -12.2336954  0.818802E+00  0.941E+00    0.00       1.0  T
  79    -13.0328360 -0.799141E+00  0.403E+00    0.46       1.0  T
  80    -13.0423373 -0.950125E-02  0.289E+00    0.42       1.0  T
  81    -12.3488510  0.693486E+00  0.876E+00    0.01       1.0  T
  82    -13.0282043 -0.679353E+00  0.412E+00    0.47       1.0  T
  83    -13.0394168 -0.112125E-01  0.306E+00    0.45       1.0  T
  84    -13.1152504 -0.758336E-01  0.235E-01    0.10       1.0  T
  85    -13.0370986  0.781518E-01  0.318E+00    0.45       1.0  T
  86    -12.7605113  0.276587E+00  0.601E+00    0.02       1.0  T
  87    -13.0321935 -0.271682E+00  0.377E+00    0.46       1.0  T
  88    -13.0418848 -0.969134E-02  0.292E+00    0.44       1.0  T
  89    -12.2571415  0.784743E+00  0.926E+00    0.01       1.0  T
  90    -13.0320559 -0.774914E+00  0.399E+00    0.46       1.0  T
  91    -13.0407963 -0.874044E-02  0.297E+00    0.44       1.0  T
  92    -13.0721598 -0.313635E-01  0.214E+00    0.07       1.0  T
  93    -13.0348744  0.372855E-01  0.340E+00    0.46       1.0  T
  94    -13.0557481 -0.208737E-01  0.257E+00    0.24       1.0  T
  95    -12.2711646  0.784584E+00  0.918E+00    0.01       1.0  T
  96    -13.0319088 -0.760744E+00  0.393E+00    0.46       1.0  T
  97    -13.0414677 -0.955890E-02  0.294E+00    0.44       1.0  T
  98    -12.7905174  0.250950E+00  0.576E+00    0.03       1.0  T
  99    -13.0320459 -0.241528E+00  0.373E+00    0.47       1.0  T
 100    -13.0412956 -0.924971E-02  0.295E+00    0.44       1.0  T
 101    -12.4574102  0.583885E+00  0.813E+00    0.01       1.0  T
 102    -13.0313508 -0.573941E+00  0.389E+00    0.47       1.0  T
 103    -13.0406990 -0.934816E-02  0.299E+00    0.44       1.0  T
 104    -13.1087296 -0.680306E-01  0.864E-01    0.09       1.0  T
 105    -13.0366866  0.720430E-01  0.324E+00    0.45       1.0  T
 106    -13.1095834 -0.728968E-01  0.810E-01    0.12       1.0  T
 107    -13.0405089  0.690745E-01  0.297E+00    0.44       1.0  T
 108    -12.2412844  0.799225E+00  0.936E+00    0.01       1.0  T
 109    -13.0370837 -0.795799E+00  0.371E+00    0.44       1.0  T
 110    -13.0984122 -0.613285E-01  0.136E+00    0.14       1.0  T
 111    -13.0407732  0.576390E-01  0.295E+00    0.45       1.0  T
 112    -12.2771112  0.763662E+00  0.915E+00    0.01       1.0  T
 113    -13.0351176 -0.758006E+00  0.375E+00    0.45       1.0  T
 114    -13.0454692 -0.103516E-01  0.280E+00    0.32       1.0  T
 115    -12.8516080  0.193861E+00  0.520E+00    0.03       1.0  T
 116    -13.0340676 -0.182460E+00  0.356E+00    0.46       1.0  T
 117    -13.0427213 -0.865372E-02  0.289E+00    0.41       1.0  T
 118    -12.4618691  0.580852E+00  0.810E+00    0.01       1.0  T
 119    -13.0334601 -0.571591E+00  0.374E+00    0.46       1.0  T
 120    -13.0415570 -0.809693E-02  0.293E+00    0.44       1.0  T
 121    -13.0918444 -0.502875E-01  0.159E+00    0.08       1.0  T
 122    -13.0368294  0.550150E-01  0.326E+00    0.45       1.0  T
 123    -13.0691646 -0.323352E-01  0.225E+00    0.20       1.0  T
 124    -13.0938064 -0.246418E-01  0.152E+00    0.08       1.0  T
 125    -13.0370857  0.567207E-01  0.324E+00    0.45       1.0  T
 126    -13.1102904 -0.732047E-01  0.762E-01    0.09       1.0  T
 127    -13.0389839  0.713065E-01  0.311E+00    0.45       1.0  T
 128    -12.4361440  0.602840E+00  0.826E+00    0.01       1.0  T
 129    -13.0348572 -0.598713E+00  0.367E+00    0.45       1.0  T
 130    -13.0475327 -0.126755E-01  0.276E+00    0.31       1.0  T
 131    -12.4645977  0.582935E+00  0.809E+00    0.01       1.0  T
 132    -13.0340535 -0.569456E+00  0.368E+00    0.46       1.0  T
 133    -13.0439987 -0.994521E-02  0.285E+00    0.38       1.0  T
 134    -12.6152140  0.428785E+00  0.711E+00    0.02       1.0  T
 135    -13.0346172 -0.419403E+00  0.361E+00    0.46       1.0  T
 136    -13.0437595 -0.914233E-02  0.285E+00    0.38       1.0  T
 137    -12.7392032  0.304556E+00  0.619E+00    0.02       1.0  T
 138    -13.0349717 -0.295769E+00  0.354E+00    0.46       1.0  T
 139    -13.0439862 -0.901448E-02  0.285E+00    0.37       1.0  T
 140    -12.7618982  0.282088E+00  0.600E+00    0.03       1.0  T
 141    -13.0350908 -0.273193E+00  0.352E+00    0.46       1.0  T
 142    -13.0441770 -0.908619E-02  0.284E+00    0.37       1.0  T
 143    -12.8093812  0.234796E+00  0.559E+00    0.03       1.0  T
 144    -13.0352538 -0.225873E+00  0.350E+00    0.45       1.0  T
 145    -13.0448310 -0.957724E-02  0.283E+00    0.35       1.0  T
 146    -12.7814690  0.263362E+00  0.584E+00    0.03       1.0  T
 147    -13.0352462 -0.253777E+00  0.350E+00    0.45       1.0  T
 148    -13.0452238 -0.997751E-02  0.281E+00    0.34       1.0  T
 149    -12.8154412  0.229783E+00  0.554E+00    0.03       1.0  T
 150    -13.0353857 -0.219945E+00  0.348E+00    0.45       1.0  T
 151    -13.0462693 -0.108836E-01  0.279E+00    0.32       1.0  T
 152    -12.8023806  0.243889E+00  0.566E+00    0.03       1.0  T
 153    -13.0354279 -0.233047E+00  0.348E+00    0.45       1.0  T
 154    -13.0472602 -0.118323E-01  0.276E+00    0.31       1.0  T
 155    -12.8371318  0.210128E+00  0.534E+00    0.03       1.0  T
 156    -13.0355610 -0.198429E+00  0.346E+00    0.45       1.0  T
 157    -13.0491699 -0.136088E-01  0.272E+00    0.29       1.0  T
 158    -12.8682608  0.180909E+00  0.504E+00    0.03       1.0  T
 159    -13.0356809 -0.167420E+00  0.344E+00    0.45       1.0  T
 160    -13.0524179 -0.167370E-01  0.264E+00    0.26       1.0  T
 161    -12.9498247  0.102593E+00  0.414E+00    0.04       1.0  T
 162    -13.0359914 -0.861667E-01  0.339E+00    0.45       1.0  T
 163    -13.0634876 -0.274961E-01  0.239E+00    0.21       1.0  T
 164    -13.1152120 -0.517244E-01  0.235E-01    0.10       1.0  T
 165    -13.0389758  0.762361E-01  0.310E+00    0.45       1.0  T
 166    -12.4001626  0.638813E+00  0.847E+00    0.01       1.0  T
 167    -13.0377912 -0.637629E+00  0.345E+00    0.44       1.0  T
 168    -13.0070851  0.307061E-01  0.336E+00    0.05       1.0  T
 169    -13.0367836 -0.296985E-01  0.333E+00    0.45       1.0  T
 170    -13.0662628 -0.294792E-01  0.232E+00    0.21       1.0  T
 171    -13.1102317 -0.439689E-01  0.765E-01    0.12       1.0  T
 172    -13.0407174  0.695143E-01  0.298E+00    0.44       1.0  T
 173    -12.2582198  0.782498E+00  0.926E+00    0.01       1.0  T
 174    -13.0409719 -0.782752E+00  0.329E+00    0.43       1.0  T
 175    -12.2338450  0.807127E+00  0.942E+00    0.01       1.0  T
 176    -13.0430942 -0.809249E+00  0.314E+00    0.42       1.0  T
 177    -12.2295127  0.813582E+00  0.948E+00    0.00       1.0  T
 178    -13.0452670 -0.815754E+00  0.297E+00    0.41       1.0  T
 179    -12.2274939  0.817773E+00  0.954E+00    0.00       1.0  T
 180    -13.0478480 -0.820354E+00  0.278E+00    0.40       1.0  T
 181    -12.2269351  0.820913E+00  0.956E+00    0.00       1.0  T
 182    -13.0977000 -0.870765E+00  0.139E+00    0.15       1.0  T
 183    -12.2512584  0.846442E+00  0.931E+00    0.00       1.0  T
 184    -13.0436829 -0.792424E+00  0.296E+00    0.42       1.0  T
 185    -12.8456611  0.198022E+00  0.527E+00    0.03       1.0  T
 186    -13.0365564 -0.190895E+00  0.326E+00    0.45       1.0  T
 187    -13.0375429 -0.986463E-03  0.309E+00    0.45       1.0  T
 188    -13.0385410 -0.998107E-03  0.304E+00    0.45       1.0  T
 189    -13.0398334 -0.129246E-02  0.300E+00    0.45       1.0  T
 190    -13.0409100 -0.107657E-02  0.296E+00    0.44       1.0  T
 191    -13.0430630 -0.215296E-02  0.288E+00    0.40       1.0  T
 192    -13.0636051 -0.205421E-01  0.239E+00    0.21       1.0  T
 193    -13.0906549 -0.270498E-01  0.165E+00    0.16       1.0  T
 194    -13.0572235  0.334313E-01  0.254E+00    0.23       1.0  T
 195    -12.2530907  0.804133E+00  0.928E+00    0.01       1.0  T
 196    -13.0347857 -0.781695E+00  0.351E+00    0.46       1.0  T
 197    -13.0463819 -0.115962E-01  0.278E+00    0.32       1.0  T
 198    -13.1139735 -0.675916E-01  0.438E-01    0.10       1.0  T
 199    -13.0410353  0.729382E-01  0.301E+00    0.44       1.0  T
 200    -12.2853194  0.755716E+00  0.911E+00    0.01       1.0  T
 201    -13.0358375 -0.750518E+00  0.347E+00    0.45       1.0  T
 202    -13.0441113 -0.827377E-02  0.284E+00    0.37       1.0  T
 203    -13.1121383 -0.680270E-01  0.612E-01    0.12       1.0  T
 204    -13.0427743  0.693640E-01  0.290E+00    0.44       1.0  T
 205    -12.2441735  0.798601E+00  0.934E+00    0.01       1.0  T
 206    -13.0369122 -0.792739E+00  0.341E+00    0.45       1.0  T
 207    -13.0494387 -0.125265E-01  0.271E+00    0.28       1.0  T
 208    -13.1099036 -0.604649E-01  0.783E-01    0.12       1.0  T
 209    -13.0435233  0.663803E-01  0.287E+00    0.41       1.0  T
 210    -12.2405160  0.803007E+00  0.936E+00    0.01       1.0  T
 211    -13.0372428 -0.796727E+00  0.338E+00    0.45       1.0  T
 212    -13.0538487 -0.166059E-01  0.261E+00    0.25       1.0  T
 213    -13.1072141 -0.533654E-01  0.950E-01    0.13       1.0  T
 214    -13.0448962  0.623179E-01  0.283E+00    0.36       1.0  T
 215    -12.2385771  0.806319E+00  0.937E+00    0.01       1.0  T
 216    -13.0373976 -0.798820E+00  0.336E+00    0.45       1.0  T
 217    -13.0579659 -0.205682E-01  0.251E+00    0.23       1.0  T
 218    -13.1037848 -0.458189E-01  0.113E+00    0.14       1.0  T
 219    -13.0478222  0.559626E-01  0.276E+00    0.30       1.0  T
 220    -12.2377608  0.810061E+00  0.938E+00    0.01       1.0  T
 221    -13.0373090 -0.799548E+00  0.336E+00    0.45       1.0  T
 222    -13.0595170 -0.222080E-01  0.248E+00    0.23       1.0  T
 223    -13.1064870 -0.469700E-01  0.990E-01    0.13       1.0  T
 224    -13.0467693  0.597177E-01  0.278E+00    0.32       1.0  T
 225    -12.2368819  0.809887E+00  0.939E+00    0.01       1.0  T
 226    -13.0376443 -0.800762E+00  0.333E+00    0.45       1.0  T
 227    -13.0617986 -0.241542E-01  0.242E+00    0.22       1.0  T
 228    -13.1021874 -0.403888E-01  0.120E+00    0.14       1.0  T
 229    -13.0521766  0.500108E-01  0.266E+00    0.26       1.0  T
 230    -12.2385539  0.813623E+00  0.937E+00    0.01       1.0  T
 231    -13.0370400 -0.798486E+00  0.335E+00    0.45       1.0  T
 232    -13.0553598 -0.183198E-01  0.257E+00    0.24       1.0  T
 233    -13.1156842 -0.603244E-01  0.676E-02    0.10       1.0  T
 234    -13.0423191  0.733651E-01  0.293E+00    0.44       1.0  T
 235    -12.2425665  0.799753E+00  0.935E+00    0.01       1.0  T
 236    -13.0376501 -0.795084E+00  0.332E+00    0.45       1.0  T
 237    -13.0490844 -0.114342E-01  0.271E+00    0.28       1.0  T
 238    -13.1148551 -0.657708E-01  0.298E-01    0.11       1.0  T
 239    -13.0431028  0.717524E-01  0.289E+00    0.43       1.0  T
 240    -12.2434682  0.799635E+00  0.934E+00    0.01       1.0  T
 241    -13.0373495 -0.793881E+00  0.333E+00    0.45       1.0  T
 242    -13.0470686 -0.971905E-02  0.276E+00    0.31       1.0  T
 243    -13.1153300 -0.682614E-01  0.198E-01    0.11       1.0  T
 244    -13.0430716  0.722584E-01  0.289E+00    0.43       1.0  T
 245    -12.2463864  0.796685E+00  0.933E+00    0.01       1.0  T
 246    -13.0370413 -0.790655E+00  0.334E+00    0.45       1.0  T
 247    -13.0454036 -0.836228E-02  0.280E+00    0.34       1.0  T
 248    -13.1151302 -0.697267E-01  0.244E-01    0.11       1.0  T
 249    -13.0435556  0.715746E-01  0.288E+00    0.42       1.0  T
 250    -12.2480392  0.795516E+00  0.932E+00    0.01       1.0  T
     SCC iter.                  ...        0 min,  0.113 sec
     gradient                   ...        0 min,  0.001 sec
 * total energy  :   -11.8238979 Eh     change        0.2841629E+00 Eh
   gradient norm :     4.2466736 Eh/α   predicted    -0.2364855E+00 (-183.22%)
   displ. norm   :     0.1793222 α      lambda       -0.7182903E+00
   maximum displ.:     0.1756601 α      in ANC's #12, #11, #1, ...

........................................................................
.............................. CYCLE    5 ..............................
........................................................................
   1    -13.0145054 -0.130145E+02  0.749E+00    0.61       0.0  T
   2    -12.1592892  0.855216E+00  0.962E+00    0.00       1.0  T
   3    -12.9768484 -0.817559E+00  0.622E+00    0.76       1.0  T
   4    -12.6226199  0.354229E+00  0.106E+01    0.08       1.0  T
   5    -13.0341235 -0.411504E+00  0.490E+00    0.30       1.0  T
   6    -13.0024037  0.317198E-01  0.590E+00    0.25       1.0  T
   7    -12.9342050  0.681987E-01  0.761E+00    0.21       1.0  T
   8    -12.9375384 -0.333337E-02  0.749E+00    0.21       1.0  T
   9    -13.0186435 -0.811051E-01  0.446E+00    0.24       1.0  T
  10    -13.0682941 -0.496506E-01  0.355E+00    0.14       1.0  T
  11    -12.2642737  0.804020E+00  0.930E+00    0.00       1.0  T
  12    -12.2954465 -0.311728E-01  0.915E+00    0.01       1.0  T
  13    -13.0094683 -0.714022E+00  0.424E+00    0.63       1.0  T
  14    -13.0177742 -0.830595E-02  0.487E+00    0.26       1.0  T
  15    -13.0953938 -0.776196E-01  0.188E+00    0.09       1.0  T
  16    -13.0175467  0.778472E-01  0.484E+00    0.25       1.0  T
  17    -12.3291030  0.688444E+00  0.894E+00    0.01       1.0  T
  18    -13.0487336 -0.719631E+00  0.270E+00    0.44       1.0  T
  19    -13.0563221 -0.758852E-02  0.310E+00    0.30       1.0  T
  20    -13.0869932 -0.306712E-01  0.236E+00    0.16       1.0  T
  21    -13.0686911  0.183021E-01  0.310E+00    0.20       1.0  T
  22    -13.0987559 -0.300648E-01  0.207E+00    0.13       1.0  T
  23    -13.0661587  0.325972E-01  0.308E+00    0.21       1.0  T
  24    -13.1037784 -0.376198E-01  0.180E+00    0.10       1.0  T
  25    -13.0644603  0.393182E-01  0.300E+00    0.22       1.0  T
  26    -13.0973002 -0.328399E-01  0.192E+00    0.09       1.0  T
  27    -13.0682390  0.290611E-01  0.281E+00    0.22       1.0  T
  28    -13.0926822 -0.244432E-01  0.205E+00    0.09       1.0  T
  29    -13.0748888  0.177934E-01  0.260E+00    0.20       1.0  T
  30    -13.0882502 -0.133614E-01  0.217E+00    0.09       1.0  T
  31    -13.0818891  0.636109E-02  0.238E+00    0.18       1.0  T
  32    -13.0859289 -0.403976E-02  0.223E+00    0.08       1.0  T
  33    -13.0890001 -0.307119E-02  0.217E+00    0.16       1.0  T
  34    -13.0850202  0.397983E-02  0.225E+00    0.08       1.0  T
  35    -13.0954501 -0.104298E-01  0.198E+00    0.15       1.0  T
  36    -13.0851850  0.102650E-01  0.224E+00    0.08       1.0  T
  37    -13.1006922 -0.155072E-01  0.181E+00    0.14       1.0  T
  38    -13.0859131  0.147791E-01  0.221E+00    0.08       1.0  T
  39    -13.1043783 -0.184652E-01  0.168E+00    0.13       1.0  T
  40    -13.0867700  0.176083E-01  0.218E+00    0.08       1.0  T
  41    -13.1064487 -0.196786E-01  0.160E+00    0.12       1.0  T
  42    -13.0874392  0.190094E-01  0.214E+00    0.08       1.0  T
  43    -13.1070902 -0.196510E-01  0.156E+00    0.11       1.0  T
  44    -13.0877207  0.193696E-01  0.212E+00    0.08       1.0  T
  45    -13.1066337 -0.189130E-01  0.156E+00    0.11       1.0  T
  46    -13.0875016  0.191321E-01  0.211E+00    0.08       1.0  T
  47    -13.1054461 -0.179444E-01  0.158E+00    0.10       1.0  T
  48    -13.0867231  0.187230E-01  0.211E+00    0.08       1.0  T
  49    -13.1038589 -0.171358E-01  0.161E+00    0.10       1.0  T
  50    -13.0853538  0.185050E-01  0.213E+00    0.08       1.0  T
  51    -13.1021401 -0.167862E-01  0.165E+00    0.10       1.0  T
  52    -13.0833757  0.187644E-01  0.215E+00    0.08       1.0  T
  53    -13.1004950 -0.171193E-01  0.168E+00    0.09       1.0  T
  54    -13.0807770  0.197180E-01  0.220E+00    0.08       1.0  T
  55    -13.0990734 -0.182964E-01  0.170E+00    0.09       1.0  T
  56    -13.0775550  0.215184E-01  0.225E+00    0.08       1.0  T
  57    -13.0979617 -0.204067E-01  0.170E+00    0.09       1.0  T
  58    -13.0737385  0.242232E-01  0.231E+00    0.08       1.0  T
  59    -13.0971545 -0.234161E-01  0.170E+00    0.09       1.0  T
  60    -13.0694719  0.276826E-01  0.238E+00    0.08       1.0  T
  61    -13.0965203 -0.270484E-01  0.169E+00    0.09       1.0  T
  62    -13.0651949  0.313254E-01  0.245E+00    0.07       1.0  T
  63    -13.0957867 -0.305917E-01  0.168E+00    0.09       1.0  T
  64    -13.0618115  0.339751E-01  0.249E+00    0.07       1.0  T
  65    -13.0945831 -0.327715E-01  0.168E+00    0.09       1.0  T
  66    -13.0605113  0.340718E-01  0.250E+00    0.07       1.0  T
  67    -13.0926018 -0.320905E-01  0.171E+00    0.09       1.0  T
  68    -13.0620329  0.305690E-01  0.245E+00    0.07       1.0  T
  69    -13.0899232 -0.278904E-01  0.177E+00    0.08       1.0  T
  70    -13.0660020  0.239212E-01  0.234E+00    0.07       1.0  T
  71    -13.0874032 -0.214012E-01  0.181E+00    0.08       1.0  T
  72    -13.0713835  0.160197E-01  0.220E+00    0.08       1.0  T
  73    -13.0869195 -0.155360E-01  0.180E+00    0.08       1.0  T
  74    -13.0780185  0.890100E-02  0.202E+00    0.08       1.0  T
  75    -13.0920374 -0.140189E-01  0.161E+00    0.08       1.0  T
  76    -13.0884731  0.356427E-02  0.170E+00    0.08       1.0  T
  77    -13.1054405 -0.169674E-01  0.103E+00    0.09       1.0  T
  78    -13.1027107  0.272986E-02  0.114E+00    0.09       1.0  T
  79    -13.1091372 -0.642654E-02  0.784E-01    0.09       1.0  T
  80    -13.1077760  0.136117E-02  0.871E-01    0.09       1.0  T
  81    -13.1098658 -0.208977E-02  0.734E-01    0.09       1.0  T
  82    -13.1099050 -0.391744E-04  0.732E-01    0.09       1.0  T
  83    -13.1110860 -0.118099E-02  0.642E-01    0.10       1.0  T
  84    -13.1114652 -0.379215E-03  0.611E-01    0.10       1.0  T
  85    -13.1121724 -0.707252E-03  0.547E-01    0.10       1.0  T
  86    -13.1128114 -0.639004E-03  0.482E-01    0.10       1.0  T
  87    -13.1137124 -0.900968E-03  0.368E-01    0.10       1.0  T
  88    -13.1144415 -0.729091E-03  0.236E-01    0.10       1.0  T
  89    -13.1148313 -0.389808E-03  0.107E-01    0.11       1.0  T
  90    -13.1148942 -0.629277E-04  0.517E-02    0.11       1.0  T
  91    -13.1148589  0.353869E-04  0.742E-02    0.11       1.0  T
  92    -13.1148463  0.125268E-04  0.802E-02    0.11       1.0  T
  93    -13.1148643 -0.179634E-04  0.656E-02    0.11       1.0  T
  94    -13.1148874 -0.231346E-04  0.419E-02    0.11       1.0  T
  95    -13.1148990 -0.115290E-04  0.228E-02    0.11       1.8  T
  96    -13.1149028 -0.383637E-05  0.106E-02    0.11       3.9  T
  97    -13.1149037 -0.914042E-06  0.387E-03    0.11      10.6  T
  98    -13.1149038 -0.134194E-06  0.729E-04    0.11      56.0  T
     SCC iter.                  ...        0 min,  0.011 sec
     gradient                   ...        0 min,  0.001 sec
 * total energy  :   -13.0634381 Eh     change       -0.1239540E+01 Eh
   gradient norm :     0.1471159 Eh/α   predicted    -0.3706938E+00 ( -70.09%)
   displ. norm   :     0.0197296 α      lambda       -0.1303835E-02
   maximum displ.:     0.0155047 α      in ANC's #1, #3, #12, ...

........................................................................
.............................. CYCLE    6 ..............................
........................................................................
   1    -13.1157045 -0.131157E+02  0.217E-01    0.12       0.0  T
   2    -12.2548805  0.860824E+00  0.928E+00    0.02       1.0  T
   3    -13.1155111 -0.860631E+00  0.269E-01    0.11       1.0  T
   4    -13.1156276 -0.116489E-03  0.263E-01    0.11       1.0  T
   5    -13.1153521  0.275507E-03  0.299E-01    0.10       1.0  T
   6    -13.1161516 -0.799477E-03  0.472E-02    0.11       1.0  T
   7    -13.1161281  0.234486E-04  0.681E-02    0.11       1.0  T
   8    -13.1161648 -0.366062E-04  0.151E-02    0.11       2.7  T
   9    -13.1161666 -0.183919E-05  0.202E-03    0.11      20.2  T
  10    -13.1161666 -0.921125E-08  0.159E-03    0.11      25.7  T
     SCC iter.                  ...        0 min,  0.001 sec
     gradient                   ...        0 min,  0.001 sec
 * total energy  :   -13.0641899 Eh     change       -0.7517610E-03 Eh
   gradient norm :     0.0257548 Eh/α   predicted    -0.6521730E-03 ( -13.25%)
   displ. norm   :     0.2215454 α      lambda       -0.8946494E-03
   maximum displ.:     0.2208377 α      in ANC's #1, #3, #8, ...

........................................................................
.............................. CYCLE    7 ..............................
........................................................................
   1    -13.1167655 -0.131168E+02  0.357E-01    0.11       0.0  T
   2    -12.3092871  0.807478E+00  0.900E+00    0.02       1.0  T
   3    -13.1163466 -0.807060E+00  0.350E-01    0.11       1.0  T
   4    -13.1097297  0.661695E-02  0.898E-01    0.09       1.0  T
   5    -13.1159889 -0.625925E-02  0.349E-01    0.10       1.0  T
   6    -13.1170471 -0.105814E-02  0.354E-02    0.11       1.2  T
   7    -13.1167928  0.254314E-03  0.170E-01    0.11       1.0  T
   8    -13.1170406 -0.247878E-03  0.298E-02    0.11       1.4  T
   9    -13.1170320  0.862590E-05  0.465E-02    0.11       1.0  T
  10    -13.1170487 -0.166750E-04  0.103E-02    0.11       4.0  T
  11    -13.1170497 -0.988186E-06  0.149E-03    0.11      27.3  T
  12    -13.1170497 -0.263276E-08  0.599E-04    0.11      68.2  T
     SCC iter.                  ...        0 min,  0.001 sec
     gradient                   ...        0 min,  0.001 sec
 * total energy  :   -13.0611117 Eh     change        0.3078160E-02 Eh
   gradient norm :     0.0939031 Eh/α   predicted    -0.4692712E-03 (-115.25%)
   displ. norm   :     0.1910268 α      lambda       -0.7045650E-02
   maximum displ.:     0.1909289 α      in ANC's #1, #3, #8, ...

........................................................................
.............................. CYCLE    8 ..............................
........................................................................
   1    -13.1185638 -0.131186E+02  0.312E-01    0.11       0.0  T
   2    -12.3677132  0.750851E+00  0.868E+00    0.02       1.0  T
   3    -13.1187635 -0.751050E+00  0.175E-01    0.11       1.0  T
   4    -13.1182335  0.530023E-03  0.354E-01    0.12       1.0  T
   5    -13.1184875 -0.253950E-03  0.187E-01    0.11       1.0  T
   6    -13.1186339 -0.146475E-03  0.125E-01    0.11       1.0  T
   7    -13.1187791 -0.145138E-03  0.914E-03    0.11       4.5  T
[...]
   4    -13.1288956 -0.290648E-04  0.460E-02    0.11       1.0  T
   5    -13.1289149 -0.192569E-04  0.267E-03    0.11      15.3  T
   6    -13.1289148  0.109467E-06  0.379E-03    0.11      10.8  T
   7    -13.1289149 -0.124174E-06  0.743E-04    0.11      54.9  T
   8    -13.1289149  0.234078E-07  0.175E-03    0.11      23.4  T
     SCC iter.                  ...        0 min,  0.001 sec
     gradient                   ...        0 min,  0.001 sec
 * total energy  :   -13.0691781 Eh     change       -0.1931579E-05 Eh
   gradient norm :     0.0013328 Eh/α   predicted    -0.1553385E-05 ( -19.58%)
   displ. norm   :     0.0064812 α      lambda       -0.8784806E-06
   maximum displ.:     0.0062882 α      in ANC's #3, #8, #1, ...
 * RMSD in coord.:     0.3813578 α      energy gain  -0.1603244E+02 Eh

generating ANC from model Hessian ...
Using Lindh-Hessian (1995)
 Shifting diagonal of input Hessian by   1.236573322744269E-002
 Lowest  eigenvalues of input Hessian
    0.010000    0.010000   -0.000000   -0.000000   -0.000000    0.000000
    0.000000    0.000000    0.013180    0.013222    0.013233    0.182964
    0.183057    0.450382    1.285783    1.286593   20.013623   60.011899
 Highest eigenvalues
    0.183057    0.450382    1.285783    1.286593   20.013623   60.011899
 

........................................................................
.............................. CYCLE   21 ..............................
........................................................................
   1    -13.1289661 -0.131290E+02  0.636E-02    0.11       0.0  T
   2    -13.0944316  0.345344E-01  0.197E+00    0.19       1.0  T
   3    -13.1287655 -0.343339E-01  0.159E-01    0.12       1.0  T
   4    -13.1289574 -0.191849E-03  0.718E-02    0.11       1.0  T
   5    -13.1290035 -0.461511E-04  0.934E-03    0.11       4.4  T
   6    -13.1289969  0.667935E-05  0.282E-02    0.11       1.4  T
   7    -13.1290027 -0.583217E-05  0.132E-02    0.11       3.1  T
   8    -13.1290043 -0.158345E-05  0.183E-03    0.11      22.3  T
   9    -13.1290043 -0.279965E-07  0.603E-04    0.11      67.7  T
  10    -13.1290043  0.147410E-08  0.706E-04    0.11      57.8  T
     SCC iter.                  ...        0 min,  0.001 sec
     gradient                   ...        0 min,  0.001 sec
 * total energy  :   -13.0691786 Eh     change       -0.5398194E-06 Eh
   gradient norm :     0.0020522 Eh/α   predicted     0.0000000E+00 (-100.00%)
   displ. norm   :     0.0030047 α      lambda       -0.1191282E-05
   maximum displ.:     0.0023538 α      in ANC's #3, #1, #7, ...

........................................................................
.............................. CYCLE   22 ..............................
........................................................................
   1    -13.1289609 -0.131290E+02  0.374E-02    0.12       0.0  T
   2    -13.0757188  0.532422E-01  0.238E+00    0.07       1.0  T
   3    -13.1289727 -0.532539E-01  0.149E-02    0.11       2.7  T
   4    -13.1289530  0.196951E-04  0.503E-02    0.12       1.0  T
   5    -13.1289740 -0.209770E-04  0.460E-03    0.11       8.9  T
   6    -13.1289739  0.107023E-06  0.541E-03    0.11       7.5  T
   7    -13.1289741 -0.269369E-06  0.540E-04    0.11      75.6  T
   8    -13.1289741 -0.410150E-09  0.529E-04    0.11      77.2  T
     SCC iter.                  ...        0 min,  0.001 sec
     gradient                   ...        0 min,  0.001 sec
 * total energy  :   -13.0691757 Eh     change        0.2934065E-05 Eh
   gradient norm :     0.0189707 Eh/α   predicted    -0.5962795E-06 (-120.32%)
   displ. norm   :     0.0014802 α      lambda       -0.6670397E-05
   maximum displ.:     0.0008430 α      in ANC's #3, #1, #7, ...

........................................................................
.............................. CYCLE   23 ..............................
........................................................................
   1    -13.1289464 -0.131289E+02  0.193E-03    0.11       0.0  T
   2    -13.1289412  0.528871E-05  0.249E-02    0.11       1.6  T
   3    -13.1289455 -0.437826E-05  0.984E-03    0.11       4.1  T
   4    -13.1289457 -0.128277E-06  0.933E-03    0.11       4.4  T
   5    -13.1289465 -0.787039E-06  0.403E-04    0.11     101.4  T
   6    -13.1289465 -0.126967E-08  0.120E-04    0.11     339.8  T
     SCC iter.                  ...        0 min,  0.000 sec
     gradient                   ...        0 min,  0.001 sec
 * total energy  :   -13.0691784 Eh     change       -0.2744089E-05 Eh
   gradient norm :     0.0047909 Eh/α   predicted    -0.3334876E-05 (  21.53%)
   displ. norm   :     0.0049263 α      lambda       -0.3533368E-05
   maximum displ.:     0.0047888 α      in ANC's #3, #12, #7, ...

........................................................................
.............................. CYCLE   24 ..............................
........................................................................
   1    -13.1289338 -0.131289E+02  0.599E-02    0.11       0.0  T
   2    -13.0965761  0.323577E-01  0.191E+00    0.18       1.0  T
   3    -13.1288179 -0.322418E-01  0.126E-01    0.12       1.0  T
   4    -13.1289027 -0.847760E-04  0.836E-02    0.11       1.0  T
   5    -13.1289673 -0.646283E-04  0.593E-03    0.11       6.9  T
   6    -13.1289662  0.109234E-05  0.122E-02    0.11       3.3  T
   7    -13.1289669 -0.708805E-06  0.853E-03    0.11       4.8  T
   8    -13.1289676 -0.674666E-06  0.591E-04    0.11      69.1  T
   9    -13.1289676 -0.169840E-08  0.420E-04    0.11      97.2  T
     SCC iter.                  ...        0 min,  0.001 sec
     gradient                   ...        0 min,  0.001 sec
 * total energy  :   -13.0691747 Eh     change        0.3665899E-05 Eh
   gradient norm :     0.0127770 Eh/α   predicted    -0.1766313E-05 (-148.18%)
   displ. norm   :     0.0022636 α      lambda       -0.8398576E-05
   maximum displ.:     0.0019179 α      in ANC's #3, #1, #12, ...

........................................................................
.............................. CYCLE   25 ..............................
........................................................................
   1    -13.1289476 -0.131289E+02  0.333E-02    0.12       0.0  T
   2    -13.0886333  0.403143E-01  0.207E+00    0.08       1.0  T
   3    -13.1289578 -0.403245E-01  0.801E-03    0.11       5.1  T
   4    -13.1289484  0.936300E-05  0.342E-02    0.12       1.2  T
   5    -13.1289580 -0.952716E-05  0.465E-03    0.11       8.8  T
   6    -13.1289579  0.847887E-07  0.532E-03    0.11       7.7  T
   7    -13.1289581 -0.260358E-06  0.566E-04    0.11      72.1  T
   8    -13.1289581  0.131678E-08  0.693E-04    0.11      58.9  T
     SCC iter.                  ...        0 min,  0.001 sec
     gradient                   ...        0 min,  0.001 sec
 * total energy  :   -13.0691789 Eh     change       -0.4194097E-05 Eh
   gradient norm :     0.0001439 Eh/α   predicted    -0.4199806E-05 (   0.14%)
   displ. norm   :     0.0033866 α      lambda       -0.6198613E-07
   maximum displ.:     0.0027783 α      in ANC's #3, #1, #5, ...

   *** GEOMETRY OPTIMIZATION CONVERGED AFTER 25 ITERATIONS ***

------------------------------------------------------------------------
 total energy gain   :       -16.0324457 Eh   -10060.5116 kcal/mol
 total RMSD          :         0.3814330 a0        0.2018 Å
 total power (kW/mol):     -1683.7272197 (step)********** (real)
------------------------------------------------------------------------

 ANCopt (total)                0 d,  0 h,  0 min,  0.645 sec
 optimizer setup                ...        0 min,  0.000 sec (  0.008%)
 model hessian                  ...        0 min,  0.000 sec (  0.021%)
 ANC generation                 ...        0 min,  0.000 sec (  0.020%)
 coordinate transformation      ...        0 min,  0.000 sec (  0.020%)
 single point calculation       ...        0 min,  0.642 sec ( 99.614%)
 optimization log               ...        0 min,  0.001 sec (  0.091%)
 hessian update                 ...        0 min,  0.000 sec (  0.014%)
 rational function              ...        0 min,  0.001 sec (  0.106%)

================
 final structure:
================
6
 xtb: 6.2.3 (830e466)
F        -4.11503844159490   -0.24234162752584    0.08097917370146
Cl        2.48430533615003    0.14124070234126   -0.03414452159394
C        -0.62201018538324   -0.03446287825681    0.00787185668935
H        -0.60897504993861   -0.61689349875651   -0.88705201947273
H        -0.59089339602127   -0.51733642632107    0.95978005343537
H        -0.69032826321224    1.02972372851898   -0.04874454275951
 
 Bond Distances (Angstroems)
 ---------------------------
C3-H4=1.0678         C3-H5=1.0678         C3-H6=1.0679         H4-C3=1.0678         H5-C3=1.0678         H6-C3=1.0679         
 C  H  Rav=1.0679 sigma=0.0000  Rmin=1.0678  Rmax=1.0679     3
 
 selected bond angles (degree)
 --------------------
H5-C3-H4=120.01                H6-C3-H4=119.99                H6-C3-H5=119.98                
 
 selected dihedral angles (degree)
 ---------------------------------

 
 CMA Distance (Angstroems)
 ---------------------------
R(CMA):  5.6844
           -------------------------------------------------
          |                Final Singlepoint                |
           -------------------------------------------------

          ...................................................
          :                      SETUP                      :
          :.................................................:
          :  # basis functions                  21          :
          :  # atomic orbitals                  20          :
          :  # shells                           10          :
          :  # electrons                        22          :
          :  max. iterations                   250          :
          :  Hamiltonian                  GFN2-xTB          :
          :  restarted?                      false          :
          :  GBSA solvation                  false          :
          :  PC potential                    false          :
          :  electronic temp.          300.0000000     K    :
          :  accuracy                    1.0000000          :
          :  -> integral cutoff          0.2500000E+02      :
          :  -> integral neglect         0.1000000E-07      :
          :  -> SCF convergence          0.1000000E-05 Eh   :
          :  -> wf. convergence          0.1000000E-03 e    :
          :  Broyden damping             0.4000000          :
          ...................................................

 iter      E             dE          RMSdq      gap      omega  full diag
   1    -13.1289581 -0.131290E+02  0.622E-04    0.11       0.0  T
   2    -13.1289554  0.270637E-05  0.171E-02    0.11       2.4  T
   3    -13.1289573 -0.189277E-05  0.952E-03    0.11       4.3  T
   4    -13.1289580 -0.727024E-06  0.324E-03    0.11      12.6  T
   5    -13.1289581 -0.735770E-07  0.126E-03    0.11      32.4  T
   6    -13.1289581 -0.141062E-07  0.450E-05    0.11     907.2  T
   7    -13.1289581 -0.121041E-10  0.213E-05    0.11    1913.0  T

   *** convergence criteria satisfied after 7 iterations ***

         #    Occupation            Energy/Eh            Energy/eV
      -------------------------------------------------------------
         1        2.0000           -0.8631480             -23.4875
       ...           ...                  ...                  ...
         5        2.0000           -0.3707293             -10.0881
         6        2.0000           -0.2516886              -6.8488
         7        2.0000           -0.2430267              -6.6131
         8        2.0000           -0.2430265              -6.6131
         9        1.8948           -0.2285498              -6.2192
        10        1.8864           -0.2284722              -6.2170
        11        1.8863           -0.2284715              -6.2170 (HOMO)
        12        0.3324           -0.2242706              -6.1027 (LUMO)
        13                          0.2346475               6.3851
        14                          0.2414992               6.5715
        15                          0.2414993               6.5715
        16                          0.2418488               6.5810
       ...                                ...                  ...
        20                          0.4033352              10.9753
      -------------------------------------------------------------
                  HL-Gap            0.0042009 Eh            0.1143 eV
             Fermi-level           -0.2258028 Eh           -6.1444 eV

 SCC (total)                   0 d,  0 h,  0 min,  0.002 sec
 SCC setup                      ...        0 min,  0.000 sec (  2.543%)
 Dispersion                     ...        0 min,  0.000 sec (  0.392%)
 integral evaluation            ...        0 min,  0.001 sec ( 35.001%)
 zeroth order Hamiltonian       ...        0 min,  0.000 sec (  0.622%)
 iterations                     ...        0 min,  0.000 sec ( 25.818%)
 molecular gradient             ...        0 min,  0.001 sec ( 31.647%)
 printout                       ...        0 min,  0.000 sec (  2.786%)

         :::::::::::::::::::::::::::::::::::::::::::::::::::::
         ::                     SUMMARY                     ::
         :::::::::::::::::::::::::::::::::::::::::::::::::::::
         :: total energy             -13.069178921455 Eh    ::
         :: gradient norm              0.000145354527 Eh/a0 ::
         :: HOMO-LUMO gap              0.114311812627 eV    ::
         ::.................................................::
         :: SCC energy               -13.128958130345 Eh    ::
         :: -> isotropic ES            0.161625795691 Eh    ::
         :: -> anisotropic ES         -0.000587321704 Eh    ::
         :: -> anisotropic XC          0.006377427864 Eh    ::
         :: -> dispersion             -0.001608858629 Eh    ::
         :: repulsion energy           0.059777000864 Eh    ::
         :: add. restraining           0.000006802670 Eh    ::
         :::::::::::::::::::::::::::::::::::::::::::::::::::::

           -------------------------------------------------
          |                Property Printout                |
           -------------------------------------------------

    * Orbital Energies and Occupations

         #    Occupation            Energy/Eh            Energy/eV
      -------------------------------------------------------------
         1        2.0000           -0.8631480             -23.4875
         2        2.0000           -0.5142851             -13.9944
         3        2.0000           -0.4682518             -12.7418
         4        2.0000           -0.3707869             -10.0896
         5        2.0000           -0.3707293             -10.0881
         6        2.0000           -0.2516886              -6.8488
         7        2.0000           -0.2430267              -6.6131
         8        2.0000           -0.2430265              -6.6131
         9        1.8948           -0.2285498              -6.2192
        10        1.8864           -0.2284722              -6.2170
        11        1.8863           -0.2284715              -6.2170 (HOMO)
        12        0.3324           -0.2242706              -6.1027 (LUMO)
        13                          0.2346475               6.3851
        14                          0.2414992               6.5715
        15                          0.2414993               6.5715
        16                          0.2418488               6.5810
        17                          0.2428769               6.6090
        18                          0.2428769               6.6090
        19                          0.4031488              10.9702
        20                          0.4033352              10.9753
      -------------------------------------------------------------
                  HL-Gap            0.0042009 Eh            0.1143 eV
             Fermi-level           -0.2258028 Eh           -6.1444 eV

     #   Z        covCN         q      C6AA      α(0)
     1   9 F      0.000    -0.562    16.231     4.692
     2  17 Cl     0.000    -0.626   112.610    16.150
     3   6 C      2.780    -0.070    29.738     8.932
     4   1 H      0.927     0.086     1.920     2.167
     5   1 H      0.927     0.086     1.917     2.165
     6   1 H      0.927     0.086     1.920     2.167

 Mol. C6AA /au·bohr⁶  :        581.304816
 Mol. C8AA /au·bohr⁸  :      16484.955057
 Mol. α(0) /au        :         36.273409


Wiberg/Mayer (AO) data.
largest (>0.10) Wiberg bond orders for each atom
          total WBO             WBO to atom ...
     1  F   0.118        C    3 0.118
     2  Cl  0.444        C    3 0.444
     3  C   3.536        H    6 0.991    H    4 0.991    H    5 0.991    Cl   2 0.444    F    1 0.118
     4  H   0.993        C    3 0.991
     5  H   0.993        C    3 0.991
     6  H   0.993        C    3 0.991

molecular dipole:
                 x           y           z       tot (Debye)
 q only:        1.206       0.078      -0.042
   full:        1.249       0.080      -0.042       3.182
molecular quadrupole (traceless):
                xx          xy          yy          xz          yz          zz
 q only:      -47.911      -4.197      23.845       1.291       0.075      24.067
  q+dip:      -48.318      -4.231      24.047       1.300       0.075      24.271
   full:      -47.320      -4.147      23.550       1.280       0.074      23.770

           -------------------------------------------------
          |                Geometry Summary                 |
           -------------------------------------------------

      molecular mass/u    :       69.4858989
   center of mass at/Å    :        0.0074944      -0.0016689       0.0064282
  moments of inertia/u·Å² :        0.3449836E+01   0.5500878E+03   0.5500899E+03
rotational constants/cm⁻¹ :        0.4886503E+01   0.3064535E-01   0.3064523E-01

 * 3 selected distances

     #   Z        #   Z                                     value/Å
     3   6 C      4   1 H                                 1.0678409
     3   6 C      5   1 H                                 1.0678316 (min)
     3   6 C      6   1 H                                 1.0678792 (max)

 * 1 distinct bonds (by element types)

   Z      Z             #   av. dist./Å        max./Å        min./Å
   1 H    6 C           3     1.0678505     1.0678792     1.0678316


optimized geometry written to: xtbopt.xyz


           -------------------------------------------------
          | TOTAL ENERGY              -13.069178921455 Eh   |
          | GRADIENT NORM               0.000145354527 Eh/α |
          | HOMO-LUMO GAP               0.114311812627 eV   |
           -------------------------------------------------
########################################################################
[WARNING] Runtime exception occurred
-6- scf: Self consistent charge iterator did not converge
-5- scf: Self consistent charge iterator did not converge
-4- scf: Self consistent charge iterator did not converge
-3- scf: Self consistent charge iterator did not converge
-2- scf: Self consistent charge iterator did not converge
-1- scf: Self consistent charge iterator did not converge
########################################################################

------------------------------------------------------------------------
 * finished run on 2020/04/08 at 23:04:01.428     
------------------------------------------------------------------------
 total:
 * wall-time:     0 d,  0 h,  0 min,  0.770 sec
 *  cpu-time:     0 d,  0 h,  0 min,  0.770 sec
 * ratio c/w:     1.000 speedup
 SCF:
 * wall-time:     0 d,  0 h,  0 min,  0.116 sec
 *  cpu-time:     0 d,  0 h,  0 min,  0.116 sec
 * ratio c/w:     1.000 speedup
 ANC optimizer:
 * wall-time:     0 d,  0 h,  0 min,  0.647 sec
 *  cpu-time:     0 d,  0 h,  0 min,  0.647 sec
 * ratio c/w:     1.000 speedup

