      -----------------------------------------------------------      
     |                   =====================                   |     
     |                           x T B                           |     
     |                   =====================                   |     
     |                         S. Grimme                         |     
     |          Mulliken Center for Theoretical Chemistry        |     
     |                    University of Bonn                     |     
      -----------------------------------------------------------      

   * xtb version 6.2.3 (830e466) compiled by 'ehlert@majestix' on 2020-03-16

   xtb is free software: you can redistribute it and/or modify it under
   the terms of the GNU Lesser General Public License as published by
   the Free Software Foundation, either version 3 of the License, or
   (at your option) any later version.
   
   xtb is distributed in the hope that it will be useful,
   but WITHOUT ANY WARRANTY; without even the implied warranty of
   MERCHANTABILITY or FITNESS FOR A PARTICULAR PURPOSE.  See the
   GNU Lesser General Public License for more details.
   
   Cite this work as:
   * S. Grimme, C. Bannwarth, P. Shushkov, J. Chem. Theory Comput., 2017,
     13, 1989-2009. DOI: 10.1021/acs.jctc.7b00118
   * C. Bannwarth, S. Ehlert and S. Grimme., J. Chem. Theory Comput., 2019,
     15, 1652-1671. DOI: 10.1021/acs.jctc.8b01176
   * P. Pracht, E. Caldeweyher, S. Ehlert, S. Grimme, ChemRxiv, 2019, preprint.
     DOI: 10.26434/chemrxiv.8326202.v1
   
   for DFT-D4:
   * E. Caldeweyher, C. Bannwarth and S. Grimme, J. Chem. Phys., 2017,
     147, 034112. DOI: 10.1063/1.4993215
   * E. Caldeweyher, S. Ehlert, A. Hansen, H. Neugebauer, S. Spicher,
     C. Bannwarth and S. Grimme, J. Chem. Phys., 2019, 150, 154122.
     DOI: 10.1063/1.5090222
   
   for sTDA-xTB:
   * S. Grimme and C. Bannwarth, J. Chem. Phys., 2016, 145, 054103.
     DOI: 10.1063/1.4959605
   
   in the mass-spec context:
   * V. Asgeirsson, C. Bauer and S. Grimme, Chem. Sci., 2017, 8, 4879.
     DOI: 10.1039/c7sc00601b
   
   for metadynamics refer to:
   * S. Grimme, J. Chem. Theory Comput., 2019, 155, 2847-2862
     DOI: 10.1021/acs.jctc.9b00143
   
   with help from (in alphabetical order)
   C. Bannwarth, F. Bohle, G. Brandenburg, E. Caldeweyher, M. Checinski,
   S. Dohm, S. Ehlert, S. Ehrlich, F. März, H. Neugebauer, J. Pisarek,
   P. Pracht, P. Shushkov, and S. Spicher.
   
 * started run on 2020/04/08 at 13:05:34.606     

           -------------------------------------------------
          |                Calculation Setup                |
           -------------------------------------------------

          program call               : /home/tom/.local/bin/xtb SN2_PES_scan_3-0_xtb.xyz --chrg -1 --opt --input xcontrol_SN2_PES_scan_3-0
          coordinate file            : SN2_PES_scan_3-0_xtb.xyz
          omp threads                :                     2
          number of atoms            :                     6
          number of electrons        :                    22
          charge                     :                    -1
          spin                       :                   0.0
          first test random number   :      0.02226730151694

constraining bond 1 3 to    2.5000000 Å, actual value:    2.9998451 Å
constraining bond 2 3 to    1.7800000 Å, actual value:    1.7800520 Å

molecular fragmentation (1/2 indicates fragments):
122222
# atoms in fragment 1/2:     1     5
 fragment masses (1/2) :       19.00       50.49
CMA distance (Bohr)    :   7.991
constraining FC (au)   : 10.0000
########################################################################
[WARNING] Please study the warnings concerning your input carefully
-2- prog_main: XTBPATH is not set, using XTBHOME instead
-1- prog_main: XTBHOME is not set, using HOME instead
########################################################################
           ------------------------------------------------- 
          |                 G F N 2 - x T B                 |
          | Geometry, Frequencies, Noncovalent interactions |
          |            JCTC 2019 parametrisation            |
           ------------------------------------------------- 
             k(s)              :                1.8500
             k(p)              :                2.2300
             k(d)              :                2.2300
             k(f)              :                2.0000
             kEN (H0ij)        :               -2.0000
             D4 a1             :                0.5200
             D4 a2             :                5.0000
             D4 s6             :                1.0000
             D4 s8             :                2.7000
             D4 s9             :                5.0000
             alphaj            :                2.0000

  Z AO/shell   Hii/eV     exponent
  1     Wed Apr 25 08:07:45 CEST 2018   EN: 2.200 GM2: 0.406  GM3: 0.0800  RAES: 1.40
     1s    -10.707211    1.230000
  6     Wed Apr 25 08:07:45 CEST 2018   EN: 2.550 GM2: 0.538  GM3: 0.1500  RAES: 3.00
     2s    -13.970922    2.096432
     2p    -10.063292    1.800000
  9     Mon Apr 23 13:58:50 CEST 2018   EN: 3.980 GM2: 0.532  GM3: 0.1426  RAES: 2.40
     2s    -23.458179    2.416361
     2p    -15.746583    2.308399
 17     Mon Apr 23 14:09:22 CEST 2018   EN: 3.160 GM2: 0.249  GM3: 0.1495  RAES: 2.50
     3s    -29.278781    2.485265
     3p    -12.673758    2.199650
     3d     -0.240338    2.476089

           ------------------------------------------------- 
          |        Self-Consistent Charge Iterations        |
           ------------------------------------------------- 

          ...................................................
          :                      SETUP                      :
          :.................................................:
          :  # basis functions                  21          :
          :  # atomic orbitals                  20          :
          :  # shells                           10          :
          :  # electrons                        22          :
          :  max. iterations                   250          :
          :  Hamiltonian                  GFN2-xTB          :
          :  restarted?                      false          :
          :  GBSA solvation                  false          :
          :  PC potential                    false          :
          :  electronic temp.          300.0000000     K    :
          :  accuracy                    1.0000000          :
          :  -> integral cutoff          0.2500000E+02      :
          :  -> integral neglect         0.1000000E-07      :
          :  -> SCF convergence          0.1000000E-05 Eh   :
          :  -> wf. convergence          0.1000000E-03 e    :
          :  Broyden damping             0.4000000          :
          ...................................................

 iter      E             dE          RMSdq      gap      omega  full diag
   1    -13.1332221 -0.131332E+02  0.571E+00    5.36       0.0  T
   2    -13.1932924 -0.600704E-01  0.319E+00    2.57       1.0  T
   3    -13.1946033 -0.131082E-02  0.169E+00    1.72       1.0  T
   4    -13.1948899 -0.286671E-03  0.455E-01    0.65       1.0  T
   5    -13.1953447 -0.454717E-03  0.309E-01    0.85       1.0  T
   6    -13.1954836 -0.138903E-03  0.224E-01    0.87       1.0  T
   7    -13.1956513 -0.167778E-03  0.648E-02    0.82       1.0  T
   8    -13.1956593 -0.795056E-05  0.276E-02    0.81       1.5  T
   9    -13.1956623 -0.299799E-05  0.920E-04    0.84      44.4  T
  10    -13.1956623 -0.439472E-09  0.322E-04    0.84     126.6  T
  11    -13.1956623 -0.231919E-09  0.304E-05    0.84    1342.5  T

   *** convergence criteria satisfied after 11 iterations ***

         #    Occupation            Energy/Eh            Energy/eV
      -------------------------------------------------------------
         1        2.0000           -0.9323890             -25.3716
       ...           ...                  ...                  ...
         5        2.0000           -0.3646597              -9.9229
         6        2.0000           -0.3228434              -8.7850
         7        2.0000           -0.2905771              -7.9070
         8        2.0000           -0.2905660              -7.9067
         9        2.0000           -0.0640648              -1.7433
        10        2.0000           -0.0630404              -1.7154
        11        2.0000           -0.0630395              -1.7154 (HOMO)
        12        0.0000           -0.0322074              -0.8764 (LUMO)
        13                          0.1481824               4.0322
        14                          0.1481880               4.0324
        15                          0.1516702               4.1272
        16                          0.1516731               4.1272
       ...                                ...                  ...
        20                          0.3580341               9.7426
      -------------------------------------------------------------
                  HL-Gap            0.0308321 Eh            0.8390 eV
             Fermi-level           -0.0472198 Eh           -1.2849 eV

 SCC (total)                   0 d,  0 h,  0 min,  0.002 sec
 SCC setup                      ...        0 min,  0.000 sec (  3.100%)
 Dispersion                     ...        0 min,  0.000 sec (  0.838%)
 integral evaluation            ...        0 min,  0.000 sec ( 21.194%)
 zeroth order Hamiltonian       ...        0 min,  0.000 sec (  0.739%)
 iterations                     ...        0 min,  0.001 sec ( 49.702%)
 molecular gradient             ...        0 min,  0.000 sec ( 20.499%)
 printout                       ...        0 min,  0.000 sec (  3.001%)

         :::::::::::::::::::::::::::::::::::::::::::::::::::::
         ::                     SUMMARY                     ::
         :::::::::::::::::::::::::::::::::::::::::::::::::::::
         :: total energy              -4.216467925284 Eh    ::
         :: gradient norm             26.724371851551 Eh/a0 ::
         :: HOMO-LUMO gap              0.838985410710 eV    ::
         ::.................................................::
         :: SCC energy               -13.195662286919 Eh    ::
         :: -> isotropic ES            0.265434699854 Eh    ::
         :: -> anisotropic ES         -0.001738597073 Eh    ::
         :: -> anisotropic XC         -0.000154397645 Eh    ::
         :: -> dispersion             -0.001910291460 Eh    ::
         :: repulsion energy           0.057065752402 Eh    ::
         :: add. restraining           8.922129096845 Eh    ::
         :::::::::::::::::::::::::::::::::::::::::::::::::::::

      ----------------------------------------------------------- 
     |                   =====================                   |
     |                        A N C O P T                        |
     |                   =====================                   |
     |               Approximate Normal Coordinate               |
     |                Rational Function Optimizer                |
      ----------------------------------------------------------- 

          ...................................................
          :                      SETUP                      :
          :.................................................:
          :   optimization level            normal          :
          :   max. optcycles                   200          :
          :   ANC micro-cycles                  20          :
          :   degrees of freedom                12          :
          :.................................................:
          :   RF solver                   davidson          :
          :   write xtbopt.log                true          :
          :   linear?                        false          :
          :   energy convergence         0.5000000E-05 Eh   :
          :   grad. convergence          0.1000000E-02 Eh/α :
          :   maximium RF displ.         1.0000000          :
          :   Hlow (freq-cutoff)         0.1000000E-01      :
          :   Hmax (freq-cutoff)         5.0000000          :
          :   S6 in model hess.         20.0000000          :
          ...................................................

generating ANC from model Hessian ...
Using Lindh-Hessian (1995)
 Shifting diagonal of input Hessian by   0.000000000000000E+000
 Lowest  eigenvalues of input Hessian
   -0.000000   -0.000000   -0.000000   -0.000000    0.000000    0.000000
    0.064258    0.064265    0.107206    0.107219    0.126016    0.483015
    0.520898    0.520934    5.022227    5.022332   20.211022   60.871939
 Highest eigenvalues
    0.520898    0.520934    5.022227    5.022332   20.211022   60.871939
 

........................................................................
.............................. CYCLE    1 ..............................
........................................................................
   1    -13.1956623 -0.131957E+02  0.231E-05    0.84       0.0  T
   2    -13.1956623 -0.859757E-12  0.136E-05    0.84    2994.3  T
   3    -13.1956623 -0.117240E-12  0.110E-05    0.84    3708.4  T
     SCC iter.                  ...        0 min,  0.000 sec
     gradient                   ...        0 min,  0.000 sec
 * total energy  :    -4.2164679 Eh     change        0.1941256E-09 Eh
   gradient norm :    26.7243720 Eh/α   predicted     0.0000000E+00 (-100.00%)
   displ. norm   :     0.9108201 α      lambda       -0.2434109E+02
   maximum displ.:     0.7846001 α      in ANC's #9, #12, #6, ...

........................................................................
.............................. CYCLE    2 ..............................
........................................................................
   1    -12.4615553 -0.124616E+02  0.104E+01    0.29       0.0  T
   2    -13.0359834 -0.574428E+00  0.680E+00    5.80       1.0  T
   3    -13.1794610 -0.143478E+00  0.322E+00    4.25       1.0  T
   4    -13.1973953 -0.179343E-01  0.213E+00    3.35       1.0  T
   5    -13.1569481  0.404472E-01  0.296E+00    1.02       1.0  T
   6    -13.2132234 -0.562753E-01  0.792E-01    1.52       1.0  T
   7    -13.1860228  0.272006E-01  0.212E+00    1.15       1.0  T
   8    -13.2060692 -0.200463E-01  0.150E+00    2.84       1.0  T
   9    -13.1993571  0.671206E-02  0.194E+00    3.34       1.0  T
  10    -13.2023201 -0.296299E-02  0.173E+00    3.11       1.0  T
  11    -13.2101628 -0.784266E-02  0.110E+00    2.47       1.0  T
  12    -13.2154695 -0.530669E-02  0.426E-01    2.01       1.0  T
  13    -13.2162778 -0.808311E-03  0.197E-01    1.89       1.0  T
  14    -13.2164828 -0.205003E-03  0.582E-02    1.82       1.0  T
  15    -13.2165025 -0.196798E-04  0.403E-03    1.80      10.1  T
  16    -13.2165023  0.170456E-06  0.663E-03    1.79       6.2  T
  17    -13.2165026 -0.257141E-06  0.574E-04    1.80      71.1  T
  18    -13.2165026 -0.155834E-08  0.222E-04    1.80     183.8  T
     SCC iter.                  ...        0 min,  0.001 sec
     gradient                   ...        0 min,  0.000 sec
 * total energy  :    -7.8038390 Eh     change       -0.3587371E+01 Eh
   gradient norm :    24.5659097 Eh/α   predicted    -0.2226715E+02 ( 520.71%)
   displ. norm   :     0.6004761 α      lambda       -0.1186419E+02
   maximum displ.:     0.4315088 α      in ANC's #12, #9, #6, ...

........................................................................
.............................. CYCLE    3 ..............................
........................................................................
   1    -13.1999791 -0.132000E+02  0.223E+00    6.33       0.0  T
   2    -13.2037126 -0.373346E-02  0.144E+00    4.48       1.0  T
   3    -13.2061574 -0.244483E-02  0.700E-01    2.56       1.0  T
   4    -13.2065493 -0.391848E-03  0.526E-01    2.62       1.0  T
   5    -13.2071807 -0.631471E-03  0.286E-01    2.50       1.0  T
   6    -13.2074377 -0.256951E-03  0.722E-02    2.60       1.0  T
   7    -13.2074516 -0.139010E-04  0.247E-02    2.51       1.7  T
   8    -13.2074519 -0.283722E-06  0.421E-03    2.51       9.7  T
   9    -13.2074519 -0.159558E-07  0.182E-03    2.50      22.5  T
     SCC iter.                  ...        0 min,  0.001 sec
     gradient                   ...        0 min,  0.000 sec
 * total energy  :   -12.6279629 Eh     change       -0.4824124E+01 Eh
   gradient norm :     4.5509468 Eh/α   predicted    -0.8071035E+01 (  67.31%)
   displ. norm   :     0.4012351 α      lambda       -0.1742759E+01
   maximum displ.:     0.3957944 α      in ANC's #12, #9, #6, ...

........................................................................
.............................. CYCLE    4 ..............................
........................................................................
   1    -13.2049069 -0.132049E+02  0.790E-01    1.10       0.0  T
   2    -13.2068680 -0.196110E-02  0.616E-01    1.64       1.0  T
   3    -13.2072161 -0.348091E-03  0.440E-01    1.53       1.0  T
   4    -13.2074400 -0.223957E-03  0.208E-01    1.49       1.0  T
   5    -13.2075226 -0.826027E-04  0.159E-01    1.53       1.0  T
   6    -13.2076099 -0.872544E-04  0.375E-02    1.59       1.1  T
   7    -13.2076148 -0.490796E-05  0.864E-03    1.55       4.7  T
   8    -13.2076150 -0.267691E-06  0.140E-03    1.56      29.1  T
   9    -13.2076150 -0.457067E-09  0.795E-04    1.56      51.4  T
     SCC iter.                  ...        0 min,  0.001 sec
     gradient                   ...        0 min,  0.000 sec
 * total energy  :   -12.6922771 Eh     change       -0.6431421E-01 Eh
   gradient norm :     5.4496730 Eh/α   predicted    -0.1011663E+01 (1473.00%)
   displ. norm   :     0.1829631 α      lambda       -0.8766890E+00
   maximum displ.:     0.1627307 α      in ANC's #12, #9, #6, ...

........................................................................
.............................. CYCLE    5 ..............................
........................................................................
   1    -13.2068586 -0.132069E+02  0.211E-01    1.86       0.0  T
   2    -13.2069234 -0.647480E-04  0.111E-01    1.90       1.0  T
   3    -13.2069306 -0.722525E-05  0.686E-02    1.93       1.0  T
   4    -13.2069361 -0.549245E-05  0.410E-02    1.93       1.0  T
   5    -13.2069395 -0.341215E-05  0.281E-02    1.92       1.5  T
   6    -13.2069422 -0.272137E-05  0.179E-03    1.91      22.9  T
   7    -13.2069422 -0.192584E-08  0.728E-04    1.91      56.1  T
     SCC iter.                  ...        0 min,  0.000 sec
     gradient                   ...        0 min,  0.000 sec
 * total energy  :   -13.1371053 Eh     change       -0.4448282E+00 Eh
   gradient norm :     0.3375199 Eh/α   predicted    -0.4530183E+00 (   1.84%)
   displ. norm   :     0.1875649 α      lambda       -0.1022428E-01
   maximum displ.:     0.1714553 α      in ANC's #5, #6, #12, ...

........................................................................
.............................. CYCLE    6 ..............................
........................................................................
   1    -13.2058773 -0.132059E+02  0.308E-01    2.07       0.0  T
   2    -13.2059374 -0.601366E-04  0.189E-01    1.99       1.0  T
   3    -13.2059426 -0.518083E-05  0.594E-02    1.94       1.0  T
   4    -13.2059449 -0.231434E-05  0.258E-02    1.96       1.6  T
   5    -13.2059458 -0.857676E-06  0.189E-02    1.96       2.2  T
   6    -13.2059471 -0.130272E-05  0.193E-03    1.97      21.2  T
   7    -13.2059471 -0.721535E-08  0.836E-04    1.97      48.8  T
     SCC iter.                  ...        0 min,  0.001 sec
     gradient                   ...        0 min,  0.000 sec
 * total energy  :   -13.1434334 Eh     change       -0.6328120E-02 Eh
   gradient norm :     0.0521081 Eh/α   predicted    -0.5291994E-02 ( -16.37%)
   displ. norm   :     0.1184773 α      lambda       -0.1799877E-02
   maximum displ.:     0.1081788 α      in ANC's #5, #6, #8, ...

........................................................................
.............................. CYCLE    7 ..............................
........................................................................
   1    -13.2021690 -0.132022E+02  0.191E-01    1.99       0.0  T
   2    -13.2021919 -0.229550E-04  0.128E-01    1.99       1.0  T
   3    -13.2021942 -0.225188E-05  0.532E-02    1.97       1.0  T
   4    -13.2021961 -0.195743E-05  0.210E-02    1.97       1.9  T
   5    -13.2021968 -0.631415E-06  0.169E-02    1.98       2.4  T
   6    -13.2021978 -0.103892E-05  0.162E-03    1.98      25.2  T
   7    -13.2021978 -0.266085E-08  0.224E-04    1.98     182.4  T
     SCC iter.                  ...        0 min,  0.000 sec
     gradient                   ...        0 min,  0.000 sec
 * total energy  :   -13.1443407 Eh     change       -0.9073373E-03 Eh
   gradient norm :     0.0266792 Eh/α   predicted    -0.9125872E-03 (   0.58%)
   displ. norm   :     0.0019993 α      lambda       -0.2073839E-04
   maximum displ.:     0.0016942 α      in ANC's #5, #12, #6, ...

........................................................................
.............................. CYCLE    8 ..............................
........................................................................
   1    -13.2022609 -0.132023E+02  0.413E-03    1.98       0.0  T
   2    -13.2022609 -0.283112E-07  0.229E-03    1.98      17.8  T
   3    -13.2022609 -0.235309E-08  0.108E-03    1.98      37.9  T
     SCC iter.                  ...        0 min,  0.000 sec
     gradient                   ...        0 min,  0.000 sec
 * total energy  :   -13.1443518 Eh     change       -0.1105763E-04 Eh
   gradient norm :     0.0016513 Eh/α   predicted    -0.1036794E-04 (  -6.24%)
   displ. norm   :     0.0002564 α      lambda       -0.1033330E-06
   maximum displ.:     0.0001791 α      in ANC's #1, #6, #12, ...

........................................................................
.............................. CYCLE    9 ..............................
........................................................................
   1    -13.2022441 -0.132022E+02  0.676E-04    1.98       0.0  T
   2    -13.2022441 -0.348210E-09  0.473E-04    1.98      86.2  T
   3    -13.2022441 -0.262762E-09  0.320E-04    1.98     127.4  T
     SCC iter.                  ...        0 min,  0.000 sec
     gradient                   ...        0 min,  0.001 sec
 * total energy  :   -13.1443518 Eh     change       -0.3782091E-07 Eh
   gradient norm :     0.0008231 Eh/α   predicted    -0.5177150E-07 (  36.89%)
   displ. norm   :     0.0000720 α      lambda       -0.1563278E-07
   maximum displ.:     0.0000490 α      in ANC's #1, #6, #12, ...

   *** GEOMETRY OPTIMIZATION CONVERGED AFTER 9 ITERATIONS ***

------------------------------------------------------------------------
 total energy gain   :        -8.9278839 Eh    -5602.3317 kcal/mol
 total RMSD          :         0.3485817 a0        0.1845 Å
 total power (kW/mol):     -2604.4617738 (step)********** (real)
------------------------------------------------------------------------

 ANCopt (total)                0 d,  0 h,  0 min,  0.016 sec
 optimizer setup                ...        0 min,  0.000 sec (  0.365%)
 model hessian                  ...        0 min,  0.000 sec (  0.700%)
 ANC generation                 ...        0 min,  0.000 sec (  0.411%)
 coordinate transformation      ...        0 min,  0.000 sec (  0.255%)
 single point calculation       ...        0 min,  0.014 sec ( 88.356%)
 optimization log               ...        0 min,  0.000 sec (  1.409%)
 hessian update                 ...        0 min,  0.001 sec (  3.641%)
 rational function              ...        0 min,  0.000 sec (  3.083%)

================
 final structure:
================
6
 xtb: 6.2.3 (830e466)
F        -2.89259194980001   -0.16833113601827    0.05397155754644
Cl        1.37956108493725    0.08258666946747   -0.02112253883296
C        -0.39736515066862   -0.02310899794884    0.00731059982002
H        -0.72453491332630   -0.60209753140134   -0.84558216593044
H        -0.70214782010998   -0.50624745954376    0.92565576833717
H        -0.80582125103233    0.97711845544474   -0.04152322094023
 
 Bond Distances (Angstroems)
 ---------------------------
Cl2-C3=1.7803        C3-Cl2=1.7803        C3-H4=1.0815         C3-H5=1.0815         C3-H6=1.0815         H4-C3=1.0815         
H5-C3=1.0815         H6-C3=1.0815         
 C  H  Rav=1.0815 sigma=0.0000  Rmin=1.0815  Rmax=1.0815     3
 Cl C  Rav=1.7803 sigma=0.0000  Rmin=1.7803  Rmax=1.7803     1
 
 selected bond angles (degree)
 --------------------
H4-C3-Cl2=108.73               H5-C3-Cl2=108.75               H5-C3-H4=110.20                H6-C3-Cl2=108.74               
H6-C3-H4=110.20                H6-C3-H5=110.19                
 
 selected dihedral angles (degree)
 ---------------------------------

 
 CMA Distance (Angstroems)
 ---------------------------
R(CMA):  3.7292
           -------------------------------------------------
          |                Final Singlepoint                |
           -------------------------------------------------

          ...................................................
          :                      SETUP                      :
          :.................................................:
          :  # basis functions                  21          :
          :  # atomic orbitals                  20          :
          :  # shells                           10          :
          :  # electrons                        22          :
          :  max. iterations                   250          :
          :  Hamiltonian                  GFN2-xTB          :
          :  restarted?                      false          :
          :  GBSA solvation                  false          :
          :  PC potential                    false          :
          :  electronic temp.          300.0000000     K    :
          :  accuracy                    1.0000000          :
          :  -> integral cutoff          0.2500000E+02      :
          :  -> integral neglect         0.1000000E-07      :
          :  -> SCF convergence          0.1000000E-05 Eh   :
          :  -> wf. convergence          0.1000000E-03 e    :
          :  Broyden damping             0.4000000          :
          ...................................................

 iter      E             dE          RMSdq      gap      omega  full diag
   1    -13.2022441 -0.132022E+02  0.211E-04    1.98       0.0  T
   2    -13.2022441 -0.401776E-10  0.182E-04    1.98     224.2  T
   3    -13.2022441 -0.788489E-10  0.102E-04    1.98     401.3  T

   *** convergence criteria satisfied after 3 iterations ***

         #    Occupation            Energy/Eh            Energy/eV
      -------------------------------------------------------------
         1        2.0000           -0.9148371             -24.8940
       ...           ...                  ...                  ...
         5        2.0000           -0.3457754              -9.4090
         6        2.0000           -0.3355325              -9.1303
         7        2.0000           -0.2720836              -7.4038
         8        2.0000           -0.2720718              -7.4035
         9        2.0000           -0.0836425              -2.2760
        10        2.0000           -0.0819011              -2.2286
        11        2.0000           -0.0818997              -2.2286 (HOMO)
        12                         -0.0091935              -0.2502 (LUMO)
        13                          0.1693296               4.6077
        14                          0.1693342               4.6078
        15                          0.1720961               4.6830
        16                          0.1720997               4.6831
       ...                                ...                  ...
        20                          0.3858737              10.5002
      -------------------------------------------------------------
                  HL-Gap            0.0727062 Eh            1.9784 eV
             Fermi-level           -0.0455466 Eh           -1.2394 eV

 SCC (total)                   0 d,  0 h,  0 min,  0.002 sec
 SCC setup                      ...        0 min,  0.000 sec (  3.136%)
 Dispersion                     ...        0 min,  0.000 sec (  0.457%)
 integral evaluation            ...        0 min,  0.000 sec ( 26.248%)
 zeroth order Hamiltonian       ...        0 min,  0.000 sec (  0.898%)
 iterations                     ...        0 min,  0.000 sec ( 17.494%)
 molecular gradient             ...        0 min,  0.001 sec ( 47.518%)
 printout                       ...        0 min,  0.000 sec (  3.136%)

         :::::::::::::::::::::::::::::::::::::::::::::::::::::
         ::                     SUMMARY                     ::
         :::::::::::::::::::::::::::::::::::::::::::::::::::::
         :: total energy             -13.144351821731 Eh    ::
         :: gradient norm              0.000818569822 Eh/a0 ::
         :: HOMO-LUMO gap              1.978436454404 eV    ::
         ::.................................................::
         :: SCC energy               -13.202244085447 Eh    ::
         :: -> isotropic ES            0.250208168811 Eh    ::
         :: -> anisotropic ES         -0.003118389146 Eh    ::
         :: -> anisotropic XC         -0.002371681350 Eh    ::
         :: -> dispersion             -0.002049025141 Eh    ::
         :: repulsion energy           0.057888883856 Eh    ::
         :: add. restraining           0.000003562271 Eh    ::
         :::::::::::::::::::::::::::::::::::::::::::::::::::::

           -------------------------------------------------
          |                Property Printout                |
           -------------------------------------------------

    * Orbital Energies and Occupations

         #    Occupation            Energy/Eh            Energy/eV
      -------------------------------------------------------------
         1        2.0000           -0.9148371             -24.8940
         2        2.0000           -0.4437951             -12.0763
         3        2.0000           -0.3506676              -9.5421
         4        2.0000           -0.3458409              -9.4108
         5        2.0000           -0.3457754              -9.4090
         6        2.0000           -0.3355325              -9.1303
         7        2.0000           -0.2720836              -7.4038
         8        2.0000           -0.2720718              -7.4035
         9        2.0000           -0.0836425              -2.2760
        10        2.0000           -0.0819011              -2.2286
        11        2.0000           -0.0818997              -2.2286 (HOMO)
        12                         -0.0091935              -0.2502 (LUMO)
        13                          0.1693296               4.6077
        14                          0.1693342               4.6078
        15                          0.1720961               4.6830
        16                          0.1720997               4.6831
        17                          0.2892569               7.8711
        18                          0.3345169               9.1027
        19                          0.3858240              10.4988
        20                          0.3858737              10.5002
      -------------------------------------------------------------
                  HL-Gap            0.0727062 Eh            1.9784 eV
             Fermi-level           -0.0455466 Eh           -1.2394 eV

     #   Z        covCN         q      C6AA      α(0)
     1   9 F      0.000    -0.930    22.954     5.580
     2  17 Cl     0.888    -0.323   109.488    16.008
     3   6 C      3.664     0.021    20.477     6.490
     4   1 H      0.926     0.077     2.013     2.219
     5   1 H      0.926     0.077     2.007     2.216
     6   1 H      0.926     0.077     2.008     2.216

 Mol. C6AA /au·bohr⁶  :        570.504166
 Mol. C8AA /au·bohr⁸  :      15849.003715
 Mol. α(0) /au        :         34.728521


Wiberg/Mayer (AO) data.
largest (>0.10) Wiberg bond orders for each atom
          total WBO             WBO to atom ...
     1  F   0.135
     2  Cl  0.945        C    3 0.868
     3  C   3.901        H    4 0.986    H    6 0.986    H    5 0.986    Cl   2 0.868
     4  H   0.994        C    3 0.986
     5  H   0.994        C    3 0.986
     6  H   0.994        C    3 0.986

molecular dipole:
                 x           y           z       tot (Debye)
 q only:        3.902       0.226      -0.075
   full:        3.443       0.199      -0.068       8.766
molecular quadrupole (traceless):
                xx          xy          yy          xz          yz          zz
 q only:      -29.889      -2.621      14.876       0.825       0.047      15.013
  q+dip:      -33.317      -2.927      16.582       0.908       0.052      16.736
   full:      -32.235      -2.830      16.043       0.882       0.051      16.192

           -------------------------------------------------
          |                Geometry Summary                 |
           -------------------------------------------------

      molecular mass/u    :       69.4858989
   center of mass at/Å    :       -0.1880671      -0.0097848       0.0058023
  moments of inertia/u·Å² :        0.3171963E+01   0.2299896E+03   0.2299900E+03
rotational constants/cm⁻¹ :        0.5314574E+01   0.7329736E-01   0.7329723E-01

 * 4 selected distances

     #   Z        #   Z                                     value/Å
     2  17 Cl     3   6 C                                 1.7802940 (max)
     3   6 C      4   1 H                                 1.0815239
     3   6 C      5   1 H                                 1.0815143 (min)
     3   6 C      6   1 H                                 1.0815156

 * 2 distinct bonds (by element types)

   Z      Z             #   av. dist./Å        max./Å        min./Å
   1 H    6 C           3     1.0815179     1.0815239     1.0815143
   6 C   17 Cl          1     1.7802940     1.7802940     1.7802940


optimized geometry written to: xtbopt.xyz


           -------------------------------------------------
          | TOTAL ENERGY              -13.144351821731 Eh   |
          | GRADIENT NORM               0.000818569822 Eh/α |
          | HOMO-LUMO GAP               1.978436454404 eV   |
           -------------------------------------------------

------------------------------------------------------------------------
 * finished run on 2020/04/08 at 13:05:34.643     
------------------------------------------------------------------------
 total:
 * wall-time:     0 d,  0 h,  0 min,  0.037 sec
 *  cpu-time:     0 d,  0 h,  0 min,  0.046 sec
 * ratio c/w:     1.241 speedup
 SCF:
 * wall-time:     0 d,  0 h,  0 min,  0.002 sec
 *  cpu-time:     0 d,  0 h,  0 min,  0.004 sec
 * ratio c/w:     1.616 speedup
 ANC optimizer:
 * wall-time:     0 d,  0 h,  0 min,  0.018 sec
 *  cpu-time:     0 d,  0 h,  0 min,  0.028 sec
 * ratio c/w:     1.608 speedup

