      -----------------------------------------------------------      
     |                   =====================                   |     
     |                           x T B                           |     
     |                   =====================                   |     
     |                         S. Grimme                         |     
     |          Mulliken Center for Theoretical Chemistry        |     
     |                    University of Bonn                     |     
      -----------------------------------------------------------      

   * xtb version 6.2.3 (830e466) compiled by 'ehlert@majestix' on 2020-03-16

   xtb is free software: you can redistribute it and/or modify it under
   the terms of the GNU Lesser General Public License as published by
   the Free Software Foundation, either version 3 of the License, or
   (at your option) any later version.
   
   xtb is distributed in the hope that it will be useful,
   but WITHOUT ANY WARRANTY; without even the implied warranty of
   MERCHANTABILITY or FITNESS FOR A PARTICULAR PURPOSE.  See the
   GNU Lesser General Public License for more details.
   
   Cite this work as:
   * S. Grimme, C. Bannwarth, P. Shushkov, J. Chem. Theory Comput., 2017,
     13, 1989-2009. DOI: 10.1021/acs.jctc.7b00118
   * C. Bannwarth, S. Ehlert and S. Grimme., J. Chem. Theory Comput., 2019,
     15, 1652-1671. DOI: 10.1021/acs.jctc.8b01176
   * P. Pracht, E. Caldeweyher, S. Ehlert, S. Grimme, ChemRxiv, 2019, preprint.
     DOI: 10.26434/chemrxiv.8326202.v1
   
   for DFT-D4:
   * E. Caldeweyher, C. Bannwarth and S. Grimme, J. Chem. Phys., 2017,
     147, 034112. DOI: 10.1063/1.4993215
   * E. Caldeweyher, S. Ehlert, A. Hansen, H. Neugebauer, S. Spicher,
     C. Bannwarth and S. Grimme, J. Chem. Phys., 2019, 150, 154122.
     DOI: 10.1063/1.5090222
   
   for sTDA-xTB:
   * S. Grimme and C. Bannwarth, J. Chem. Phys., 2016, 145, 054103.
     DOI: 10.1063/1.4959605
   
   in the mass-spec context:
   * V. Asgeirsson, C. Bauer and S. Grimme, Chem. Sci., 2017, 8, 4879.
     DOI: 10.1039/c7sc00601b
   
   for metadynamics refer to:
   * S. Grimme, J. Chem. Theory Comput., 2019, 155, 2847-2862
     DOI: 10.1021/acs.jctc.9b00143
   
   with help from (in alphabetical order)
   C. Bannwarth, F. Bohle, G. Brandenburg, E. Caldeweyher, M. Checinski,
   S. Dohm, S. Ehlert, S. Ehrlich, F. März, H. Neugebauer, J. Pisarek,
   P. Pracht, P. Shushkov, and S. Spicher.
   
 * started run on 2020/04/08 at 13:05:35.657     

           -------------------------------------------------
          |                Calculation Setup                |
           -------------------------------------------------

          program call               : /home/tom/.local/bin/xtb SN2_PES_scan_0-4_xtb.xyz --chrg -1 --opt --input xcontrol_SN2_PES_scan_0-4
          coordinate file            : SN2_PES_scan_0-4_xtb.xyz
          omp threads                :                     1
          number of atoms            :                     6
          number of electrons        :                    22
          charge                     :                    -1
          spin                       :                   0.0
          first test random number   :      0.38112628711189

constraining bond 1 3 to    4.0000000 Å, actual value:    4.0000086 Å
constraining bond 2 3 to    3.5560000 Å, actual value:    3.1115617 Å

molecular fragmentation (1/2 indicates fragments):
122222
# atoms in fragment 1/2:     1     5
 fragment masses (1/2) :       19.00       50.49
CMA distance (Bohr)    :  11.688
constraining FC (au)   : 10.0000
########################################################################
[WARNING] Please study the warnings concerning your input carefully
-2- prog_main: XTBPATH is not set, using XTBHOME instead
-1- prog_main: XTBHOME is not set, using HOME instead
########################################################################
           ------------------------------------------------- 
          |                 G F N 2 - x T B                 |
          | Geometry, Frequencies, Noncovalent interactions |
          |            JCTC 2019 parametrisation            |
           ------------------------------------------------- 
             k(s)              :                1.8500
             k(p)              :                2.2300
             k(d)              :                2.2300
             k(f)              :                2.0000
             kEN (H0ij)        :               -2.0000
             D4 a1             :                0.5200
             D4 a2             :                5.0000
             D4 s6             :                1.0000
             D4 s8             :                2.7000
             D4 s9             :                5.0000
             alphaj            :                2.0000

  Z AO/shell   Hii/eV     exponent
  1     Wed Apr 25 08:07:45 CEST 2018   EN: 2.200 GM2: 0.406  GM3: 0.0800  RAES: 1.40
     1s    -10.707211    1.230000
  6     Wed Apr 25 08:07:45 CEST 2018   EN: 2.550 GM2: 0.538  GM3: 0.1500  RAES: 3.00
     2s    -13.970922    2.096432
     2p    -10.063292    1.800000
  9     Mon Apr 23 13:58:50 CEST 2018   EN: 3.980 GM2: 0.532  GM3: 0.1426  RAES: 2.40
     2s    -23.458179    2.416361
     2p    -15.746583    2.308399
 17     Mon Apr 23 14:09:22 CEST 2018   EN: 3.160 GM2: 0.249  GM3: 0.1495  RAES: 2.50
     3s    -29.278781    2.485265
     3p    -12.673758    2.199650
     3d     -0.240338    2.476089

           ------------------------------------------------- 
          |        Self-Consistent Charge Iterations        |
           ------------------------------------------------- 

          ...................................................
          :                      SETUP                      :
          :.................................................:
          :  # basis functions                  21          :
          :  # atomic orbitals                  20          :
          :  # shells                           10          :
          :  # electrons                        22          :
          :  max. iterations                   250          :
          :  Hamiltonian                  GFN2-xTB          :
          :  restarted?                      false          :
          :  GBSA solvation                  false          :
          :  PC potential                    false          :
          :  electronic temp.          300.0000000     K    :
          :  accuracy                    1.0000000          :
          :  -> integral cutoff          0.2500000E+02      :
          :  -> integral neglect         0.1000000E-07      :
          :  -> SCF convergence          0.1000000E-05 Eh   :
          :  -> wf. convergence          0.1000000E-03 e    :
          :  Broyden damping             0.4000000          :
          ...................................................

 iter      E             dE          RMSdq      gap      omega  full diag
   1    -12.8262914 -0.128263E+02  0.103E+01    1.24       0.0  T
   2    -12.0831590  0.743132E+00  0.105E+01    0.00       1.0  T
   3    -13.0597150 -0.976556E+00  0.487E+00    0.43       1.0  T
   4    -13.0020748  0.576402E-01  0.519E+00    0.73       1.0  T
   5    -12.6049114  0.397163E+00  0.102E+01    0.06       1.0  T
   6    -12.6056861 -0.774694E-03  0.102E+01    0.06       1.0  T
   7    -12.1765964  0.429090E+00  0.105E+01    0.00       1.0  T
   8    -12.3387009 -0.162105E+00  0.880E+00    0.00       1.0  T
   9    -12.1946591  0.144042E+00  0.972E+00    0.00       1.0  T
  10    -12.1946096  0.495004E-04  0.975E+00    0.00       1.0  T
  11    -12.1919759  0.263363E-02  0.991E+00    0.00       1.0  T
  12    -12.1941522 -0.217632E-02  0.977E+00    0.00       1.0  T
  13    -13.0322831 -0.838131E+00  0.450E+00    0.58       1.0  T
  14    -13.0235902  0.869291E-02  0.430E+00    0.63       1.0  T
  15    -13.0225813  0.100882E-02  0.436E+00    0.63       1.0  T
  16    -13.0167808  0.580059E-02  0.426E+00    0.67       1.0  T
  17    -13.0231170 -0.633620E-02  0.395E+00    0.65       1.0  T
  18    -13.0309759 -0.785892E-02  0.366E+00    0.62       1.0  T
  19    -12.5407438  0.490232E+00  0.754E+00    0.00       1.0  T
  20    -13.0284893 -0.487746E+00  0.414E+00    0.61       1.0  T
  21    -13.0399924 -0.115031E-01  0.348E+00    0.58       1.0  T
  22    -13.0493342 -0.934184E-02  0.300E+00    0.42       1.0  T
  23    -12.1879085  0.861426E+00  0.990E+00    0.00       1.0  T
  24    -13.0350688 -0.847160E+00  0.416E+00    0.58       1.0  T
  25    -13.0492780 -0.142093E-01  0.324E+00    0.53       1.0  T
  26    -12.1906585  0.858620E+00  0.970E+00    0.00       1.0  T
  27    -13.0232334 -0.832575E+00  0.477E+00    0.62       1.0  T
  28    -13.0534533 -0.302200E-01  0.321E+00    0.51       1.0  T
  29    -12.1969662  0.856487E+00  0.947E+00    0.00       1.0  T
  30    -13.0180392 -0.821073E+00  0.504E+00    0.63       1.0  T
  31    -13.0535818 -0.355427E-01  0.330E+00    0.51       1.0  T
  32    -13.0587816 -0.519972E-02  0.282E+00    0.49       1.0  T
  33    -12.1935358  0.865246E+00  0.953E+00    0.00       1.0  T
  34    -13.0200581 -0.826522E+00  0.497E+00    0.62       1.0  T
  35    -13.0537563 -0.336982E-01  0.327E+00    0.51       1.0  T
  36    -13.0585520 -0.479566E-02  0.281E+00    0.48       1.0  T
  37    -12.1931266  0.865425E+00  0.956E+00    0.00       1.0  T
  38    -13.0191845 -0.826058E+00  0.498E+00    0.62       1.0  T
  39    -13.0537494 -0.345649E-01  0.324E+00    0.50       1.0  T
  40    -13.0591102 -0.536088E-02  0.276E+00    0.38       1.0  T
  41    -12.1919832  0.867127E+00  0.963E+00    0.00       1.0  T
  42    -13.0202689 -0.828286E+00  0.491E+00    0.62       1.0  T
  43    -13.0536533 -0.333844E-01  0.321E+00    0.50       1.0  T
  44    -13.0752759 -0.216227E-01  0.237E+00    0.21       1.0  T
  45    -12.1919057  0.883370E+00  0.965E+00    0.00       1.0  T
  46    -13.0200265 -0.828121E+00  0.490E+00    0.62       1.0  T
  47    -13.0536065 -0.335799E-01  0.319E+00    0.50       1.0  T
  48    -13.1127682 -0.591618E-01  0.130E+00    0.14       1.0  T
  49    -12.9406903  0.172078E+00  0.432E+00    0.03       1.0  T
  50    -13.0409451 -0.100255E+00  0.388E+00    0.55       1.0  T
  51    -13.0560292 -0.150842E-01  0.283E+00    0.46       1.0  T
  52    -12.1902479  0.865781E+00  0.976E+00    0.00       1.0  T
  53    -13.0289906 -0.838743E+00  0.447E+00    0.59       1.0  T
  54    -13.0537427 -0.247522E-01  0.309E+00    0.51       1.0  T
  55    -12.2147735  0.838969E+00  0.939E+00    0.00       1.0  T
  56    -13.0146258 -0.799852E+00  0.507E+00    0.64       1.0  T
  57    -13.0533950 -0.387692E-01  0.319E+00    0.50       1.0  T
  58    -13.0589545 -0.555955E-02  0.273E+00    0.34       1.0  T
  59    -12.1910116  0.867943E+00  0.972E+00    0.00       1.0  T
  60    -13.0240667 -0.833055E+00  0.470E+00    0.61       1.0  T
  61    -13.0528745 -0.288078E-01  0.319E+00    0.51       1.0  T
  62    -13.1098602 -0.569856E-01  0.140E+00    0.07       1.0  T
  63    -13.0509128  0.589474E-01  0.323E+00    0.52       1.0  T
  64    -12.1936417  0.857271E+00  0.957E+00    0.00       1.0  T
  65    -13.0178241 -0.824182E+00  0.490E+00    0.63       1.0  T
  66    -13.0533490 -0.355249E-01  0.314E+00    0.51       1.0  T
  67    -13.1235469 -0.701979E-01  0.751E-01    0.08       1.0  T
  68    -13.0530054  0.705415E-01  0.306E+00    0.51       1.0  T
  69    -12.1925553  0.860450E+00  0.963E+00    0.00       1.0  T
  70    -13.0250002 -0.832445E+00  0.460E+00    0.61       1.0  T
  71    -13.0529975 -0.279974E-01  0.312E+00    0.51       1.0  T
  72    -13.0685640 -0.155664E-01  0.246E+00    0.05       1.0  T
  73    -13.0482354  0.203286E-01  0.340E+00    0.53       1.0  T
  74    -12.8639267  0.184309E+00  0.511E+00    0.02       1.0  T
  75    -13.0391253 -0.175199E+00  0.391E+00    0.56       1.0  T
  76    -13.0550292 -0.159038E-01  0.286E+00    0.50       1.0  T
  77    -12.1912236  0.863806E+00  0.971E+00    0.00       1.0  T
  78    -13.0326137 -0.841390E+00  0.427E+00    0.58       1.0  T
  79    -13.0529001 -0.202864E-01  0.311E+00    0.51       1.0  T
  80    -12.9028864  0.150014E+00  0.473E+00    0.02       1.0  T
  81    -13.0409725 -0.138086E+00  0.385E+00    0.55       1.0  T
  82    -13.0547085 -0.137360E-01  0.290E+00    0.50       1.0  T
  83    -12.1918484  0.862860E+00  0.967E+00    0.00       1.0  T
  84    -13.0307573 -0.838909E+00  0.437E+00    0.59       1.0  T
  85    -13.0527853 -0.220280E-01  0.313E+00    0.51       1.0  T
  86    -13.1286272 -0.758419E-01  0.192E-01    0.10       1.0  T
  87    -13.0558828  0.727443E-01  0.282E+00    0.44       1.0  T
  88    -12.1908231  0.865060E+00  0.974E+00    0.00       1.0  T
  89    -13.0359303 -0.845107E+00  0.411E+00    0.57       1.0  T
  90    -13.0529387 -0.170085E-01  0.309E+00    0.51       1.0  T
  91    -12.5645683  0.488370E+00  0.741E+00    0.00       1.0  T
  92    -13.0305473 -0.465979E+00  0.437E+00    0.59       1.0  T
  93    -13.0529812 -0.224338E-01  0.309E+00    0.51       1.0  T
  94    -12.6151721  0.437809E+00  0.708E+00    0.00       1.0  T
  95    -13.0323037 -0.417132E+00  0.429E+00    0.58       1.0  T
  96    -13.0531011 -0.207974E-01  0.307E+00    0.51       1.0  T
  97    -12.2616946  0.791406E+00  0.915E+00    0.00       1.0  T
  98    -13.0236828 -0.761988E+00  0.468E+00    0.61       1.0  T
  99    -13.0524715 -0.287887E-01  0.317E+00    0.51       1.0  T
 100    -13.0578586 -0.538707E-02  0.275E+00    0.34       1.0  T
 101    -12.1912700  0.866589E+00  0.971E+00    0.00       1.0  T
 102    -13.0328496 -0.841580E+00  0.428E+00    0.58       1.0  T
 103    -13.0522060 -0.193564E-01  0.317E+00    0.51       1.0  T
 104    -13.0951184 -0.429124E-01  0.187E+00    0.16       1.0  T
 105    -12.1926267  0.902492E+00  0.963E+00    0.00       1.0  T
 106    -13.0276389 -0.835012E+00  0.452E+00    0.60       1.0  T
 107    -13.0524102 -0.247713E-01  0.317E+00    0.51       1.0  T
 108    -13.0781286 -0.257184E-01  0.230E+00    0.20       1.0  T
 109    -12.1914354  0.886693E+00  0.970E+00    0.00       1.0  T
 110    -13.0311582 -0.839723E+00  0.436E+00    0.59       1.0  T
 111    -13.0522352 -0.210769E-01  0.317E+00    0.51       1.0  T
 112    -13.1013283 -0.490931E-01  0.168E+00    0.15       1.0  T
 113    -12.1930140  0.908314E+00  0.961E+00    0.00       1.0  T
 114    -13.0253123 -0.832298E+00  0.462E+00    0.61       1.0  T
 115    -13.0524993 -0.271870E-01  0.317E+00    0.51       1.0  T
 116    -13.0749691 -0.224698E-01  0.237E+00    0.21       1.0  T
 117    -12.1911175  0.883852E+00  0.972E+00    0.00       1.0  T
 118    -13.0313726 -0.840255E+00  0.436E+00    0.59       1.0  T
 119    -13.0521444 -0.207718E-01  0.318E+00    0.51       1.0  T
 120    -13.1082520 -0.561076E-01  0.146E+00    0.14       1.0  T
 121    -12.1936096  0.914642E+00  0.957E+00    0.00       1.0  T
 122    -13.0223207 -0.828711E+00  0.475E+00    0.62       1.0  T
 123    -13.0526493 -0.303286E-01  0.317E+00    0.51       1.0  T
 124    -13.0721040 -0.194547E-01  0.243E+00    0.22       1.0  T
 125    -12.1908512  0.881253E+00  0.974E+00    0.00       1.0  T
 126    -13.0314411 -0.840590E+00  0.436E+00    0.59       1.0  T
 127    -13.0520193 -0.205783E-01  0.320E+00    0.51       1.0  T
 128    -13.1127786 -0.607593E-01  0.129E+00    0.14       1.0  T
 129    -12.1941446  0.918634E+00  0.955E+00    0.00       1.0  T
 130    -13.0197907 -0.825646E+00  0.485E+00    0.62       1.0  T
 131    -13.0527686 -0.329779E-01  0.318E+00    0.51       1.0  T
 132    -13.0719924 -0.192238E-01  0.243E+00    0.22       1.0  T
 133    -12.1907340  0.881258E+00  0.975E+00    0.00       1.0  T
 134    -13.0310764 -0.840342E+00  0.438E+00    0.59       1.0  T
 135    -13.0518938 -0.208174E-01  0.321E+00    0.51       1.0  T
 136    -13.1131444 -0.612506E-01  0.127E+00    0.13       1.0  T
 137    -12.1940162  0.919128E+00  0.956E+00    0.00       1.0  T
 138    -13.0191177 -0.825102E+00  0.489E+00    0.63       1.0  T
 139    -13.0527611 -0.336434E-01  0.318E+00    0.51       1.0  T
 140    -13.0754603 -0.226992E-01  0.236E+00    0.21       1.0  T
 141    -12.1907802  0.884680E+00  0.974E+00    0.00       1.0  T
 142    -13.0303085 -0.839528E+00  0.442E+00    0.59       1.0  T
 143    -13.0518158 -0.215072E-01  0.322E+00    0.51       1.0  T
 144    -13.1101202 -0.583044E-01  0.139E+00    0.14       1.0  T
 145    -12.1934052  0.916715E+00  0.959E+00    0.00       1.0  T
 146    -13.0202597 -0.826855E+00  0.485E+00    0.62       1.0  T
 147    -13.0526240 -0.323643E-01  0.319E+00    0.51       1.0  T
 148    -13.0817348 -0.291108E-01  0.221E+00    0.19       1.0  T
 149    -12.1910030  0.890732E+00  0.973E+00    0.00       1.0  T
 150    -13.0290684 -0.838065E+00  0.448E+00    0.59       1.0  T
 151    -13.0518174 -0.227489E-01  0.322E+00    0.51       1.0  T
 152    -13.1044000 -0.525827E-01  0.159E+00    0.15       1.0  T
 153    -12.1926341  0.911766E+00  0.963E+00    0.00       1.0  T
 154    -13.0226030 -0.829969E+00  0.475E+00    0.62       1.0  T
 155    -13.0523849 -0.297819E-01  0.320E+00    0.51       1.0  T
 156    -13.0896287 -0.372438E-01  0.201E+00    0.17       1.0  T
 157    -12.1914004  0.898228E+00  0.971E+00    0.00       1.0  T
 158    -13.0272473 -0.835847E+00  0.456E+00    0.60       1.0  T
 159    -13.0519182 -0.246709E-01  0.322E+00    0.51       1.0  T
 160    -13.0981611 -0.462429E-01  0.178E+00    0.16       1.0  T
 161    -12.1919592  0.906202E+00  0.967E+00    0.00       1.0  T
 162    -13.0248810 -0.832922E+00  0.466E+00    0.61       1.0  T
 163    -13.0521465 -0.272655E-01  0.321E+00    0.51       1.0  T
 164    -13.0959683 -0.438218E-01  0.184E+00    0.16       1.0  T
 165    -12.1917798  0.904189E+00  0.968E+00    0.00       1.0  T
 166    -13.0254609 -0.833681E+00  0.464E+00    0.61       1.0  T
 167    -13.0520590 -0.265982E-01  0.322E+00    0.51       1.0  T
 168    -13.0951028 -0.430437E-01  0.187E+00    0.16       1.0  T
 169    -12.1916469  0.903456E+00  0.969E+00    0.00       1.0  T
 170    -13.0258170 -0.834170E+00  0.463E+00    0.60       1.0  T
 171    -13.0520170 -0.262001E-01  0.322E+00    0.51       1.0  T
 172    -13.0973590 -0.453420E-01  0.180E+00    0.16       1.0  T
 173    -12.1918032  0.905556E+00  0.968E+00    0.00       1.0  T
 174    -13.0250431 -0.833240E+00  0.466E+00    0.61       1.0  T
 175    -13.0520794 -0.270363E-01  0.322E+00    0.51       1.0  T
 176    -13.0963152 -0.442358E-01  0.183E+00    0.16       1.0  T
 177    -12.1916928  0.904622E+00  0.969E+00    0.00       1.0  T
 178    -13.0253401 -0.833647E+00  0.465E+00    0.61       1.0  T
 179    -13.0520264 -0.266863E-01  0.322E+00    0.51       1.0  T
 180    -13.0963850 -0.443586E-01  0.183E+00    0.16       1.0  T
 181    -12.1916545  0.904730E+00  0.969E+00    0.00       1.0  T
 182    -13.0253386 -0.833684E+00  0.465E+00    0.61       1.0  T
 183    -13.0520146 -0.266760E-01  0.322E+00    0.51       1.0  T
 184    -13.0973599 -0.453453E-01  0.180E+00    0.16       1.0  T
 185    -12.1917106  0.905649E+00  0.969E+00    0.00       1.0  T
 186    -13.0249682 -0.833258E+00  0.467E+00    0.61       1.0  T
 187    -13.0520385 -0.270703E-01  0.322E+00    0.51       1.0  T
 188    -13.0972371 -0.451985E-01  0.181E+00    0.16       1.0  T
 189    -12.1916776  0.905559E+00  0.969E+00    0.00       1.0  T
 190    -13.0249655 -0.833288E+00  0.467E+00    0.61       1.0  T
 191    -13.0520195 -0.270540E-01  0.322E+00    0.51       1.0  T
 192    -13.0971400 -0.451205E-01  0.181E+00    0.16       1.0  T
 193    -12.1916366  0.905503E+00  0.969E+00    0.00       1.0  T
 194    -13.0249940 -0.833357E+00  0.467E+00    0.61       1.0  T
 195    -13.0520017 -0.270077E-01  0.323E+00    0.51       1.0  T
 196    -13.0976752 -0.456735E-01  0.179E+00    0.16       1.0  T
 197    -12.1916555  0.906020E+00  0.969E+00    0.00       1.0  T
 198    -13.0247828 -0.833127E+00  0.468E+00    0.61       1.0  T
 199    -13.0520120 -0.272291E-01  0.323E+00    0.51       1.0  T
 200    -13.0980357 -0.460238E-01  0.178E+00    0.16       1.0  T
 201    -12.1916677  0.906368E+00  0.969E+00    0.00       1.0  T
 202    -13.0246076 -0.832940E+00  0.469E+00    0.61       1.0  T
 203    -13.0520156 -0.274081E-01  0.323E+00    0.51       1.0  T
 204    -13.0980100 -0.459944E-01  0.178E+00    0.16       1.0  T
 205    -12.1916430  0.906367E+00  0.969E+00    0.00       1.0  T
 206    -13.0245884 -0.832945E+00  0.469E+00    0.61       1.0  T
 207    -13.0520016 -0.274133E-01  0.323E+00    0.51       1.0  T
 208    -13.0981019 -0.461002E-01  0.178E+00    0.16       1.0  T
 209    -12.1916252  0.906477E+00  0.969E+00    0.00       1.0  T
 210    -13.0245424 -0.832917E+00  0.470E+00    0.61       1.0  T
 211    -13.0519936 -0.274512E-01  0.323E+00    0.51       1.0  T
 212    -13.0984955 -0.465019E-01  0.177E+00    0.16       1.0  T
 213    -12.1916391  0.906856E+00  0.969E+00    0.00       1.0  T
 214    -13.0243702 -0.832731E+00  0.471E+00    0.61       1.0  T
 215    -13.0520016 -0.276314E-01  0.323E+00    0.51       1.0  T
 216    -13.0988664 -0.468648E-01  0.176E+00    0.16       1.0  T
 217    -12.1916570  0.907209E+00  0.969E+00    0.00       1.0  T
 218    -13.0241875 -0.832530E+00  0.471E+00    0.61       1.0  T
 219    -13.0520095 -0.278220E-01  0.323E+00    0.51       1.0  T
 220    -13.0989713 -0.469618E-01  0.176E+00    0.16       1.0  T
 221    -12.1916505  0.907321E+00  0.969E+00    0.00       1.0  T
 222    -13.0241126 -0.832462E+00  0.472E+00    0.61       1.0  T
 223    -13.0520037 -0.278910E-01  0.323E+00    0.51       1.0  T
 224    -13.0989489 -0.469453E-01  0.176E+00    0.16       1.0  T
 225    -12.1916281  0.907321E+00  0.969E+00    0.00       1.0  T
 226    -13.0241072 -0.832479E+00  0.472E+00    0.61       1.0  T
 227    -13.0519909 -0.278836E-01  0.323E+00    0.51       1.0  T
 228    -13.0991005 -0.471096E-01  0.175E+00    0.16       1.0  T
 229    -12.1916211  0.907479E+00  0.969E+00    0.00       1.0  T
 230    -13.0240389 -0.832418E+00  0.472E+00    0.61       1.0  T
 231    -13.0519885 -0.279496E-01  0.323E+00    0.51       1.0  T
 232    -13.0995246 -0.475361E-01  0.174E+00    0.16       1.0  T
 233    -12.1916454  0.907879E+00  0.969E+00    0.00       1.0  T
 234    -13.0238428 -0.832197E+00  0.473E+00    0.61       1.0  T
 235    -13.0520033 -0.281604E-01  0.323E+00    0.51       1.0  T
 236    -13.1000100 -0.480067E-01  0.172E+00    0.15       1.0  T
 237    -12.1916833  0.908327E+00  0.969E+00    0.00       1.0  T
 238    -13.0235964 -0.831913E+00  0.475E+00    0.61       1.0  T
 239    -13.0520233 -0.284268E-01  0.323E+00    0.51       1.0  T
 240    -13.1002383 -0.482151E-01  0.172E+00    0.15       1.0  T
 241    -12.1916986  0.908540E+00  0.969E+00    0.00       1.0  T
 242    -13.0234528 -0.831754E+00  0.475E+00    0.61       1.0  T
 243    -13.0520278 -0.285750E-01  0.323E+00    0.51       1.0  T
 244    -13.1000428 -0.480150E-01  0.172E+00    0.15       1.0  T
 245    -12.1916664  0.908376E+00  0.969E+00    0.00       1.0  T
 246    -13.0235163 -0.831850E+00  0.475E+00    0.61       1.0  T
 247    -13.0520044 -0.284881E-01  0.323E+00    0.51       1.0  T
 248    -13.0995849 -0.475805E-01  0.174E+00    0.16       1.0  T
 249    -12.1915980  0.907987E+00  0.970E+00    0.00       1.0  T
 250    -13.0237338 -0.832136E+00  0.474E+00    0.61       1.0  T

   *** convergence criteria cannot be satisfied within 250 iterations ***

         #    Occupation            Energy/Eh            Energy/eV
      -------------------------------------------------------------
         1        2.0000           -0.8151149             -22.1804
       ...           ...                  ...                  ...
         5        2.0000           -0.3846465             -10.4668
         6        2.0000           -0.3844209             -10.4606
         7        2.0000           -0.3346547              -9.1064
         8        2.0000           -0.3346370              -9.1059
         9        2.0000           -0.2081657              -5.6645
        10        2.0000           -0.2021935              -5.5020
        11        2.0000           -0.2021934              -5.5020 (HOMO)
        12        0.0000           -0.1797502              -4.8913 (LUMO)
        13                          0.2664264               7.2498
        14                          0.3005233               8.1777
        15                          0.3005234               8.1777
        16                          0.3006929               8.1823
       ...                                ...                  ...
        20                          0.4368253              11.8866
      -------------------------------------------------------------
                  HL-Gap            0.0224433 Eh            0.6107 eV
             Fermi-level           -0.1906421 Eh           -5.1876 eV

 SCC (total)                   0 d,  0 h,  0 min,  0.126 sec
 SCC setup                      ...        0 min,  0.000 sec (  0.049%)
 Dispersion                     ...        0 min,  0.000 sec (  0.011%)
 integral evaluation            ...        0 min,  0.001 sec (  0.540%)
 zeroth order Hamiltonian       ...        0 min,  0.000 sec (  0.011%)
 iterations                     ...        0 min,  0.124 sec ( 98.885%)
 molecular gradient             ...        0 min,  0.001 sec (  0.440%)
 printout                       ...        0 min,  0.000 sec (  0.047%)

         :::::::::::::::::::::::::::::::::::::::::::::::::::::
         ::                     SUMMARY                     ::
         :::::::::::::::::::::::::::::::::::::::::::::::::::::
         :: total energy              -5.910257727082 Eh    ::
         :: gradient norm             23.724928757824 Eh/a0 ::
         :: HOMO-LUMO gap              0.610711930739 eV    ::
         ::.................................................::
         :: SCC energy               -13.023733806016 Eh    ::
         :: -> isotropic ES            0.356531060886 Eh    ::
         :: -> anisotropic ES         -0.005122868661 Eh    ::
         :: -> anisotropic XC          0.008400760368 Eh    ::
         :: -> dispersion             -0.001537290407 Eh    ::
         :: repulsion energy           0.059786609009 Eh    ::
         :: add. restraining           7.053758186927 Eh    ::
         :::::::::::::::::::::::::::::::::::::::::::::::::::::

      ----------------------------------------------------------- 
     |                   =====================                   |
     |                        A N C O P T                        |
     |                   =====================                   |
     |               Approximate Normal Coordinate               |
     |                Rational Function Optimizer                |
      ----------------------------------------------------------- 

          ...................................................
          :                      SETUP                      :
          :.................................................:
          :   optimization level            normal          :
          :   max. optcycles                   200          :
          :   ANC micro-cycles                  20          :
          :   degrees of freedom                12          :
          :.................................................:
          :   RF solver                   davidson          :
          :   write xtbopt.log                true          :
          :   linear?                        false          :
          :   energy convergence         0.5000000E-05 Eh   :
          :   grad. convergence          0.1000000E-02 Eh/α :
          :   maximium RF displ.         1.0000000          :
          :   Hlow (freq-cutoff)         0.1000000E-01      :
          :   Hmax (freq-cutoff)         5.0000000          :
          :   S6 in model hess.         20.0000000          :
          ...................................................

generating ANC from model Hessian ...
Using Lindh-Hessian (1995)
 Shifting diagonal of input Hessian by    4.25544649171733     
 Lowest  eigenvalues of input Hessian
    0.010000    0.010056   -0.000000   -0.000000   -0.000000    0.000000
    0.000000    0.000000    4.256162    4.256283    4.256284    4.412344
    4.412376    4.693310    5.091066    5.091199   24.255795   64.255297
 Highest eigenvalues
    4.412376    4.693310    5.091066    5.091199   24.255795   64.255297
 

........................................................................
.............................. CYCLE    1 ..............................
........................................................................
   1    -13.0519633 -0.130520E+02  0.323E+00    0.51       0.0  T
   2    -12.1440746  0.907889E+00  0.105E+01    0.00       1.0  T
   3    -13.0643706 -0.920296E+00  0.277E+00    0.44       1.0  T
   4    -13.0665575 -0.218684E-02  0.301E+00    0.39       1.0  T
   5    -12.1895959  0.876962E+00  0.965E+00    0.00       1.0  T
   6    -13.0621306 -0.872535E+00  0.266E+00    0.32       1.0  T
   7    -13.1272414 -0.651108E-01  0.537E-01    0.09       1.0  T
   8    -13.0389192  0.883222E-01  0.302E+00    0.05       1.0  T
   9    -13.0974460 -0.585268E-01  0.180E+00    0.16       1.0  T
  10    -13.1131987 -0.157527E-01  0.127E+00    0.07       1.0  T
  11    -13.1288536 -0.156548E-01  0.119E-01    0.10       1.0  T
  12    -13.1234414  0.541214E-02  0.753E-01    0.08       1.0  T
  13    -13.1284374 -0.499600E-02  0.238E-01    0.09       1.0  T
  14    -13.1278419  0.595513E-03  0.342E-01    0.09       1.0  T
  15    -13.1289772 -0.113529E-02  0.193E-02    0.10       2.1  T
  16    -13.1289804 -0.319513E-05  0.551E-03    0.10       7.4  T
  17    -13.1289709  0.954861E-05  0.318E-02    0.10       1.3  T
  18    -13.1289752 -0.432445E-05  0.238E-02    0.10       1.7  T
  19    -13.1289785 -0.334462E-05  0.149E-02    0.10       2.7  T
  20    -13.1289807 -0.214775E-05  0.158E-03    0.10      25.9  T
  21    -13.1289807 -0.237976E-07  0.172E-04    0.10     237.5  T
  22    -13.1289807  0.343757E-09  0.255E-04    0.10     160.1  T
     SCC iter.                  ...        0 min,  0.002 sec
     gradient                   ...        0 min,  0.001 sec
 * total energy  :    -6.0154406 Eh     change       -0.1051829E+00 Eh
   gradient norm :    23.7315823 Eh/α   predicted     0.0000000E+00 (-100.00%)
   displ. norm   :     0.9001887 α      lambda       -0.2136290E+02
   maximum displ.:     0.7795811 α      in ANC's #9, #12, #1, ...

........................................................................
.............................. CYCLE    2 ..............................
........................................................................
   1    -12.2450996 -0.122451E+02  0.935E+00    0.00       0.0  T
   2    -12.6073755 -0.362276E+00  0.978E+00    3.29       1.0  T
   3    -12.5160786  0.912969E-01  0.951E+00    0.00       1.0  T
   4    -12.7982199 -0.282141E+00  0.749E+00    1.00       1.0  T
   5    -12.9921298 -0.193910E+00  0.396E+00    0.13       1.0  T
   6    -12.7369517  0.255178E+00  0.694E+00    0.02       1.0  T
   7    -12.2255957  0.511356E+00  0.103E+01    0.00       1.0  T
   8    -12.2414787 -0.158830E-01  0.939E+00    0.00       1.0  T
   9    -12.8669216 -0.625443E+00  0.575E+00    0.38       1.0  T
  10    -13.0035299 -0.136608E+00  0.315E+00    0.13       1.0  T
  11    -12.2480631  0.755467E+00  0.910E+00    0.00       1.0  T
  12    -12.9881290 -0.740066E+00  0.345E+00    0.15       1.0  T
  13    -12.2457879  0.742341E+00  0.913E+00    0.00       1.0  T
  14    -13.0501348 -0.804347E+00  0.209E+00    0.06       1.0  T
  15    -12.2407367  0.809398E+00  0.934E+00    0.00       1.0  T
  16    -12.2462116 -0.547486E-02  0.913E+00    0.00       1.0  T
  17    -12.2502923 -0.408077E-02  0.908E+00    0.00       1.0  T
  18    -12.2474907  0.280165E-02  0.911E+00    0.00       1.0  T
  19    -12.2490076 -0.151696E-02  0.909E+00    0.00       1.0  T
  20    -12.2460523  0.295530E-02  0.913E+00    0.00       1.0  T
  21    -12.4198677 -0.173815E+00  0.803E+00    0.01       1.0  T
  22    -12.8819311 -0.462063E+00  0.548E+00    0.31       1.0  T
  23    -12.2427775  0.639154E+00  0.942E+00    0.00       1.0  T
  24    -12.8591994 -0.616422E+00  0.590E+00    0.47       1.0  T
  25    -12.2469812  0.612218E+00  0.952E+00    0.00       1.0  T
  26    -12.8468109 -0.599830E+00  0.617E+00    0.70       1.0  T
  27    -12.2473646  0.599446E+00  0.975E+00    0.00       1.0  T
  28    -12.8498776 -0.602513E+00  0.624E+00    0.29       1.0  T
  29    -12.2426658  0.607212E+00  0.102E+01    0.00       1.0  T
  30    -12.2568772 -0.142114E-01  0.911E+00    0.00       1.0  T
  31    -12.8230679 -0.566191E+00  0.694E+00    1.40       1.0  T
  32    -12.2523683  0.570700E+00  0.104E+01    0.00       1.0  T
  33    -12.2615138 -0.914551E-02  0.968E+00    0.00       1.0  T
  34    -12.2624543 -0.940512E-03  0.962E+00    0.00       1.0  T
  35    -12.2551297  0.732468E-02  0.946E+00    0.00       1.0  T
  36    -12.8438575 -0.588728E+00  0.638E+00    0.58       1.0  T
  37    -12.7842661  0.595913E-01  0.769E+00    0.06       1.0  T
  38    -12.1976512  0.586615E+00  0.107E+01    0.05       1.0  T
  39    -12.4033576 -0.205706E+00  0.122E+01    0.00       1.0  T
  40    -12.3846931  0.186645E-01  0.112E+01    0.00       1.0  T
  41    -12.7628155 -0.378122E+00  0.872E+00    3.57       1.0  T
  42    -12.1787075  0.584108E+00  0.113E+01    0.10       1.0  T
  43    -12.2241158 -0.454083E-01  0.981E+00    0.05       1.0  T
  44    -12.3828949 -0.158779E+00  0.110E+01    0.00       1.0  T
  45    -12.2012491  0.181646E+00  0.109E+01    0.05       1.0  T
  46    -12.2159048 -0.146557E-01  0.103E+01    0.05       1.0  T
  47    -12.2110259  0.487886E-02  0.104E+01    0.07       1.0  T
  48    -12.2172447 -0.621876E-02  0.102E+01    0.05       1.0  T
  49    -12.2244404 -0.719569E-02  0.100E+01    0.03       1.0  T
  50    -12.2322482 -0.780779E-02  0.962E+00    0.02       1.0  T
  51    -12.4734933 -0.241245E+00  0.944E+00    0.02       1.0  T
  52    -12.2545207  0.218973E+00  0.102E+01    0.00       1.0  T
  53    -12.8007064 -0.546186E+00  0.784E+00    1.44       1.0  T
  54    -12.2541057  0.546601E+00  0.926E+00    0.00       1.0  T
  55    -12.7325477 -0.478442E+00  0.993E+00    3.46       1.0  T
  56    -12.5778027  0.154745E+00  0.144E+01    4.40       1.0  T
  57    -12.5587846  0.190181E-01  0.150E+01    4.47       1.0  T
  58    -12.5684166 -0.963199E-02  0.145E+01    4.43       1.0  T
  59    -12.5879849 -0.195683E-01  0.143E+01    4.37       1.0  T
  60    -12.5650045  0.229803E-01  0.150E+01    4.48       1.0  T
  61    -12.7171131 -0.152109E+00  0.104E+01    2.63       1.0  T
  62    -12.7310003 -0.138872E-01  0.993E+00    1.92       1.0  T
  63    -12.7280722  0.292815E-02  0.996E+00    1.99       1.0  T
  64    -12.7909387 -0.628666E-01  0.817E+00    0.72       1.0  T
  65    -12.8628285 -0.718898E-01  0.684E+00    0.27       1.0  T
  66    -12.8431233  0.197053E-01  0.662E+00    0.41       1.0  T
  67    -12.4269868  0.416136E+00  0.985E+00    0.00       1.0  T
  68    -12.7845964 -0.357610E+00  0.858E+00    1.01       1.0  T
  69    -12.2159725  0.568624E+00  0.101E+01    0.06       1.0  T
  70    -12.4248028 -0.208830E+00  0.998E+00    0.00       1.0  T
  71    -12.8016389 -0.376836E+00  0.773E+00    0.70       1.0  T
  72    -12.2158001  0.585839E+00  0.101E+01    0.06       1.0  T
  73    -12.4264708 -0.210671E+00  0.993E+00    0.00       1.0  T
  74    -12.7592157 -0.332745E+00  0.581E+00    0.00       1.0  T
  75    -12.8060617 -0.468460E-01  0.732E+00    1.93       1.0  T
  76    -12.4061418  0.399920E+00  0.102E+01    0.00       1.0  T
  77    -12.8218171 -0.415675E+00  0.670E+00    0.88       1.0  T
  78    -12.2183549  0.603462E+00  0.101E+01    0.06       1.0  T
  79    -12.4581473 -0.239792E+00  0.960E+00    0.02       1.0  T
  80    -12.2705149  0.187632E+00  0.938E+00    0.00       1.0  T
  81    -12.7559756 -0.485461E+00  0.901E+00    3.72       1.0  T
  82    -12.4336238  0.322352E+00  0.967E+00    0.00       1.0  T
  83    -12.8089373 -0.375313E+00  0.714E+00    0.80       1.0  T
  84    -12.2267058  0.582231E+00  0.986E+00    0.06       1.0  T
  85    -12.5355561 -0.308850E+00  0.906E+00    0.03       1.0  T
  86    -12.2701425  0.265414E+00  0.943E+00    0.00       1.0  T
  87    -12.7548850 -0.484742E+00  0.898E+00    3.73       1.0  T
  88    -12.5150643  0.239821E+00  0.897E+00    0.01       1.0  T
  89    -12.7038144 -0.188750E+00  0.617E+00    0.00       1.0  T
  90    -12.8013033 -0.974889E-01  0.737E+00    2.21       1.0  T
  91    -12.4500742  0.351229E+00  0.949E+00    0.00       1.0  T
  92    -12.8119582 -0.361884E+00  0.702E+00    0.58       1.0  T
  93    -12.2317223  0.580236E+00  0.974E+00    0.06       1.0  T
  94    -12.9555039 -0.723782E+00  0.474E+00    0.07       1.0  T
  95    -12.2582517  0.697252E+00  0.963E+00    0.00       1.0  T
  96    -12.7812141 -0.522962E+00  0.807E+00    2.90       1.0  T
  97    -12.9042018 -0.122988E+00  0.528E+00    0.24       1.0  T
  98    -12.2461615  0.658040E+00  0.924E+00    0.04       1.0  T
  99    -12.8613518 -0.615190E+00  0.611E+00    0.37       1.0  T
 100    -12.8672271 -0.587535E-02  0.585E+00    0.37       1.0  T
 101    -12.2419330  0.625294E+00  0.930E+00    0.05       1.0  T
 102    -12.8645926 -0.622660E+00  0.619E+00    0.33       1.0  T
 103    -12.9965805 -0.131988E+00  0.348E+00    0.08       1.0  T
 104    -12.2517953  0.744785E+00  0.947E+00    0.00       1.0  T
 105    -12.7977996 -0.546004E+00  0.761E+00    1.87       1.0  T
 106    -12.8355324 -0.377327E-01  0.598E+00    0.05       1.0  T
 107    -12.8154894  0.200430E-01  0.714E+00    0.58       1.0  T
 108    -12.4600668  0.355423E+00  0.940E+00    0.00       1.0  T
 109    -12.8013461 -0.341279E+00  0.729E+00    2.16       1.0  T
 110    -12.4259804  0.375366E+00  0.980E+00    0.00       1.0  T
 111    -12.8093347 -0.383354E+00  0.707E+00    1.83       1.0  T
 112    -12.7078552  0.101479E+00  0.744E+00    0.04       1.0  T
 113    -12.8344801 -0.126625E+00  0.642E+00    0.90       1.0  T
 114    -12.9327584 -0.982783E-01  0.414E+00    0.03       1.0  T
 115    -12.2495273  0.683231E+00  0.924E+00    0.01       1.0  T
 116    -12.8183549 -0.568828E+00  0.692E+00    1.14       1.0  T
 117    -12.9004411 -0.820862E-01  0.528E+00    0.25       1.0  T
 118    -12.2428606  0.657581E+00  0.935E+00    0.03       1.0  T
 119    -12.8556916 -0.612831E+00  0.620E+00    0.39       1.0  T
 120    -12.9596366 -0.103945E+00  0.423E+00    0.17       1.0  T
 121    -12.2413622  0.718274E+00  0.951E+00    0.01       1.0  T
 122    -12.8349832 -0.593621E+00  0.655E+00    0.69       1.0  T
 123    -13.0127847 -0.177802E+00  0.306E+00    0.10       1.0  T
 124    -12.2502325  0.762552E+00  0.933E+00    0.00       1.0  T
 125    -12.8096197 -0.559387E+00  0.728E+00    1.43       1.0  T
 126    -13.0108809 -0.201261E+00  0.309E+00    0.09       1.0  T
 127    -12.2550647  0.755816E+00  0.906E+00    0.00       1.0  T
 128    -12.8077706 -0.552706E+00  0.735E+00    1.33       1.0  T
 129    -12.9412502 -0.133480E+00  0.443E+00    0.06       1.0  T
 130    -12.8452522  0.959980E-01  0.640E+00    0.28       1.0  T
 131    -12.6696900  0.175562E+00  0.819E+00    0.00       1.0  T
 132    -12.8237094 -0.154019E+00  0.674E+00    1.19       1.0  T
 133    -12.4255875  0.398122E+00  0.976E+00    0.00       1.0  T
 134    -12.8218686 -0.396281E+00  0.676E+00    1.28       1.0  T
 135    -12.4382019  0.383667E+00  0.958E+00    0.00       1.0  T
 136    -12.8233912 -0.385189E+00  0.666E+00    1.02       1.0  T
 137    -12.2464974  0.576894E+00  0.923E+00    0.04       1.0  T
 138    -13.0110298 -0.764532E+00  0.397E+00    0.12       1.0  T
 139    -12.2532071  0.757823E+00  0.924E+00    0.00       1.0  T
 140    -12.8079652 -0.554758E+00  0.724E+00    1.66       1.0  T
 141    -12.9029150 -0.949498E-01  0.513E+00    0.25       1.0  T
 142    -12.2446009  0.658314E+00  0.926E+00    0.03       1.0  T
 143    -12.8691770 -0.624576E+00  0.596E+00    0.32       1.0  T
 144    -12.8998525 -0.306756E-01  0.517E+00    0.26       1.0  T
 145    -12.2405461  0.659306E+00  0.940E+00    0.02       1.0  T
 146    -12.8798826 -0.639336E+00  0.578E+00    0.29       1.0  T
 147    -13.0008350 -0.120952E+00  0.355E+00    0.14       1.0  T
 148    -12.2418588  0.758976E+00  0.938E+00    0.01       1.0  T
 149    -12.8438135 -0.601955E+00  0.642E+00    0.50       1.0  T
 150    -12.9685855 -0.124772E+00  0.382E+00    0.07       1.0  T
 151    -12.2512260  0.717359E+00  0.929E+00    0.00       1.0  T
 152    -12.8101729 -0.558947E+00  0.732E+00    1.41       1.0  T
 153    -12.7830883  0.270846E-01  0.635E+00    0.04       1.0  T
 154    -12.8308782 -0.477899E-01  0.661E+00    0.49       1.0  T
 155    -12.4500014  0.380877E+00  0.946E+00    0.00       1.0  T
 156    -12.8275062 -0.377505E+00  0.662E+00    1.14       1.0  T
 157    -12.4284033  0.399103E+00  0.973E+00    0.00       1.0  T
 158    -12.8324005 -0.403997E+00  0.647E+00    0.97       1.0  T
 159    -12.4531616  0.379239E+00  0.944E+00    0.01       1.0  T
 160    -12.8460601 -0.392898E+00  0.635E+00    0.26       1.0  T
 161    -12.2569763  0.589084E+00  0.910E+00    0.03       1.0  T
 162    -12.9241001 -0.667124E+00  0.522E+00    0.21       1.0  T
 163    -12.2512730  0.672827E+00  0.911E+00    0.02       1.0  T
 164    -12.8412409 -0.589968E+00  0.641E+00    0.55       1.0  T
 165    -12.9116886 -0.704477E-01  0.499E+00    0.24       1.0  T
 166    -12.2418619  0.669827E+00  0.938E+00    0.02       1.0  T
 167    -12.8711997 -0.629338E+00  0.586E+00    0.32       1.0  T
 168    -13.0617497 -0.190550E+00  0.185E+00    0.07       1.0  T
 169    -12.8521414  0.209608E+00  0.466E+00    0.03       1.0  T
 170    -12.8467333  0.540803E-02  0.622E+00    0.56       1.0  T
 171    -13.0461041 -0.199371E+00  0.246E+00    0.08       1.0  T
 172    -12.2460617  0.800042E+00  0.952E+00    0.00       1.0  T
 173    -12.8207425 -0.574681E+00  0.696E+00    1.21       1.0  T
 174    -12.9378347 -0.117092E+00  0.426E+00    0.06       1.0  T
 175    -12.2525580  0.685277E+00  0.918E+00    0.00       1.0  T
 176    -12.8147732 -0.562215E+00  0.715E+00    1.26       1.0  T
 177    -12.8577728 -0.429996E-01  0.546E+00    0.05       1.0  T
 178    -12.4974281  0.360345E+00  0.750E+00    0.00       1.0  T
 179    -12.8123031 -0.314875E+00  0.720E+00    1.31       1.0  T
 180    -12.6674129  0.144890E+00  0.754E+00    0.03       1.0  T
 181    -12.8296958 -0.162283E+00  0.659E+00    0.87       1.0  T
 182    -12.4543318  0.375364E+00  0.939E+00    0.00       1.0  T
 183    -12.8328348 -0.378503E+00  0.645E+00    0.99       1.0  T
 184    -12.4332977  0.399537E+00  0.962E+00    0.00       1.0  T
 185    -12.8369827 -0.403685E+00  0.631E+00    0.91       1.0  T
 186    -12.4776727  0.359310E+00  0.925E+00    0.01       1.0  T
 187    -12.2709141  0.206759E+00  0.891E+00    0.00       1.0  T
 188    -12.7994368 -0.528523E+00  0.748E+00    1.78       1.0  T
 189    -12.9253202 -0.125883E+00  0.477E+00    0.21       1.0  T
 190    -12.2499251  0.675395E+00  0.914E+00    0.02       1.0  T
 191    -12.8915202 -0.641595E+00  0.566E+00    0.26       1.0  T
 192    -12.8826209  0.889933E-02  0.546E+00    0.26       1.0  T
 193    -12.2449512  0.637670E+00  0.923E+00    0.02       1.0  T
 194    -12.9297297 -0.684779E+00  0.499E+00    0.20       1.0  T
 195    -12.2511315  0.678598E+00  0.908E+00    0.01       1.0  T
 196    -12.8374898 -0.586358E+00  0.650E+00    0.62       1.0  T
 197    -12.8917408 -0.542510E-01  0.531E+00    0.28       1.0  T
 198    -12.2443861  0.647355E+00  0.921E+00    0.02       1.0  T
 199    -12.8981303 -0.653744E+00  0.551E+00    0.24       1.0  T
 200    -13.0503680 -0.152238E+00  0.248E+00    0.10       1.0  T
 201    -12.4492923  0.601076E+00  0.784E+00    0.01       1.0  T
 202    -12.8441439 -0.394852E+00  0.640E+00    0.51       1.0  T
 203    -13.0011845 -0.157041E+00  0.315E+00    0.08       1.0  T
 204    -12.2462927  0.754892E+00  0.934E+00    0.00       1.0  T
 205    -12.8310446 -0.584752E+00  0.669E+00    0.82       1.0  T
 206    -12.7702613  0.607834E-01  0.646E+00    0.03       1.0  T
 207    -13.0252850 -0.255024E+00  0.286E+00    0.05       1.0  T
 208    -12.8444710  0.180814E+00  0.625E+00    0.62       1.0  T
 209    -12.4706994  0.373772E+00  0.921E+00    0.00       1.0  T
 210    -12.8369354 -0.366236E+00  0.635E+00    0.91       1.0  T
 211    -12.4326440  0.404291E+00  0.961E+00    0.00       1.0  T
 212    -12.8419702 -0.409326E+00  0.627E+00    0.67       1.0  T
 213    -12.4458844  0.396086E+00  0.948E+00    0.00       1.0  T
 214    -12.8367203 -0.390836E+00  0.631E+00    0.80       1.0  T
 215    -12.6704282  0.166292E+00  0.768E+00    0.03       1.0  T
 216    -12.2538185  0.416610E+00  0.933E+00    0.00       1.0  T
 217    -12.8070038 -0.553185E+00  0.729E+00    1.74       1.0  T
 218    -12.9986324 -0.191629E+00  0.330E+00    0.14       1.0  T
 219    -12.2457949  0.752837E+00  0.931E+00    0.01       1.0  T
 220    -12.8467502 -0.600955E+00  0.623E+00    0.52       1.0  T
 221    -12.9344407 -0.876905E-01  0.458E+00    0.20       1.0  T
 222    -12.2427480  0.691693E+00  0.936E+00    0.01       1.0  T
 223    -12.8890342 -0.646286E+00  0.553E+00    0.27       1.0  T
 224    -12.4350538  0.453980E+00  0.795E+00    0.02       1.0  T
 225    -12.8528659 -0.417812E+00  0.617E+00    0.44       1.0  T
 226    -12.9188982 -0.660322E-01  0.484E+00    0.22       1.0  T
 227    -12.2419977  0.676900E+00  0.933E+00    0.01       1.0  T
 228    -12.9324692 -0.690472E+00  0.487E+00    0.19       1.0  T
 229    -12.2538106  0.678659E+00  0.904E+00    0.00       1.0  T
 230    -12.8476419 -0.593831E+00  0.635E+00    0.46       1.0  T
 231    -12.9874795 -0.139838E+00  0.352E+00    0.14       1.0  T
 232    -12.2428649  0.744615E+00  0.933E+00    0.00       1.0  T
 233    -12.8600771 -0.617212E+00  0.608E+00    0.37       1.0  T
 234    -12.9574826 -0.974054E-01  0.387E+00    0.06       1.0  T
 235    -12.2479690  0.709514E+00  0.925E+00    0.00       1.0  T
 236    -12.8315636 -0.583595E+00  0.669E+00    0.79       1.0  T
 237    -12.7100070  0.121557E+00  0.706E+00    0.03       1.0  T
 238    -12.8437995 -0.133793E+00  0.621E+00    0.43       1.0  T
 239    -12.6665365  0.177263E+00  0.819E+00    0.00       1.0  T
 240    -12.8599498 -0.193413E+00  0.597E+00    0.41       1.0  T
 241    -12.4374866  0.422463E+00  0.953E+00    0.00       1.0  T
 242    -12.8460848 -0.408598E+00  0.614E+00    0.62       1.0  T
 243    -12.4647842  0.381301E+00  0.930E+00    0.01       1.0  T
 244    -12.8385227 -0.373738E+00  0.628E+00    0.66       1.0  T
 245    -12.7218173  0.116705E+00  0.716E+00    0.04       1.0  T
 246    -12.2532238  0.468594E+00  0.924E+00    0.00       1.0  T
 247    -12.8113718 -0.558148E+00  0.716E+00    1.46       1.0  T
 248    -13.0090044 -0.197633E+00  0.310E+00    0.12       1.0  T
 249    -12.2490669  0.759937E+00  0.915E+00    0.00       1.0  T
 250    -12.8423203 -0.593253E+00  0.638E+00    0.54       1.0  T
     SCC iter.                  ...        0 min,  0.121 sec
     gradient                   ...        0 min,  0.001 sec
 * total energy  :    -6.8743920 Eh     change       -0.8589514E+00 Eh
   gradient norm :    26.4319404 Eh/α   predicted    -0.1933705E+02 (2151.24%)
   displ. norm   :     0.5584567 α      lambda       -0.1235292E+02
   maximum displ.:     0.4313158 α      in ANC's #9, #12, #3, ...

........................................................................
.............................. CYCLE    3 ..............................
........................................................................
   1    -13.0105370 -0.130105E+02  0.363E+00    0.20       0.0  T
   2    -12.1418464  0.868691E+00  0.124E+01    0.00       1.0  T
   3    -12.1782255 -0.363791E-01  0.116E+01    0.00       1.0  T
   4    -12.1661858  0.120397E-01  0.120E+01    0.00       1.0  T
   5    -12.7813949 -0.615209E+00  0.913E+00    1.82       1.0  T
   6    -12.8205353 -0.391404E-01  0.849E+00    0.90       1.0  T
   7    -12.4302925  0.390243E+00  0.117E+01    0.00       1.0  T
   8    -12.4375150 -0.722251E-02  0.115E+01    0.00       1.0  T
   9    -12.8312905 -0.393776E+00  0.825E+00    0.62       1.0  T
  10    -12.8629825 -0.316920E-01  0.740E+00    0.45       1.0  T
  11    -12.8688272 -0.584466E-02  0.686E+00    0.53       1.0  T
  12    -12.8752950 -0.646780E-02  0.654E+00    0.54       1.0  T
  13    -12.8799116 -0.461659E-02  0.622E+00    0.60       1.0  T
  14    -12.2340965  0.645815E+00  0.939E+00    0.00       1.0  T
  15    -12.8381735 -0.604077E+00  0.799E+00    0.64       1.0  T
  16    -12.8612144 -0.230409E-01  0.703E+00    0.59       1.0  T
  17    -12.8712846 -0.100701E-01  0.655E+00    0.62       1.0  T
  18    -12.8754352 -0.415063E-02  0.637E+00    0.62       1.0  T
  19    -12.8797275 -0.429231E-02  0.624E+00    0.59       1.0  T
  20    -12.9066836 -0.269561E-01  0.563E+00    0.42       1.0  T
  21    -13.0039940 -0.973103E-01  0.394E+00    0.20       1.0  T
  22    -12.2168891  0.787105E+00  0.961E+00    0.00       1.0  T
  23    -12.8460311 -0.629142E+00  0.822E+00    0.46       1.0  T
  24    -13.0211920 -0.175161E+00  0.452E+00    0.10       1.0  T
  25    -12.2112751  0.809917E+00  0.101E+01    0.00       1.0  T
  26    -12.8503191 -0.639044E+00  0.776E+00    0.52       1.0  T
  27    -13.0196234 -0.169304E+00  0.407E+00    0.16       1.0  T
  28    -13.0057726  0.138507E-01  0.395E+00    0.18       1.0  T
  29    -13.0062972 -0.524559E-03  0.369E+00    0.18       1.0  T
  30    -12.2105252  0.795772E+00  0.100E+01    0.00       1.0  T
  31    -12.8695905 -0.659065E+00  0.769E+00    0.37       1.0  T
  32    -13.0278406 -0.158250E+00  0.415E+00    0.10       1.0  T
  33    -12.2026573  0.825183E+00  0.106E+01    0.00       1.0  T
  34    -12.8773539 -0.674697E+00  0.711E+00    0.39       1.0  T
  35    -13.0402738 -0.162920E+00  0.361E+00    0.12       1.0  T
  36    -12.2116030  0.828671E+00  0.100E+01    0.00       1.0  T
  37    -12.8712881 -0.659685E+00  0.754E+00    0.38       1.0  T
  38    -13.0362688 -0.164981E+00  0.381E+00    0.11       1.0  T
  39    -12.2110372  0.825232E+00  0.101E+01    0.00       1.0  T
  40    -12.8779677 -0.666931E+00  0.730E+00    0.37       1.0  T
  41    -13.0399361 -0.161968E+00  0.361E+00    0.12       1.0  T
  42    -12.2139115  0.826025E+00  0.988E+00    0.00       1.0  T
  43    -12.8793545 -0.665443E+00  0.737E+00    0.35       1.0  T
  44    -13.0398987 -0.160544E+00  0.362E+00    0.12       1.0  T
  45    -12.2148724  0.825026E+00  0.981E+00    0.00       1.0  T
  46    -12.8845419 -0.669670E+00  0.728E+00    0.34       1.0  T
  47    -13.0402088 -0.155667E+00  0.358E+00    0.12       1.0  T
  48    -12.2156034  0.824605E+00  0.976E+00    0.00       1.0  T
  49    -12.8901347 -0.674531E+00  0.718E+00    0.32       1.0  T
  50    -13.0403324 -0.150198E+00  0.355E+00    0.12       1.0  T
  51    -12.2161557  0.824177E+00  0.972E+00    0.00       1.0  T
  52    -12.8956341 -0.679478E+00  0.708E+00    0.31       1.0  T
  53    -13.0403746 -0.144740E+00  0.353E+00    0.12       1.0  T
  54    -12.2166602  0.823714E+00  0.969E+00    0.00       1.0  T
  55    -12.9007731 -0.684113E+00  0.699E+00    0.30       1.0  T
  56    -13.0403448 -0.139572E+00  0.351E+00    0.12       1.0  T
  57    -12.2171261  0.823219E+00  0.965E+00    0.00       1.0  T
  58    -12.9055951 -0.688469E+00  0.691E+00    0.29       1.0  T
  59    -13.0402539 -0.134659E+00  0.350E+00    0.12       1.0  T
  60    -12.2175552  0.822699E+00  0.962E+00    0.00       1.0  T
  61    -12.9101632 -0.692608E+00  0.683E+00    0.28       1.0  T
  62    -13.0401074 -0.129944E+00  0.349E+00    0.12       1.0  T
  63    -12.2179500  0.822157E+00  0.960E+00    0.00       1.0  T
  64    -12.9145144 -0.696564E+00  0.675E+00    0.27       1.0  T
  65    -13.0399097 -0.125395E+00  0.348E+00    0.12       1.0  T
  66    -12.2183161  0.821594E+00  0.957E+00    0.00       1.0  T
  67    -12.9186643 -0.700348E+00  0.668E+00    0.27       1.0  T
  68    -13.0396650 -0.121001E+00  0.348E+00    0.12       1.0  T
  69    -12.2186597  0.821005E+00  0.955E+00    0.00       1.0  T
  70    -12.9226190 -0.703959E+00  0.661E+00    0.26       1.0  T
  71    -13.0393777 -0.116759E+00  0.348E+00    0.13       1.0  T
  72    -12.2189881  0.820390E+00  0.953E+00    0.00       1.0  T
  73    -12.9263832 -0.707395E+00  0.655E+00    0.25       1.0  T
  74    -13.0390520 -0.112669E+00  0.348E+00    0.13       1.0  T
  75    -12.2193115  0.819740E+00  0.950E+00    0.00       1.0  T
  76    -12.9299623 -0.710651E+00  0.649E+00    0.25       1.0  T
  77    -13.0386915 -0.108729E+00  0.348E+00    0.13       1.0  T
  78    -12.2196567  0.819035E+00  0.949E+00    0.00       1.0  T
  79    -12.9333655 -0.713709E+00  0.643E+00    0.24       1.0  T
  80    -13.0382994 -0.104934E+00  0.348E+00    0.13       1.0  T
  81    -12.2201579  0.818142E+00  0.947E+00    0.00       1.0  T
  82    -12.9366141 -0.716456E+00  0.637E+00    0.24       1.0  T
  83    -13.0378780 -0.101264E+00  0.348E+00    0.13       1.0  T
  84    -12.2216234  0.816255E+00  0.944E+00    0.00       1.0  T
  85    -12.9398012 -0.718178E+00  0.631E+00    0.24       1.0  T
  86    -13.0374293 -0.976281E-01  0.349E+00    0.13       1.0  T
  87    -12.2281288  0.809301E+00  0.940E+00    0.00       1.0  T
  88    -12.9433842 -0.715255E+00  0.625E+00    0.23       1.0  T
  89    -13.0369514 -0.935671E-01  0.349E+00    0.13       1.0  T
  90    -12.2460935  0.790858E+00  0.929E+00    0.00       1.0  T
  91    -12.9483289 -0.702235E+00  0.615E+00    0.23       1.0  T
  92    -13.0364026 -0.880737E-01  0.349E+00    0.13       1.0  T
  93    -12.2495943  0.786808E+00  0.927E+00    0.00       1.0  T
  94    -12.9527467 -0.703152E+00  0.606E+00    0.22       1.0  T
  95    -13.0357876 -0.830408E-01  0.349E+00    0.13       1.0  T
  96    -12.2795606  0.756227E+00  0.910E+00    0.00       1.0  T
  97    -12.9589656 -0.679405E+00  0.594E+00    0.21       1.0  T
  98    -13.0350562 -0.760906E-01  0.349E+00    0.13       1.0  T
  99    -12.2437615  0.791295E+00  0.930E+00    0.00       1.0  T
 100    -12.9601756 -0.716414E+00  0.591E+00    0.21       1.0  T
 101    -13.0346362 -0.744607E-01  0.350E+00    0.13       1.0  T
 102    -12.5442023  0.490434E+00  0.750E+00    0.00       1.0  T
 103    -12.9925099 -0.448308E+00  0.518E+00    0.18       1.0  T
 104    -13.0276337 -0.351238E-01  0.353E+00    0.14       1.0  T
 105    -12.2179962  0.809638E+00  0.958E+00    0.00       1.0  T
 106    -12.9832452 -0.765249E+00  0.541E+00    0.19       1.0  T
 107    -13.0311318 -0.478866E-01  0.353E+00    0.14       1.0  T
 108    -12.2274928  0.803639E+00  0.940E+00    0.00       1.0  T
 109    -12.9701220 -0.742629E+00  0.572E+00    0.20       1.0  T
 110    -13.0346770 -0.645550E-01  0.345E+00    0.13       1.0  T
 111    -13.0727682 -0.380912E-01  0.191E+00    0.06       1.0  T
 112    -13.0396256  0.331426E-01  0.324E+00    0.10       1.0  T
 113    -12.2200542  0.819571E+00  0.951E+00    0.00       1.0  T
 114    -12.9273481 -0.707294E+00  0.634E+00    0.26       1.0  T
 115    -13.0273951 -0.100047E+00  0.349E+00    0.15       1.0  T
 116    -12.3498781  0.677517E+00  0.870E+00    0.00       1.0  T
 117    -12.9769109 -0.627033E+00  0.546E+00    0.20       1.0  T
 118    -13.0336422 -0.567313E-01  0.334E+00    0.14       1.0  T
 119    -12.2197143  0.813928E+00  0.948E+00    0.00       1.0  T
 120    -12.9749502 -0.755236E+00  0.554E+00    0.20       1.0  T
 121    -13.0345454 -0.595952E-01  0.339E+00    0.14       1.0  T
 122    -13.1089241 -0.743787E-01  0.846E-01    0.09       1.0  T
 123    -13.0372245  0.716996E-01  0.285E+00    0.10       1.0  T
 124    -12.2174523  0.819772E+00  0.968E+00    0.00       1.0  T
 125    -12.9432303 -0.725778E+00  0.595E+00    0.24       1.0  T
 126    -13.0287975 -0.855672E-01  0.337E+00    0.15       1.0  T
 127    -12.2194378  0.809360E+00  0.949E+00    0.00       1.0  T
 128    -12.9769344 -0.757497E+00  0.539E+00    0.20       1.0  T
 129    -13.0361021 -0.591677E-01  0.325E+00    0.13       1.0  T
 130    -12.5859491  0.450153E+00  0.721E+00    0.00       1.0  T
 131    -13.0010040 -0.415055E+00  0.478E+00    0.17       1.0  T
 132    -13.0296523 -0.286483E-01  0.329E+00    0.14       1.0  T
 133    -12.2178437  0.811809E+00  0.959E+00    0.00       1.0  T
 134    -12.9929159 -0.775072E+00  0.509E+00    0.18       1.0  T
 135    -13.0327025 -0.397866E-01  0.338E+00    0.14       1.0  T
 136    -13.1015317 -0.688292E-01  0.102E+00    0.07       1.0  T
 137    -13.0414194  0.601124E-01  0.285E+00    0.11       1.0  T
 138    -12.2199343  0.821485E+00  0.950E+00    0.00       1.0  T
 139    -12.9459118 -0.725977E+00  0.592E+00    0.23       1.0  T
 140    -13.0331784 -0.872666E-01  0.323E+00    0.14       1.0  T
 141    -12.4086496  0.624529E+00  0.836E+00    0.00       1.0  T
 142    -12.9844630 -0.575813E+00  0.514E+00    0.19       1.0  T
 143    -13.0349560 -0.504930E-01  0.315E+00    0.14       1.0  T
 144    -12.2200666  0.814889E+00  0.947E+00    0.00       1.0  T
 145    -12.9802959 -0.760229E+00  0.531E+00    0.19       1.0  T
 146    -13.0364269 -0.561310E-01  0.324E+00    0.13       1.0  T
 147    -13.0220553  0.143715E-01  0.324E+00    0.15       1.0  T
 148    -12.2144819  0.807573E+00  0.982E+00    0.00       1.0  T
 149    -13.0186438 -0.804162E+00  0.444E+00    0.15       1.0  T
 150    -13.0247658 -0.612199E-02  0.353E+00    0.15       1.0  T
 151    -12.2194320  0.805334E+00  0.949E+00    0.00       1.0  T
 152    -12.9906637 -0.771232E+00  0.509E+00    0.18       1.0  T
 153    -13.0362599 -0.455961E-01  0.323E+00    0.13       1.0  T
 154    -13.0235073  0.127526E-01  0.323E+00    0.16       1.0  T
 155    -12.2147920  0.808715E+00  0.980E+00    0.00       1.0  T
 156    -13.0166737 -0.801882E+00  0.451E+00    0.16       1.0  T
 157    -13.0273544 -0.106807E-01  0.342E+00    0.15       1.0  T
 158    -12.2195395  0.807815E+00  0.948E+00    0.00       1.0  T
 159    -12.9896605 -0.770121E+00  0.509E+00    0.18       1.0  T
 160    -13.0363104 -0.466499E-01  0.322E+00    0.13       1.0  T
 161    -13.0230851  0.132253E-01  0.324E+00    0.16       1.0  T
 162    -12.2150906  0.807994E+00  0.978E+00    0.00       1.0  T
 163    -13.0148266 -0.799736E+00  0.457E+00    0.16       1.0  T
 164    -13.0281346 -0.133080E-01  0.338E+00    0.14       1.0  T
 165    -12.2194637  0.808671E+00  0.949E+00    0.00       1.0  T
 166    -12.9903020 -0.770838E+00  0.508E+00    0.18       1.0  T
 167    -13.0358423 -0.455402E-01  0.322E+00    0.13       1.0  T
 168    -13.0282750  0.756725E-02  0.315E+00    0.16       1.0  T
 169    -12.2155413  0.812734E+00  0.974E+00    0.00       1.0  T
 170    -13.0141757 -0.798634E+00  0.458E+00    0.16       1.0  T
 171    -13.0289889 -0.148132E-01  0.333E+00    0.14       1.0  T
 172    -12.2195027  0.809486E+00  0.949E+00    0.00       1.0  T
 173    -12.9907152 -0.771213E+00  0.508E+00    0.18       1.0  T
 174    -13.0355246 -0.448094E-01  0.323E+00    0.13       1.0  T
 175    -13.0279749  0.754972E-02  0.315E+00    0.16       1.0  T
 176    -12.2158376  0.812137E+00  0.972E+00    0.00       1.0  T
 177    -13.0132164 -0.797379E+00  0.461E+00    0.16       1.0  T
 178    -13.0292672 -0.160508E-01  0.331E+00    0.14       1.0  T
 179    -12.2195761  0.809691E+00  0.948E+00    0.00       1.0  T
 180    -12.9910436 -0.771468E+00  0.507E+00    0.18       1.0  T
 181    -13.0351702 -0.441267E-01  0.323E+00    0.13       1.0  T
 182    -13.0298422  0.532806E-02  0.311E+00    0.16       1.0  T
 183    -12.2161648  0.813677E+00  0.970E+00    0.00       1.0  T
 184    -13.0125848 -0.796420E+00  0.462E+00    0.16       1.0  T
 185    -13.0296199 -0.170351E-01  0.329E+00    0.14       1.0  T
 186    -12.2196648  0.809955E+00  0.948E+00    0.00       1.0  T
 187    -12.9913267 -0.771662E+00  0.507E+00    0.18       1.0  T
 188    -13.0348805 -0.435538E-01  0.324E+00    0.13       1.0  T
 189    -13.0301902  0.469035E-02  0.310E+00    0.15       1.0  T
 190    -12.2164187  0.813771E+00  0.968E+00    0.00       1.0  T
 191    -13.0120112 -0.795592E+00  0.464E+00    0.16       1.0  T
 192    -13.0297797 -0.177685E-01  0.327E+00    0.14       1.0  T
 193    -12.2197512  0.810029E+00  0.948E+00    0.00       1.0  T
 194    -12.9916341 -0.771883E+00  0.507E+00    0.18       1.0  T
 195    -13.0345887 -0.429546E-01  0.325E+00    0.14       1.0  T
 196    -13.0313621  0.322662E-02  0.307E+00    0.15       1.0  T
 197    -12.2166762  0.814686E+00  0.967E+00    0.00       1.0  T
 198    -13.0115509 -0.794875E+00  0.464E+00    0.16       1.0  T
 199    -13.0299883 -0.184374E-01  0.326E+00    0.14       1.0  T
 200    -12.2198692  0.810119E+00  0.947E+00    0.00       1.0  T
 201    -12.9918380 -0.771969E+00  0.507E+00    0.18       1.0  T
 202    -13.0343521 -0.425140E-01  0.325E+00    0.14       1.0  T
 203    -13.0316150  0.273702E-02  0.306E+00    0.15       1.0  T
 204    -12.2168790  0.814736E+00  0.965E+00    0.00       1.0  T
 205    -13.0111531 -0.794274E+00  0.465E+00    0.16       1.0  T
 206    -13.0300732 -0.189200E-01  0.325E+00    0.14       1.0  T
 207    -12.2199728  0.810100E+00  0.947E+00    0.00       1.0  T
 208    -12.9921025 -0.772130E+00  0.507E+00    0.18       1.0  T
 209    -13.0341091 -0.420066E-01  0.326E+00    0.14       1.0  T
 210    -13.0326594  0.144964E-02  0.304E+00    0.15       1.0  T
 211    -12.2170937  0.815566E+00  0.964E+00    0.00       1.0  T
 212    -13.0107982 -0.793704E+00  0.466E+00    0.16       1.0  T
 213    -13.0302383 -0.194401E-01  0.324E+00    0.14       1.0  T
 214    -12.2201407  0.810098E+00  0.947E+00    0.00       1.0  T
 215    -12.9922235 -0.772083E+00  0.507E+00    0.18       1.0  T
 216    -13.0339247 -0.417012E-01  0.326E+00    0.14       1.0  T
 217    -13.0326537  0.127105E-02  0.304E+00    0.15       1.0  T
 218    -12.2172495  0.815404E+00  0.963E+00    0.00       1.0  T
 219    -13.0105176 -0.793268E+00  0.467E+00    0.16       1.0  T
 220    -13.0302615 -0.197439E-01  0.323E+00    0.14       1.0  T
 221    -12.2202546  0.810007E+00  0.946E+00    0.00       1.0  T
 222    -12.9924837 -0.772229E+00  0.506E+00    0.18       1.0  T
 223    -13.0337134 -0.412297E-01  0.327E+00    0.14       1.0  T
 224    -13.0338722 -0.158794E-03  0.301E+00    0.15       1.0  T
 225    -12.2174430  0.816429E+00  0.961E+00    0.00       1.0  T
 226    -13.0102095 -0.792767E+00  0.467E+00    0.16       1.0  T
 227    -13.0304409 -0.202315E-01  0.322E+00    0.14       1.0  T
 228    -12.2205380  0.809903E+00  0.946E+00    0.00       1.0  T
 229    -12.9924849 -0.771947E+00  0.507E+00    0.18       1.0  T
 230    -13.0335844 -0.410995E-01  0.327E+00    0.14       1.0  T
 231    -13.0333102  0.274234E-03  0.302E+00    0.15       1.0  T
 232    -12.2175449  0.815765E+00  0.961E+00    0.00       1.0  T
 233    -13.0100498 -0.792505E+00  0.467E+00    0.16       1.0  T
 234    -13.0303694 -0.203196E-01  0.322E+00    0.14       1.0  T
 235    -12.2205865  0.809783E+00  0.946E+00    0.00       1.0  T
 236    -12.9928432 -0.772257E+00  0.506E+00    0.18       1.0  T
 237    -13.0333765 -0.405332E-01  0.327E+00    0.14       1.0  T
 238    -13.0353217 -0.194525E-02  0.298E+00    0.15       1.0  T
 239    -12.2177544  0.817567E+00  0.959E+00    0.00       1.0  T
 240    -13.0096895 -0.791935E+00  0.467E+00    0.16       1.0  T
 241    -13.0306655 -0.209760E-01  0.321E+00    0.14       1.0  T
 242    -12.2212548  0.809411E+00  0.945E+00    0.00       1.0  T
 243    -12.9925646 -0.771310E+00  0.507E+00    0.18       1.0  T
 244    -13.0333312 -0.407667E-01  0.328E+00    0.14       1.0  T
 245    -13.0332342  0.970537E-04  0.301E+00    0.15       1.0  T
 246    -12.2177587  0.815476E+00  0.959E+00    0.00       1.0  T
 247    -13.0097708 -0.792012E+00  0.468E+00    0.16       1.0  T
 248    -13.0303503 -0.205795E-01  0.321E+00    0.14       1.0  T
 249    -12.2208120  0.809538E+00  0.945E+00    0.00       1.0  T
 250    -12.9933451 -0.772533E+00  0.505E+00    0.18       1.0  T
     SCC iter.                  ...        0 min,  0.118 sec
     gradient                   ...        0 min,  0.001 sec
 * total energy  :   -12.4921648 Eh     change       -0.5617773E+01 Eh
   gradient norm :     4.2373453 Eh/α   predicted    -0.8102738E+01 (  44.23%)
   displ. norm   :     0.4525843 α      lambda       -0.1909433E+01
   maximum displ.:     0.4455920 α      in ANC's #12, #9, #3, ...

........................................................................
.............................. CYCLE    4 ..............................
........................................................................
   1    -13.0086175 -0.130086E+02  0.325E+00    0.30       0.0  T
   2    -12.1376356  0.870982E+00  0.116E+01    0.00       1.0  T
   3    -12.4463879 -0.308752E+00  0.115E+01    0.00       1.0  T
   4    -12.4415836  0.480427E-02  0.117E+01    0.00       1.0  T
   5    -12.4374989  0.408471E-02  0.118E+01    0.00       1.0  T
   6    -12.4193563  0.181426E-01  0.123E+01    0.00       1.0  T
   7      4.7935086  0.172129E+02  0.374E+01    0.00       1.0  T
   8      4.7796747 -0.138339E-01  0.372E+01    0.00       1.0  T
   9      4.8007317  0.210570E-01  0.376E+01    0.00       1.0  T
  10    -13.0410483 -0.178418E+02  0.914E+00    0.07       1.0  T
  11    -12.9859601  0.550883E-01  0.625E+00    0.14       1.0  T
  12    -12.8460030  0.139957E+00  0.103E+01    2.52       1.0  T
  13    -12.3862525  0.459750E+00  0.127E+01    0.00       1.0  T
  14    -12.4313068 -0.450542E-01  0.110E+01    0.00       1.0  T
  15    -12.8422916 -0.410985E+00  0.865E+00    0.96       1.0  T
  16    -12.9345485 -0.922569E-01  0.644E+00    0.57       1.0  T
  17    -12.4023066  0.532242E+00  0.911E+00    0.01       1.0  T
  18    -12.8500324 -0.447726E+00  0.840E+00    1.91       1.0  T
  19    -12.8804688 -0.304364E-01  0.759E+00    1.05       1.0  T
  20    -12.8816870 -0.121825E-02  0.753E+00    1.03       1.0  T
  21    -12.8040824  0.776046E-01  0.918E+00    0.11       1.0  T
  22    -12.8480757 -0.439932E-01  0.870E+00    1.94       1.0  T
  23    -12.5343031  0.313773E+00  0.860E+00    0.02       1.0  T
  24    -12.8582165 -0.323913E+00  0.778E+00    1.44       1.0  T
  25    -13.0472096 -0.188993E+00  0.372E+00    0.20       1.0  T
  26    -12.8523539  0.194856E+00  0.824E+00    0.94       1.0  T
  27    -12.9137169 -0.613629E-01  0.650E+00    0.66       1.0  T
  28    -12.8902054  0.235115E-01  0.685E+00    0.98       1.0  T
  29    -12.9058040 -0.155986E-01  0.636E+00    0.77       1.0  T
  30    -12.8971554  0.864857E-02  0.642E+00    0.74       1.0  T
  31    -12.9064407 -0.928527E-02  0.615E+00    0.33       1.0  T
  32    -12.2212479  0.685193E+00  0.970E+00    0.00       1.0  T
  33    -12.9407886 -0.719541E+00  0.753E+00    0.12       1.0  T
  34    -12.9068202  0.339684E-01  0.619E+00    0.31       1.0  T
  35    -12.2184388  0.688381E+00  0.955E+00    0.00       1.0  T
  36    -12.9885708 -0.770132E+00  0.430E+00    0.37       1.0  T
  37    -12.9317519  0.568189E-01  0.525E+00    0.40       1.0  T
  38    -13.0857552 -0.154003E+00  0.211E+00    0.13       1.0  T
  39    -12.2164676  0.869288E+00  0.952E+00    0.00       1.0  T
  40    -13.0434387 -0.826971E+00  0.394E+00    0.24       1.0  T
  41    -12.9442956  0.991432E-01  0.508E+00    0.54       1.0  T
  42    -13.0013534 -0.570578E-01  0.386E+00    0.32       1.0  T
  43    -12.2167240  0.784629E+00  0.950E+00    0.00       1.0  T
  44    -13.0140211 -0.797297E+00  0.397E+00    0.30       1.0  T
  45    -12.9626406  0.513805E-01  0.472E+00    0.45       1.0  T
  46    -13.0066239 -0.439833E-01  0.379E+00    0.31       1.0  T
  47    -12.7895569  0.217067E+00  0.563E+00    0.01       1.0  T
  48    -12.9900865 -0.200530E+00  0.421E+00    0.36       1.0  T
  49    -12.9946420 -0.455547E-02  0.404E+00    0.34       1.0  T
  50    -12.2925525  0.702089E+00  0.906E+00    0.00       1.0  T
  51    -12.9944850 -0.701933E+00  0.437E+00    0.35       1.0  T
  52    -13.0259882 -0.315032E-01  0.352E+00    0.26       1.0  T
  53    -13.0240399  0.194830E-02  0.342E+00    0.25       1.0  T
  54    -12.2168560  0.807184E+00  0.952E+00    0.00       1.0  T
  55    -13.0187223 -0.801866E+00  0.405E+00    0.29       1.0  T
  56    -13.0064951  0.122272E-01  0.386E+00    0.30       1.0  T
  57    -13.0229549 -0.164598E-01  0.349E+00    0.23       1.0  T
  58    -12.2157674  0.807187E+00  0.956E+00    0.00       1.0  T
  59    -13.0361907 -0.820423E+00  0.403E+00    0.25       1.0  T
  60    -12.9914225  0.447681E-01  0.422E+00    0.34       1.0  T
  61    -13.0291920 -0.377695E-01  0.333E+00    0.23       1.0  T
  62    -12.2153488  0.813843E+00  0.958E+00    0.00       1.0  T
  63    -13.0438700 -0.828521E+00  0.401E+00    0.23       1.0  T
  64    -12.9910136  0.528563E-01  0.425E+00    0.33       1.0  T
  65    -13.0346241 -0.436105E-01  0.320E+00    0.22       1.0  T
  66    -12.2152817  0.819342E+00  0.960E+00    0.00       1.0  T
  67    -13.0466294 -0.831348E+00  0.397E+00    0.21       1.0  T
  68    -12.9939514  0.526780E-01  0.420E+00    0.32       1.0  T
  69    -13.0372850 -0.433336E-01  0.312E+00    0.22       1.0  T
  70    -12.2153341  0.821951E+00  0.960E+00    0.00       1.0  T
  71    -13.0474359 -0.832102E+00  0.392E+00    0.21       1.0  T
  72    -12.9980287  0.494072E-01  0.412E+00    0.31       1.0  T
  73    -13.0380545 -0.400258E-01  0.309E+00    0.23       1.0  T
  74    -12.2154222  0.822632E+00  0.961E+00    0.00       1.0  T
  75    -13.0475917 -0.832170E+00  0.386E+00    0.20       1.0  T
  76    -13.0023479  0.452438E-01  0.402E+00    0.30       1.0  T
  77    -13.0386509 -0.363030E-01  0.307E+00    0.23       1.0  T
  78    -12.2154991  0.823152E+00  0.961E+00    0.00       1.0  T
  79    -13.0475488 -0.832050E+00  0.381E+00    0.20       1.0  T
  80    -13.0063106  0.412382E-01  0.393E+00    0.29       1.0  T
  81    -13.0392803 -0.329697E-01  0.305E+00    0.23       1.0  T
  82    -12.2155481  0.823732E+00  0.961E+00    0.00       1.0  T
  83    -13.0474467 -0.831899E+00  0.377E+00    0.20       1.0  T
  84    -13.0095450  0.379017E-01  0.386E+00    0.28       1.0  T
  85    -13.0399111 -0.303662E-01  0.303E+00    0.23       1.0  T
  86    -12.2155675  0.824344E+00  0.961E+00    0.00       1.0  T
  87    -13.0473541 -0.831787E+00  0.375E+00    0.20       1.0  T
  88    -13.0119360  0.354181E-01  0.380E+00    0.27       1.0  T
  89    -13.0405701 -0.286341E-01  0.301E+00    0.23       1.0  T
  90    -12.2155611  0.825009E+00  0.962E+00    0.00       1.0  T
  91    -13.0473098 -0.831749E+00  0.374E+00    0.20       1.0  T
  92    -13.0135495  0.337603E-01  0.376E+00    0.27       1.0  T
  93    -13.0412697 -0.277202E-01  0.299E+00    0.23       1.0  T
  94    -12.2155366  0.825733E+00  0.962E+00    0.00       1.0  T
  95    -13.0473136 -0.831777E+00  0.373E+00    0.20       1.0  T
  96    -13.0145657  0.327479E-01  0.374E+00    0.27       1.0  T
  97    -13.0419754 -0.274097E-01  0.298E+00    0.22       1.0  T
  98    -12.2155030  0.826472E+00  0.962E+00    0.00       1.0  T
  99    -13.0473419 -0.831839E+00  0.373E+00    0.20       1.0  T
 100    -13.0151885  0.321534E-01  0.373E+00    0.27       1.0  T
 101    -13.0426527 -0.274641E-01  0.296E+00    0.22       1.0  T
 102    -12.2154665  0.827186E+00  0.962E+00    0.00       1.0  T
 103    -13.0473748 -0.831908E+00  0.373E+00    0.20       1.0  T
 104    -13.0155730  0.318019E-01  0.372E+00    0.26       1.0  T
 105    -13.0432968 -0.277238E-01  0.295E+00    0.22       1.0  T
 106    -12.2154303  0.827867E+00  0.963E+00    0.00       1.0  T
 107    -13.0474034 -0.831973E+00  0.374E+00    0.20       1.0  T
 108    -13.0158144  0.315890E-01  0.372E+00    0.26       1.0  T
 109    -13.0439165 -0.281020E-01  0.294E+00    0.22       1.0  T
 110    -12.2153961  0.828520E+00  0.963E+00    0.00       1.0  T
 111    -13.0474233 -0.832027E+00  0.374E+00    0.20       1.0  T
 112    -13.0159736  0.314497E-01  0.371E+00    0.26       1.0  T
 113    -13.0445156 -0.285419E-01  0.293E+00    0.22       1.0  T
 114    -12.2153651  0.829150E+00  0.963E+00    0.00       1.0  T
 115    -13.0474313 -0.832066E+00  0.375E+00    0.20       1.0  T
 116    -13.0160937  0.313376E-01  0.371E+00    0.26       1.0  T
 117    -13.0450942 -0.290005E-01  0.292E+00    0.22       1.0  T
 118    -12.2153380  0.829756E+00  0.963E+00    0.00       1.0  T
 119    -13.0474252 -0.832087E+00  0.375E+00    0.20       1.0  T
 120    -13.0162046  0.312206E-01  0.371E+00    0.26       1.0  T
 121    -13.0456524 -0.294478E-01  0.291E+00    0.21       1.0  T
 122    -12.2153155  0.830337E+00  0.963E+00    0.00       1.0  T
 123    -13.0474038 -0.832088E+00  0.376E+00    0.20       1.0  T
 124    -13.0163259  0.310779E-01  0.371E+00    0.26       1.0  T
 125    -13.0461900 -0.298641E-01  0.290E+00    0.21       1.0  T
 126    -12.2152975  0.830892E+00  0.963E+00    0.00       1.0  T
 127    -13.0473669 -0.832069E+00  0.376E+00    0.20       1.0  T
 128    -13.0164699  0.308969E-01  0.371E+00    0.26       1.0  T
 129    -13.0467059 -0.302360E-01  0.289E+00    0.21       1.0  T
 130    -12.2152844  0.831422E+00  0.963E+00    0.00       1.0  T
 131    -13.0473143 -0.832030E+00  0.376E+00    0.20       1.0  T
 132    -13.0166438  0.306704E-01  0.370E+00    0.26       1.0  T
 133    -13.0471995 -0.305557E-01  0.288E+00    0.21       1.0  T
 134    -12.2152759  0.831924E+00  0.963E+00    0.00       1.0  T
 135    -13.0472462 -0.831970E+00  0.377E+00    0.20       1.0  T
 136    -13.0168508  0.303955E-01  0.370E+00    0.26       1.0  T
 137    -13.0476702 -0.308194E-01  0.288E+00    0.21       1.0  T
 138    -12.2152718  0.832398E+00  0.963E+00    0.00       1.0  T
 139    -13.0471631 -0.831891E+00  0.377E+00    0.20       1.0  T
 140    -13.0170912  0.300719E-01  0.369E+00    0.26       1.0  T
 141    -13.0481183 -0.310271E-01  0.287E+00    0.21       1.0  T
 142    -12.2152721  0.832846E+00  0.963E+00    0.00       1.0  T
 143    -13.0470653 -0.831793E+00  0.377E+00    0.20       1.0  T
 144    -13.0173636  0.297017E-01  0.369E+00    0.26       1.0  T
 145    -13.0485445 -0.311809E-01  0.286E+00    0.20       1.0  T
 146    -12.2152765  0.833268E+00  0.963E+00    0.00       1.0  T
 147    -13.0469533 -0.831677E+00  0.378E+00    0.20       1.0  T
 148    -13.0176655  0.292877E-01  0.368E+00    0.26       1.0  T
 149    -13.0489502 -0.312847E-01  0.285E+00    0.20       1.0  T
 150    -12.2152847  0.833666E+00  0.963E+00    0.00       1.0  T
 151    -13.0468275 -0.831543E+00  0.378E+00    0.20       1.0  T
 152    -13.0179939  0.288336E-01  0.367E+00    0.26       1.0  T
 153    -13.0493373 -0.313434E-01  0.285E+00    0.20       1.0  T
 154    -12.2152965  0.834041E+00  0.963E+00    0.00       1.0  T
 155    -13.0466885 -0.831392E+00  0.378E+00    0.20       1.0  T
 156    -13.0183453  0.283433E-01  0.366E+00    0.26       1.0  T
 157    -13.0497079 -0.313626E-01  0.284E+00    0.20       1.0  T
 158    -12.2153116  0.834396E+00  0.963E+00    0.00       1.0  T
 159    -13.0465368 -0.831225E+00  0.378E+00    0.20       1.0  T
 160    -13.0187163  0.278205E-01  0.365E+00    0.26       1.0  T
 161    -13.0500642 -0.313479E-01  0.283E+00    0.20       1.0  T
 162    -12.2153301  0.834734E+00  0.963E+00    0.00       1.0  T
 163    -13.0463726 -0.831043E+00  0.378E+00    0.20       1.0  T
 164    -13.0191038  0.272689E-01  0.364E+00    0.26       1.0  T
 165    -13.0504086 -0.313048E-01  0.283E+00    0.20       1.0  T
 166    -12.2153516  0.835057E+00  0.962E+00    0.00       1.0  T
 167    -13.0461967 -0.830845E+00  0.378E+00    0.20       1.0  T
 168    -13.0195048  0.266918E-01  0.363E+00    0.26       1.0  T
 169    -13.0507433 -0.312385E-01  0.282E+00    0.20       1.0  T
 170    -12.2153760  0.835367E+00  0.962E+00    0.00       1.0  T
 171    -13.0460092 -0.830633E+00  0.379E+00    0.20       1.0  T
 172    -13.0199168  0.260925E-01  0.362E+00    0.25       1.0  T
 173    -13.0510702 -0.311535E-01  0.281E+00    0.20       1.0  T
 174    -12.2154035  0.835667E+00  0.962E+00    0.00       1.0  T
 175    -13.0458108 -0.830407E+00  0.379E+00    0.20       1.0  T
 176    -13.0203372  0.254735E-01  0.361E+00    0.25       1.0  T
 177    -13.0513912 -0.310539E-01  0.280E+00    0.20       1.0  T
 178    -12.2154338  0.835957E+00  0.962E+00    0.00       1.0  T
 179    -13.0456017 -0.830168E+00  0.379E+00    0.20       1.0  T
 180    -13.0207641  0.248376E-01  0.360E+00    0.25       1.0  T
 181    -13.0517075 -0.309434E-01  0.280E+00    0.20       1.0  T
 182    -12.2154672  0.836240E+00  0.962E+00    0.00       1.0  T
 183    -13.0453824 -0.829915E+00  0.379E+00    0.20       1.0  T
 184    -13.0211956  0.241868E-01  0.359E+00    0.25       1.0  T
 185    -13.0520204 -0.308248E-01  0.279E+00    0.20       1.0  T
 186    -12.2155037  0.836517E+00  0.961E+00    0.00       1.0  T
 187    -13.0451534 -0.829650E+00  0.379E+00    0.20       1.0  T
 188    -13.0216301  0.235233E-01  0.358E+00    0.25       1.0  T
 189    -13.0523306 -0.307005E-01  0.278E+00    0.20       1.0  T
 190    -12.2155434  0.836787E+00  0.961E+00    0.00       1.0  T
 191    -13.0449150 -0.829372E+00  0.380E+00    0.20       1.0  T
 192    -13.0220660  0.228490E-01  0.357E+00    0.25       1.0  T
 193    -13.0526387 -0.305727E-01  0.278E+00    0.20       1.0  T
 194    -12.2155867  0.837052E+00  0.961E+00    0.00       1.0  T
 195    -13.0446677 -0.829081E+00  0.380E+00    0.21       1.0  T
 196    -13.0225022  0.221655E-01  0.355E+00    0.25       1.0  T
 197    -13.0529449 -0.304427E-01  0.277E+00    0.20       1.0  T
 198    -12.2156339  0.837311E+00  0.961E+00    0.00       1.0  T
 199    -13.0444120 -0.828778E+00  0.380E+00    0.21       1.0  T
 200    -13.0229374  0.214746E-01  0.354E+00    0.25       1.0  T
 201    -13.0532491 -0.303118E-01  0.276E+00    0.19       1.0  T
 202    -12.2156855  0.837564E+00  0.961E+00    0.00       1.0  T
 203    -13.0441484 -0.828463E+00  0.381E+00    0.21       1.0  T
 204    -13.0233705  0.207779E-01  0.353E+00    0.25       1.0  T
 205    -13.0535513 -0.301807E-01  0.276E+00    0.19       1.0  T
 206    -12.2157423  0.837809E+00  0.960E+00    0.00       1.0  T
 207    -13.0438775 -0.828135E+00  0.381E+00    0.21       1.0  T
 208    -13.0238006  0.200769E-01  0.352E+00    0.25       1.0  T
 209    -13.0538509 -0.300503E-01  0.275E+00    0.19       1.0  T
 210    -12.2158049  0.838046E+00  0.960E+00    0.00       1.0  T
 211    -13.0435998 -0.827795E+00  0.381E+00    0.21       1.0  T
 212    -13.0242267  0.193731E-01  0.351E+00    0.25       1.0  T
 213    -13.0541475 -0.299208E-01  0.274E+00    0.19       1.0  T
 214    -12.2158746  0.838273E+00  0.960E+00    0.00       1.0  T
 215    -13.0433161 -0.827441E+00  0.382E+00    0.21       1.0  T
 216    -13.0246479  0.186681E-01  0.350E+00    0.24       1.0  T
 217    -13.0544405 -0.297925E-01  0.274E+00    0.19       1.0  T
 218    -12.2159527  0.838488E+00  0.959E+00    0.00       1.0  T
 219    -13.0430270 -0.827074E+00  0.382E+00    0.21       1.0  T
 220    -13.0250635  0.179635E-01  0.349E+00    0.24       1.0  T
 221    -13.0547293 -0.296659E-01  0.273E+00    0.19       1.0  T
 222    -12.2160411  0.838688E+00  0.959E+00    0.00       1.0  T
 223    -13.0427333 -0.826692E+00  0.382E+00    0.21       1.0  T
 224    -13.0254726  0.172607E-01  0.348E+00    0.24       1.0  T
[...]
........................................................................
   1    -13.1195671 -0.131196E+02  0.108E-01    0.09       0.0  T
   2    -12.7578417  0.361725E+00  0.631E+00    0.01       1.0  T
   3    -13.1034634 -0.345622E+00  0.127E+00    0.12       1.0  T
   4    -13.1195209 -0.160576E-01  0.147E-01    0.09       1.0  T
   5    -13.1195886 -0.676209E-04  0.783E-02    0.09       1.0  T
   6    -13.1195998 -0.111953E-04  0.742E-02    0.09       1.0  T
   7    -13.1195596  0.401666E-04  0.879E-02    0.09       1.0  T
   8    -13.1196282 -0.685858E-04  0.425E-02    0.09       1.0  T
   9    -13.1196337 -0.549765E-05  0.242E-02    0.09       1.7  T
  10    -13.1196379 -0.421678E-05  0.190E-03    0.09      21.5  T
  11    -13.1196379  0.358609E-07  0.260E-03    0.09      15.7  T
     SCC iter.                  ...        0 min,  0.001 sec
     gradient                   ...        0 min,  0.000 sec
 * total energy  :   -13.0594715 Eh     change        0.3461043E-03 Eh
   gradient norm :     0.1507760 Eh/α   predicted    -0.1486693E-03 (-142.96%)
   displ. norm   :     0.0056629 α      lambda       -0.8278874E-03
   maximum displ.:     0.0043806 α      in ANC's #11, #12, #9, ...

........................................................................
.............................. CYCLE   23 ..............................
........................................................................
   1    -13.1193749 -0.131194E+02  0.143E-01    0.09       0.0  T
   2    -13.0146942  0.104681E+00  0.366E+00    0.20       1.0  T
   3    -13.1085598 -0.938656E-01  0.102E+00    0.12       1.0  T
   4    -13.1192438 -0.106840E-01  0.198E-01    0.09       1.0  T
   5    -13.1184666  0.777194E-03  0.322E-01    0.08       1.0  T
   6    -13.1103604  0.810618E-02  0.970E-01    0.07       1.0  T
   7    -13.1194154 -0.905503E-02  0.115E-01    0.09       1.0  T
   8    -13.1193742  0.412006E-04  0.139E-01    0.09       1.0  T
   9    -13.1194308 -0.565897E-04  0.115E-01    0.09       1.0  T
  10    -13.1195452 -0.114382E-03  0.309E-02    0.09       1.3  T
  11    -13.1195543 -0.909906E-05  0.223E-03    0.09      18.3  T
  12    -13.1195544 -0.509346E-07  0.150E-04    0.09     271.7  T
  13    -13.1195544  0.548551E-08  0.810E-04    0.09      50.4  T
     SCC iter.                  ...        0 min,  0.001 sec
     gradient                   ...        0 min,  0.001 sec
 * total energy  :   -13.0596076 Eh     change       -0.1361801E-03 Eh
   gradient norm :     0.1640162 Eh/α   predicted    -0.4139573E-03 ( 203.98%)
   displ. norm   :     0.0312260 α      lambda       -0.2016190E-02
   maximum displ.:     0.0222333 α      in ANC's #1, #12, #11, ...

........................................................................
.............................. CYCLE   24 ..............................
........................................................................
   1    -13.1194016 -0.131194E+02  0.193E-01    0.09       0.0  T
   2    -13.0107075  0.108694E+00  0.406E+00    0.18       1.0  T
   3    -12.8578868  0.152821E+00  0.514E+00    0.02       1.0  T
   4    -13.1175027 -0.259616E+00  0.452E-01    0.08       1.0  T
   5    -13.1179733 -0.470573E-03  0.478E-01    0.10       1.0  T
   6    -13.1191939 -0.122063E-02  0.208E-01    0.09       1.0  T
   7    -13.1194721 -0.278208E-03  0.111E-01    0.09       1.0  T
   8    -13.1195779 -0.105718E-03  0.202E-02    0.09       2.0  T
   9    -13.1195787 -0.859551E-06  0.146E-02    0.09       2.8  T
  10    -13.1195801 -0.137049E-05  0.386E-03    0.09      10.6  T
  11    -13.1195801  0.418765E-07  0.504E-03    0.09       8.1  T
     SCC iter.                  ...        0 min,  0.001 sec
     gradient                   ...        0 min,  0.000 sec
 * total energy  :   -13.0558108 Eh     change        0.3796841E-02 Eh
   gradient norm :     0.4646193 Eh/α   predicted    -0.1009078E-02 (-126.58%)
   displ. norm   :     0.0200544 α      lambda       -0.8112637E-02
   maximum displ.:     0.0185135 α      in ANC's #12, #1, #11, ...

........................................................................
.............................. CYCLE   25 ..............................
........................................................................
   1    -13.1190751 -0.131191E+02  0.266E-01    0.10       0.0  T
   2    -12.2139208  0.905154E+00  0.963E+00    0.00       1.0  T
   3    -13.0603406 -0.846420E+00  0.273E+00    0.09       1.0  T
   4    -13.1178702 -0.575297E-01  0.403E-01    0.08       1.0  T
   5    -13.1190345 -0.116430E-02  0.279E-01    0.10       1.0  T
   6    -13.1195414 -0.506920E-03  0.956E-02    0.09       1.0  T
   7    -13.1195634 -0.219685E-04  0.602E-02    0.09       1.0  T
   8    -13.1195417  0.217382E-04  0.844E-02    0.09       1.0  T
   9    -13.1195285  0.131407E-04  0.980E-02    0.09       1.0  T
  10    -13.1195795 -0.509690E-04  0.450E-02    0.09       1.0  T
  11    -13.1195906 -0.111148E-04  0.781E-03    0.09       5.2  T
  12    -13.1195908 -0.199123E-06  0.362E-03    0.09      11.3  T
  13    -13.1195909 -0.699400E-07  0.162E-03    0.09      25.3  T
     SCC iter.                  ...        0 min,  0.001 sec
     gradient                   ...        0 min,  0.001 sec
 * total energy  :   -13.0598588 Eh     change       -0.4048012E-02 Eh
   gradient norm :     0.0089002 Eh/α   predicted    -0.4057951E-02 (   0.25%)
   displ. norm   :     0.0222929 α      lambda       -0.6886802E-05
   maximum displ.:     0.0222819 α      in ANC's #1, #7, #9, ...

........................................................................
.............................. CYCLE   26 ..............................
........................................................................
   1    -13.1191598 -0.131192E+02  0.204E-01    0.09       0.0  T
   2    -13.0165078  0.102652E+00  0.360E+00    0.19       1.0  T
   3    -13.0697056 -0.531978E-01  0.220E+00    0.11       1.0  T
   4    -13.1175413 -0.478356E-01  0.510E-01    0.10       1.0  T
   5    -13.1128485  0.469274E-02  0.831E-01    0.08       1.0  T
   6    -13.1171393 -0.429076E-02  0.489E-01    0.08       1.0  T
   7    -13.1194041 -0.226482E-02  0.125E-01    0.09       1.0  T
   8    -13.1185866  0.817489E-03  0.330E-01    0.10       1.0  T
   9    -13.1180975  0.489059E-03  0.397E-01    0.10       1.0  T
  10    -13.1179711  0.126438E-03  0.414E-01    0.10       1.0  T
  11    -13.1193740 -0.140293E-02  0.146E-01    0.09       1.0  T
  12    -13.1195759 -0.201858E-03  0.115E-02    0.09       3.5  T
  13    -13.1195767 -0.796845E-06  0.673E-03    0.09       6.1  T
  14    -13.1195724  0.428282E-05  0.226E-02    0.09       1.8  T
  15    -13.1195756 -0.323059E-05  0.127E-02    0.09       3.2  T
  16    -13.1195771 -0.151251E-05  0.182E-04    0.09     223.9  T
  17    -13.1195771  0.362114E-08  0.647E-04    0.09      63.1  T
     SCC iter.                  ...        0 min,  0.001 sec
     gradient                   ...        0 min,  0.000 sec
 * total energy  :   -13.0598589 Eh     change       -0.8513818E-07 Eh
   gradient norm :     0.0009898 Eh/α   predicted    -0.3444396E-05 (3945.65%)
   displ. norm   :     0.0196766 α      lambda       -0.3905563E-05
   maximum displ.:     0.0196724 α      in ANC's #1, #7, #3, ...

   *** GEOMETRY OPTIMIZATION CONVERGED AFTER 26 ITERATIONS ***

------------------------------------------------------------------------
 total energy gain   :        -7.1496012 Eh    -4486.4425 kcal/mol
 total RMSD          :         0.3057208 a0        0.1618 Å
 total power (kW/mol):      -721.9721269 (step)********** (real)
------------------------------------------------------------------------

 ANCopt (total)                0 d,  0 h,  0 min,  0.553 sec
 optimizer setup                ...        0 min,  0.000 sec (  0.010%)
 model hessian                  ...        0 min,  0.000 sec (  0.024%)
 ANC generation                 ...        0 min,  0.000 sec (  0.024%)
 coordinate transformation      ...        0 min,  0.000 sec (  0.021%)
 single point calculation       ...        0 min,  0.550 sec ( 99.528%)
 optimization log               ...        0 min,  0.001 sec (  0.113%)
 hessian update                 ...        0 min,  0.000 sec (  0.016%)
 rational function              ...        0 min,  0.001 sec (  0.129%)

================
 final structure:
================
6
 xtb: 6.2.3 (830e466)
F        -4.61892107453114   -0.26771788540605    0.08575277237025
Cl        2.92268647900572    0.17526516955980   -0.05109301560039
C        -0.62621110935610   -0.03795970019971    0.01125334106056
H        -0.58798908216280   -0.61870370597825   -0.88416724708682
H        -0.56093485711899   -0.51850301992197    0.96274778480869
H        -0.67154035583971    1.02757914194586   -0.04577363555231
 
 Bond Distances (Angstroems)
 ---------------------------
C3-H4=1.0679         C3-H5=1.0680         C3-H6=1.0680         H4-C3=1.0679         H5-C3=1.0680         H6-C3=1.0680         
 C  H  Rav=1.0680 sigma=0.0000  Rmin=1.0679  Rmax=1.0680     3
 
 selected bond angles (degree)
 --------------------
H5-C3-H4=120.01                H6-C3-H4=119.95                H6-C3-H5=119.94                
 
 selected dihedral angles (degree)
 ---------------------------------

 
 CMA Distance (Angstroems)
 ---------------------------
R(CMA):  6.4981
           -------------------------------------------------
          |                Final Singlepoint                |
           -------------------------------------------------

          ...................................................
          :                      SETUP                      :
          :.................................................:
          :  # basis functions                  21          :
          :  # atomic orbitals                  20          :
          :  # shells                           10          :
          :  # electrons                        22          :
          :  max. iterations                   250          :
          :  Hamiltonian                  GFN2-xTB          :
          :  restarted?                      false          :
          :  GBSA solvation                  false          :
          :  PC potential                    false          :
          :  electronic temp.          300.0000000     K    :
          :  accuracy                    1.0000000          :
          :  -> integral cutoff          0.2500000E+02      :
          :  -> integral neglect         0.1000000E-07      :
          :  -> SCF convergence          0.1000000E-05 Eh   :
          :  -> wf. convergence          0.1000000E-03 e    :
          :  Broyden damping             0.4000000          :
          ...................................................

 iter      E             dE          RMSdq      gap      omega  full diag
   1    -13.1195771 -0.131196E+02  0.519E-04    0.09       0.0  T
   2    -13.1195763  0.816579E-06  0.101E-02    0.09       4.0  T
   3    -13.1195749  0.138382E-05  0.155E-02    0.09       2.6  T
   4    -13.1195762 -0.126988E-05  0.107E-02    0.09       3.8  T
   5    -13.1195771 -0.925016E-06  0.879E-04    0.09      46.5  T
   6    -13.1195771 -0.579121E-08  0.675E-05    0.09     605.0  T

   *** convergence criteria satisfied after 6 iterations ***

         #    Occupation            Energy/Eh            Energy/eV
      -------------------------------------------------------------
         1        2.0000           -0.8656235             -23.5548
       ...           ...                  ...                  ...
         5        2.0000           -0.3802558             -10.3473
         6        1.9997           -0.2496785              -6.7941
         7        1.9759           -0.2454478              -6.6790
         8        1.9759           -0.2454478              -6.6790
         9        1.8514           -0.2436578              -6.6303
        10        1.8430           -0.2436015              -6.6287
        11        1.8430           -0.2436015              -6.6287 (HOMO)
        12        0.5110           -0.2402455              -6.5374 (LUMO)
        13                          0.2244627               6.1079
        14                          0.2390017               6.5036
        15                          0.2392403               6.5101
        16                          0.2392403               6.5101
       ...                                ...                  ...
        20                          0.3929935              10.6939
      -------------------------------------------------------------
                  HL-Gap            0.0033560 Eh            0.0913 eV
             Fermi-level           -0.2412615 Eh           -6.5651 eV

 SCC (total)                   0 d,  0 h,  0 min,  0.002 sec
 SCC setup                      ...        0 min,  0.000 sec (  2.797%)
 Dispersion                     ...        0 min,  0.000 sec (  0.379%)
 integral evaluation            ...        0 min,  0.001 sec ( 34.427%)
 zeroth order Hamiltonian       ...        0 min,  0.000 sec (  0.654%)
 iterations                     ...        0 min,  0.000 sec ( 27.304%)
 molecular gradient             ...        0 min,  0.001 sec ( 27.526%)
 printout                       ...        0 min,  0.000 sec (  5.816%)

         :::::::::::::::::::::::::::::::::::::::::::::::::::::
         ::                     SUMMARY                     ::
         :::::::::::::::::::::::::::::::::::::::::::::::::::::
         :: total energy             -13.059858924232 Eh    ::
         :: gradient norm              0.000990659142 Eh/a0 ::
         :: HOMO-LUMO gap              0.091320236777 eV    ::
         ::.................................................::
         :: SCC energy               -13.119577143535 Eh    ::
         :: -> isotropic ES            0.154156816925 Eh    ::
         :: -> anisotropic ES         -0.000734702602 Eh    ::
         :: -> anisotropic XC          0.006747256984 Eh    ::
         :: -> dispersion             -0.001356884995 Eh    ::
         :: repulsion energy           0.059721112167 Eh    ::
         :: add. restraining           0.000000872791 Eh    ::
         :::::::::::::::::::::::::::::::::::::::::::::::::::::

           -------------------------------------------------
          |                Property Printout                |
           -------------------------------------------------

    * Orbital Energies and Occupations

         #    Occupation            Energy/Eh            Energy/eV
      -------------------------------------------------------------
         1        2.0000           -0.8656235             -23.5548
         2        2.0000           -0.5305067             -14.4358
         3        2.0000           -0.4784096             -13.0182
         4        2.0000           -0.3803279             -10.3492
         5        2.0000           -0.3802558             -10.3473
         6        1.9997           -0.2496785              -6.7941
         7        1.9759           -0.2454478              -6.6790
         8        1.9759           -0.2454478              -6.6790
         9        1.8514           -0.2436578              -6.6303
        10        1.8430           -0.2436015              -6.6287
        11        1.8430           -0.2436015              -6.6287 (HOMO)
        12        0.5110           -0.2402455              -6.5374 (LUMO)
        13                          0.2244627               6.1079
        14                          0.2390017               6.5036
        15                          0.2392403               6.5101
        16                          0.2392403               6.5101
        17                          0.2404679               6.5435
        18                          0.2404679               6.5435
        19                          0.3925127              10.6808
        20                          0.3929935              10.6939
      -------------------------------------------------------------
                  HL-Gap            0.0033560 Eh            0.0913 eV
             Fermi-level           -0.2412615 Eh           -6.5651 eV

     #   Z        covCN         q      C6AA      α(0)
     1   9 F      0.000    -0.532    15.797     4.629
     2  17 Cl     0.000    -0.621   112.463    16.140
     3   6 C      2.780    -0.090    30.230     9.005
     4   1 H      0.927     0.081     1.967     2.193
     5   1 H      0.927     0.081     1.967     2.193
     6   1 H      0.927     0.081     1.967     2.193

 Mol. C6AA /au·bohr⁶  :        583.057912
 Mol. C8AA /au·bohr⁸  :      16525.201689
 Mol. α(0) /au        :         36.353471


Wiberg/Mayer (AO) data.
largest (>0.10) Wiberg bond orders for each atom
          total WBO             WBO to atom ...
     1  F   0.006
     2  Cl  0.381        C    3 0.380
     3  C   3.361        H    6 0.992    H    4 0.992    H    5 0.992    Cl   2 0.380
     4  H   0.993        C    3 0.992
     5  H   0.993        C    3 0.992
     6  H   0.993        C    3 0.992

molecular dipole:
                 x           y           z       tot (Debye)
 q only:        1.041       0.053      -0.023
   full:        1.064       0.055      -0.023       2.710
molecular quadrupole (traceless):
                xx          xy          yy          xz          yz          zz
 q only:      -59.701      -5.258      29.711       1.634       0.096      29.990
  q+dip:      -60.523      -5.332      30.119       1.657       0.097      30.404
   full:      -59.533      -5.242      29.627       1.630       0.096      29.906

           -------------------------------------------------
          |                Geometry Summary                 |
           -------------------------------------------------

      molecular mass/u    :       69.4858989
   center of mass at/Å    :        0.0936812       0.0080740      -0.0002015
  moments of inertia/u·Å² :        0.3448039E+01   0.7178009E+03   0.7178021E+03
rotational constants/cm⁻¹ :        0.4889050E+01   0.2348511E-01   0.2348507E-01

 * 3 selected distances

     #   Z        #   Z                                     value/Å
     3   6 C      4   1 H                                 1.0679431 (min)
     3   6 C      5   1 H                                 1.0679534
     3   6 C      6   1 H                                 1.0680261 (max)

 * 1 distinct bonds (by element types)

   Z      Z             #   av. dist./Å        max./Å        min./Å
   1 H    6 C           3     1.0679742     1.0680261     1.0679431


optimized geometry written to: xtbopt.xyz


           -------------------------------------------------
          | TOTAL ENERGY              -13.059858924232 Eh   |
          | GRADIENT NORM               0.000990659142 Eh/α |
          | HOMO-LUMO GAP               0.091320236777 eV   |
           -------------------------------------------------
########################################################################
[WARNING] Runtime exception occurred
-5- scf: Self consistent charge iterator did not converge
-4- scf: Self consistent charge iterator did not converge
-3- scf: Self consistent charge iterator did not converge
-2- scf: Self consistent charge iterator did not converge
-1- scf: Self consistent charge iterator did not converge
########################################################################

------------------------------------------------------------------------
 * finished run on 2020/04/08 at 13:05:36.371     
------------------------------------------------------------------------
 total:
 * wall-time:     0 d,  0 h,  0 min,  0.703 sec
 *  cpu-time:     0 d,  0 h,  0 min,  0.681 sec
 * ratio c/w:     0.968 speedup
 SCF:
 * wall-time:     0 d,  0 h,  0 min,  0.126 sec
 *  cpu-time:     0 d,  0 h,  0 min,  0.124 sec
 * ratio c/w:     0.987 speedup
 ANC optimizer:
 * wall-time:     0 d,  0 h,  0 min,  0.555 sec
 *  cpu-time:     0 d,  0 h,  0 min,  0.550 sec
 * ratio c/w:     0.990 speedup

