      -----------------------------------------------------------      
     |                   =====================                   |     
     |                           x T B                           |     
     |                   =====================                   |     
     |                         S. Grimme                         |     
     |          Mulliken Center for Theoretical Chemistry        |     
     |                    University of Bonn                     |     
      -----------------------------------------------------------      

   * xtb version 6.2.3 (830e466) compiled by 'ehlert@majestix' on 2020-03-16

   xtb is free software: you can redistribute it and/or modify it under
   the terms of the GNU Lesser General Public License as published by
   the Free Software Foundation, either version 3 of the License, or
   (at your option) any later version.
   
   xtb is distributed in the hope that it will be useful,
   but WITHOUT ANY WARRANTY; without even the implied warranty of
   MERCHANTABILITY or FITNESS FOR A PARTICULAR PURPOSE.  See the
   GNU Lesser General Public License for more details.
   
   Cite this work as:
   * S. Grimme, C. Bannwarth, P. Shushkov, J. Chem. Theory Comput., 2017,
     13, 1989-2009. DOI: 10.1021/acs.jctc.7b00118
   * C. Bannwarth, S. Ehlert and S. Grimme., J. Chem. Theory Comput., 2019,
     15, 1652-1671. DOI: 10.1021/acs.jctc.8b01176
   * P. Pracht, E. Caldeweyher, S. Ehlert, S. Grimme, ChemRxiv, 2019, preprint.
     DOI: 10.26434/chemrxiv.8326202.v1
   
   for DFT-D4:
   * E. Caldeweyher, C. Bannwarth and S. Grimme, J. Chem. Phys., 2017,
     147, 034112. DOI: 10.1063/1.4993215
   * E. Caldeweyher, S. Ehlert, A. Hansen, H. Neugebauer, S. Spicher,
     C. Bannwarth and S. Grimme, J. Chem. Phys., 2019, 150, 154122.
     DOI: 10.1063/1.5090222
   
   for sTDA-xTB:
   * S. Grimme and C. Bannwarth, J. Chem. Phys., 2016, 145, 054103.
     DOI: 10.1063/1.4959605
   
   in the mass-spec context:
   * V. Asgeirsson, C. Bauer and S. Grimme, Chem. Sci., 2017, 8, 4879.
     DOI: 10.1039/c7sc00601b
   
   for metadynamics refer to:
   * S. Grimme, J. Chem. Theory Comput., 2019, 155, 2847-2862
     DOI: 10.1021/acs.jctc.9b00143
   
   with help from (in alphabetical order)
   C. Bannwarth, F. Bohle, G. Brandenburg, E. Caldeweyher, M. Checinski,
   S. Dohm, S. Ehlert, S. Ehrlich, F. März, H. Neugebauer, J. Pisarek,
   P. Pracht, P. Shushkov, and S. Spicher.
   
 * started run on 2020/04/08 at 13:05:37.658     

           -------------------------------------------------
          |                Calculation Setup                |
           -------------------------------------------------

          program call               : /home/tom/.local/bin/xtb SN2_PES_scan_3-2_xtb.xyz --chrg -1 --opt --input xcontrol_SN2_PES_scan_3-2
          coordinate file            : SN2_PES_scan_3-2_xtb.xyz
          omp threads                :                     1
          number of atoms            :                     6
          number of electrons        :                    22
          charge                     :                    -1
          spin                       :                   0.0
          first test random number   :      0.80625176221663

constraining bond 1 3 to    2.5000000 Å, actual value:    2.9997923 Å
constraining bond 2 3 to    2.6680000 Å, actual value:    2.2231143 Å

molecular fragmentation (1/2 indicates fragments):
122222
# atoms in fragment 1/2:     1     5
 fragment masses (1/2) :       19.00       50.49
CMA distance (Bohr)    :   8.595
constraining FC (au)   : 10.0000
########################################################################
[WARNING] Please study the warnings concerning your input carefully
-2- prog_main: XTBPATH is not set, using XTBHOME instead
-1- prog_main: XTBHOME is not set, using HOME instead
########################################################################
           ------------------------------------------------- 
          |                 G F N 2 - x T B                 |
          | Geometry, Frequencies, Noncovalent interactions |
          |            JCTC 2019 parametrisation            |
           ------------------------------------------------- 
             k(s)              :                1.8500
             k(p)              :                2.2300
             k(d)              :                2.2300
             k(f)              :                2.0000
             kEN (H0ij)        :               -2.0000
             D4 a1             :                0.5200
             D4 a2             :                5.0000
             D4 s6             :                1.0000
             D4 s8             :                2.7000
             D4 s9             :                5.0000
             alphaj            :                2.0000

  Z AO/shell   Hii/eV     exponent
  1     Wed Apr 25 08:07:45 CEST 2018   EN: 2.200 GM2: 0.406  GM3: 0.0800  RAES: 1.40
     1s    -10.707211    1.230000
  6     Wed Apr 25 08:07:45 CEST 2018   EN: 2.550 GM2: 0.538  GM3: 0.1500  RAES: 3.00
     2s    -13.970922    2.096432
     2p    -10.063292    1.800000
  9     Mon Apr 23 13:58:50 CEST 2018   EN: 3.980 GM2: 0.532  GM3: 0.1426  RAES: 2.40
     2s    -23.458179    2.416361
     2p    -15.746583    2.308399
 17     Mon Apr 23 14:09:22 CEST 2018   EN: 3.160 GM2: 0.249  GM3: 0.1495  RAES: 2.50
     3s    -29.278781    2.485265
     3p    -12.673758    2.199650
     3d     -0.240338    2.476089

           ------------------------------------------------- 
          |        Self-Consistent Charge Iterations        |
           ------------------------------------------------- 

          ...................................................
          :                      SETUP                      :
          :.................................................:
          :  # basis functions                  21          :
          :  # atomic orbitals                  20          :
          :  # shells                           10          :
          :  # electrons                        22          :
          :  max. iterations                   250          :
          :  Hamiltonian                  GFN2-xTB          :
          :  restarted?                      false          :
          :  GBSA solvation                  false          :
          :  PC potential                    false          :
          :  electronic temp.          300.0000000     K    :
          :  accuracy                    1.0000000          :
          :  -> integral cutoff          0.2500000E+02      :
          :  -> integral neglect         0.1000000E-07      :
          :  -> SCF convergence          0.1000000E-05 Eh   :
          :  -> wf. convergence          0.1000000E-03 e    :
          :  Broyden damping             0.4000000          :
          ...................................................

 iter      E             dE          RMSdq      gap      omega  full diag
   1    -13.0366693 -0.130367E+02  0.726E+00    2.28       0.0  T
   2    -12.0747698  0.961900E+00  0.953E+00    0.00       1.0  T
   3    -13.1366557 -0.106189E+01  0.368E+00    3.62       1.0  T
   4    -13.1473206 -0.106649E-01  0.282E+00    3.25       1.0  T
   5    -13.1623271 -0.150064E-01  0.130E+00    0.78       1.0  T
   6    -13.0600517  0.102275E+00  0.363E+00    0.15       1.0  T
   7    -12.8683095  0.191742E+00  0.552E+00    0.11       1.0  T
   8    -13.1567001 -0.288391E+00  0.166E+00    1.35       1.0  T
   9    -13.1607945 -0.409449E-02  0.138E+00    0.89       1.0  T
  10    -13.1603701  0.424447E-03  0.140E+00    0.91       1.0  T
  11    -13.0791206  0.812495E-01  0.338E+00    0.16       1.0  T
  12    -12.4448007  0.634320E+00  0.801E+00    0.06       1.0  T
  13    -13.1758032 -0.731002E+00  0.564E-01    0.40       1.0  T
  14    -12.8739627  0.301840E+00  0.543E+00    0.11       1.0  T
  15    -12.9496770 -0.757143E-01  0.479E+00    0.13       1.0  T
  16    -12.6202491  0.329428E+00  0.710E+00    0.08       1.0  T
  17    -13.0384229 -0.418174E+00  0.381E+00    0.15       1.0  T
  18    -12.5405339  0.497889E+00  0.752E+00    0.08       1.0  T
  19    -13.0172228 -0.476689E+00  0.405E+00    0.14       1.0  T
  20    -12.5792964  0.437926E+00  0.732E+00    0.08       1.0  T
  21    -12.8684096 -0.289113E+00  0.544E+00    0.12       1.0  T
  22    -12.6116931  0.256716E+00  0.713E+00    0.09       1.0  T
  23    -12.7593868 -0.147694E+00  0.623E+00    0.11       1.0  T
  24    -12.6669425  0.924443E-01  0.681E+00    0.10       1.0  T
  25    -12.7150299 -0.480874E-01  0.651E+00    0.10       1.0  T
  26    -12.7050715  0.995837E-02  0.657E+00    0.10       1.0  T
  27    -12.8637848 -0.158713E+00  0.542E+00    0.13       1.0  T
  28    -12.9552629 -0.914781E-01  0.460E+00    0.14       1.0  T
  29    -13.0451168 -0.898539E-01  0.361E+00    0.16       1.0  T
  30    -13.1128380 -0.677212E-01  0.262E+00    0.18       1.0  T
  31    -13.1514494 -0.386114E-01  0.176E+00    0.21       1.0  T
  32    -13.1693969 -0.179475E-01  0.104E+00    0.25       1.0  T
  33    -13.1780138 -0.861683E-02  0.314E-01    0.30       1.0  T
  34    -13.1787814 -0.767664E-03  0.604E-02    0.32       1.0  T
  35    -13.1788049 -0.234349E-04  0.138E-02    0.33       3.0  T
  36    -13.1787971  0.778115E-05  0.307E-02    0.33       1.3  T
  37    -13.1788006 -0.346416E-05  0.242E-02    0.33       1.7  T
  38    -13.1788037 -0.313351E-05  0.172E-02    0.33       2.4  T
  39    -13.1788047 -0.105937E-05  0.142E-02    0.33       2.9  T
  40    -13.1788065 -0.172632E-05  0.713E-03    0.33       5.7  T
  41    -13.1788070 -0.575816E-06  0.148E-03    0.32      27.5  T
  42    -13.1788070  0.468573E-07  0.234E-03    0.32      17.4  T
  43    -13.1788070 -0.395639E-07  0.113E-03    0.32      36.1  T
  44    -13.1788070 -0.105240E-07  0.485E-04    0.32      84.1  T
  45    -13.1788071 -0.236968E-08  0.860E-05    0.32     474.6  T

   *** convergence criteria satisfied after 45 iterations ***

         #    Occupation            Energy/Eh            Energy/eV
      -------------------------------------------------------------
         1        2.0000           -0.8901414             -24.2220
       ...           ...                  ...                  ...
         5        2.0000           -0.3467936              -9.4367
         6        2.0000           -0.3014488              -8.2028
         7        2.0000           -0.2629845              -7.1562
         8        2.0000           -0.2629837              -7.1561
         9        1.9993           -0.1502299              -4.0880
        10        1.9975           -0.1490689              -4.0564
        11        1.9975           -0.1490679              -4.0563 (HOMO)
        12        0.0057           -0.1371461              -3.7319 (LUMO)
        13                          0.2027586               5.5173
        14                          0.2027616               5.5174
        15                          0.2037876               5.5453
        16                          0.2037890               5.5454
       ...                                ...                  ...
        20                          0.4033112              10.9747
      -------------------------------------------------------------
                  HL-Gap            0.0119218 Eh            0.3244 eV
             Fermi-level           -0.1427120 Eh           -3.8834 eV

 SCC (total)                   0 d,  0 h,  0 min,  0.013 sec
 SCC setup                      ...        0 min,  0.000 sec (  0.541%)
 Dispersion                     ...        0 min,  0.000 sec (  0.102%)
 integral evaluation            ...        0 min,  0.001 sec (  5.529%)
 zeroth order Hamiltonian       ...        0 min,  0.000 sec (  0.134%)
 iterations                     ...        0 min,  0.011 sec ( 87.753%)
 molecular gradient             ...        0 min,  0.001 sec (  5.307%)
 printout                       ...        0 min,  0.000 sec (  0.444%)

         :::::::::::::::::::::::::::::::::::::::::::::::::::::
         ::                     SUMMARY                     ::
         :::::::::::::::::::::::::::::::::::::::::::::::::::::
         :: total energy               2.867546067167 Eh    ::
         :: gradient norm             43.722367790127 Eh/a0 ::
         :: HOMO-LUMO gap              0.324408711021 eV    ::
         ::.................................................::
         :: SCC energy               -13.178807050856 Eh    ::
         :: -> isotropic ES            0.194877317399 Eh    ::
         :: -> anisotropic ES          0.001228917533 Eh    ::
         :: -> anisotropic XC          0.004922148859 Eh    ::
         :: -> dispersion             -0.001890671492 Eh    ::
         :: repulsion energy           0.058140587352 Eh    ::
         :: add. restraining          15.988213621313 Eh    ::
         :::::::::::::::::::::::::::::::::::::::::::::::::::::

      ----------------------------------------------------------- 
     |                   =====================                   |
     |                        A N C O P T                        |
     |                   =====================                   |
     |               Approximate Normal Coordinate               |
     |                Rational Function Optimizer                |
      ----------------------------------------------------------- 

          ...................................................
          :                      SETUP                      :
          :.................................................:
          :   optimization level            normal          :
          :   max. optcycles                   200          :
          :   ANC micro-cycles                  20          :
          :   degrees of freedom                12          :
          :.................................................:
          :   RF solver                   davidson          :
          :   write xtbopt.log                true          :
          :   linear?                        false          :
          :   energy convergence         0.5000000E-05 Eh   :
          :   grad. convergence          0.1000000E-02 Eh/α :
          :   maximium RF displ.         1.0000000          :
          :   Hlow (freq-cutoff)         0.1000000E-01      :
          :   Hmax (freq-cutoff)         5.0000000          :
          :   S6 in model hess.         20.0000000          :
          ...................................................

generating ANC from model Hessian ...
Using Lindh-Hessian (1995)
 Shifting diagonal of input Hessian by    3.08820328564614     
 Lowest  eigenvalues of input Hessian
    0.010000    0.010190   -0.000000   -0.000000   -0.000000    0.000000
    0.000000    0.000000    3.130290    3.220934    3.220951    3.541338
    3.607618    3.607647    4.883469    4.883549   23.125181   63.278201
 Highest eigenvalues
    3.607618    3.607647    4.883469    4.883549   23.125181   63.278201
 

........................................................................
.............................. CYCLE    1 ..............................
........................................................................
   1    -13.1788071 -0.131788E+02  0.247E-05    0.32       0.0  T
   2    -13.1788071  0.103819E-09  0.105E-04    0.32     387.3  T
   3    -13.1788071 -0.677520E-10  0.703E-05    0.32     581.1  T
     SCC iter.                  ...        0 min,  0.000 sec
     gradient                   ...        0 min,  0.001 sec
 * total energy  :     2.8675461 Eh     change       -0.1885716E-08 Eh
   gradient norm :    43.7223643 Eh/α   predicted     0.0000000E+00 (-100.00%)
   displ. norm   :     0.9444546 α      lambda       -0.4129378E+02
   maximum displ.:     0.9438477 α      in ANC's #11, #12, #6, ...

........................................................................
.............................. CYCLE    2 ..............................
........................................................................
   1    -12.6744069 -0.126744E+02  0.917E+00    0.35       0.0  T
   2    -12.8695548 -0.195148E+00  0.867E+00    3.55       1.0  T
   3    -13.0931116 -0.223557E+00  0.410E+00    1.18       1.0  T
   4    -13.1432837 -0.501721E-01  0.200E+00    1.26       1.0  T
   5    -13.1339595  0.932422E-02  0.230E+00    0.91       1.0  T
   6    -13.1057698  0.281897E-01  0.375E+00    0.96       1.0  T
   7    -13.1221778 -0.164080E-01  0.286E+00    1.11       1.0  T
   8    -13.1490344 -0.268567E-01  0.151E+00    0.99       1.0  T
   9    -13.1527815 -0.374710E-02  0.134E+00    1.11       1.0  T
  10    -13.1611529 -0.837141E-02  0.526E-01    1.21       1.0  T
  11    -13.1599687  0.118420E-02  0.679E-01    1.15       1.0  T
  12    -13.1614326 -0.146385E-02  0.433E-01    1.15       1.0  T
  13    -13.1622917 -0.859125E-03  0.177E-01    1.16       1.0  T
  14    -13.1624418 -0.150089E-03  0.650E-02    1.16       1.0  T
  15    -13.1624634 -0.215738E-04  0.145E-02    1.17       2.8  T
  16    -13.1624600  0.335430E-05  0.279E-02    1.17       1.5  T
  17    -13.1624636 -0.360386E-05  0.127E-02    1.17       3.2  T
  18    -13.1624645 -0.928355E-06  0.256E-04    1.17     159.3  T
  19    -13.1624645  0.969672E-09  0.484E-04    1.17      84.4  T
     SCC iter.                  ...        0 min,  0.002 sec
     gradient                   ...        0 min,  0.001 sec
 * total energy  :   -11.6988291 Eh     change       -0.1456638E+02 Eh
   gradient norm :    12.9309014 Eh/α   predicted    -0.3906380E+02 ( 168.18%)
   displ. norm   :     0.2409539 α      lambda       -0.2773338E+01
   maximum displ.:     0.2069055 α      in ANC's #11, #12, #3, ...

........................................................................
.............................. CYCLE    3 ..............................
........................................................................
   1    -13.1586870 -0.131587E+02  0.174E+00    1.37       0.0  T
   2    -13.0500460  0.108641E+00  0.429E+00    0.55       1.0  T
   3    -13.1601385 -0.110092E+00  0.158E+00    1.35       1.0  T
   4    -13.1718204 -0.116818E-01  0.415E-01    1.15       1.0  T
   5    -13.1729190 -0.109859E-02  0.167E-01    1.04       1.0  T
   6    -13.1729480 -0.290495E-04  0.688E-02    1.04       1.0  T
   7    -13.1729709 -0.229159E-04  0.298E-02    1.05       1.4  T
   8    -13.1729748 -0.389325E-05  0.138E-02    1.05       3.0  T
   9    -13.1729751 -0.253659E-06  0.808E-03    1.05       5.1  T
  10    -13.1729754 -0.368157E-06  0.224E-03    1.05      18.3  T
  11    -13.1729754 -0.145630E-07  0.937E-05    1.05     435.5  T
     SCC iter.                  ...        0 min,  0.007 sec
     gradient                   ...        0 min,  0.001 sec
 * total energy  :   -13.0376153 Eh     change       -0.1338786E+01 Eh
   gradient norm :     1.6968633 Eh/α   predicted    -0.1467178E+01 (   9.59%)
   displ. norm   :     0.2677647 α      lambda       -0.4503858E+00
   maximum displ.:     0.2638043 α      in ANC's #12, #11, #6, ...

........................................................................
.............................. CYCLE    4 ..............................
........................................................................
   1    -13.1638993 -0.131639E+02  0.587E-01    0.73       0.0  T
   2    -13.1559708  0.792850E-02  0.128E+00    0.96       1.0  T
   3    -13.1624592 -0.648840E-02  0.649E-01    0.68       1.0  T
   4    -13.1648318 -0.237253E-02  0.161E-01    0.75       1.0  T
   5    -13.1648661 -0.343505E-04  0.648E-02    0.75       1.0  T
   6    -13.1648942 -0.280856E-04  0.188E-02    0.77       2.2  T
   7    -13.1648955 -0.127322E-05  0.442E-03    0.76       9.2  T
   8    -13.1648955 -0.120867E-07  0.340E-03    0.76      12.0  T
     SCC iter.                  ...        0 min,  0.001 sec
     gradient                   ...        0 min,  0.001 sec
 * total energy  :   -12.7298596 Eh     change        0.3077556E+00 Eh
   gradient norm :     4.2838738 Eh/α   predicted    -0.2413387E+00 (-178.42%)
   displ. norm   :     0.1801491 α      lambda       -0.7267062E+00
   maximum displ.:     0.1763603 α      in ANC's #12, #11, #1, ...

........................................................................
.............................. CYCLE    5 ..............................
........................................................................
   1    -13.1693009 -0.131693E+02  0.361E-01    0.97       0.0  T
   2    -13.1676168  0.168410E-02  0.600E-01    0.87       1.0  T
   3    -13.1689406 -0.132382E-02  0.363E-01    1.02       1.0  T
   4    -13.1695693 -0.628709E-03  0.133E-01    0.97       1.0  T
   5    -13.1696292 -0.599235E-04  0.232E-02    0.95       1.8  T
   6    -13.1696317 -0.249022E-05  0.611E-03    0.95       6.7  T
   7    -13.1696318 -0.423443E-07  0.261E-03    0.95      15.7  T
   8    -13.1696318  0.377853E-08  0.208E-03    0.96      19.6  T
     SCC iter.                  ...        0 min,  0.001 sec
     gradient                   ...        0 min,  0.001 sec
 * total energy  :   -13.1050410 Eh     change       -0.3751814E+00 Eh
   gradient norm :     0.1323832 Eh/α   predicted    -0.3751453E+00 (  -0.01%)
   displ. norm   :     0.0109701 α      lambda       -0.9325946E-03
   maximum displ.:     0.0071896 α      in ANC's #1, #12, #6, ...

........................................................................
.............................. CYCLE    6 ..............................
........................................................................
   1    -13.1694382 -0.131694E+02  0.343E-02    0.97       0.0  T
   2    -13.1693818  0.564103E-04  0.102E-01    0.94       1.0  T
   3    -13.1694434 -0.615647E-04  0.990E-03    0.96       4.1  T
   4    -13.1694436 -0.229388E-06  0.494E-03    0.96       8.3  T
   5    -13.1694437 -0.607072E-07  0.126E-03    0.96      32.5  T
     SCC iter.                  ...        0 min,  0.001 sec
     gradient                   ...        0 min,  0.001 sec
 * total energy  :   -13.1055443 Eh     change       -0.5032526E-03 Eh
   gradient norm :     0.0170152 Eh/α   predicted    -0.4663532E-03 (  -7.33%)
   displ. norm   :     0.1553639 α      lambda       -0.3552497E-03
   maximum displ.:     0.1551748 α      in ANC's #1, #6, #3, ...

........................................................................
.............................. CYCLE    7 ..............................
........................................................................
   1    -13.1680487 -0.131680E+02  0.241E-01    0.97       0.0  T
   2    -13.1680168  0.318408E-04  0.174E-01    0.95       1.0  T
   3    -13.1674632  0.553644E-03  0.337E-01    1.02       1.0  T
   4    -13.1680701 -0.606930E-03  0.325E-02    0.96       1.3  T
   5    -13.1680694  0.654355E-06  0.236E-02    0.96       1.7  T
   6    -13.1680713 -0.186464E-05  0.773E-03    0.96       5.3  T
   7    -13.1680716 -0.254740E-06  0.335E-03    0.96      12.2  T
   8    -13.1680716 -0.520542E-07  0.117E-03    0.96      35.0  T
   9    -13.1680716 -0.150606E-08  0.674E-04    0.96      60.6  T
     SCC iter.                  ...        0 min,  0.001 sec
     gradient                   ...        0 min,  0.001 sec
 * total energy  :   -13.1034796 Eh     change        0.2064619E-02 Eh
   gradient norm :     0.0752584 Eh/α   predicted    -0.1819063E-03 (-108.81%)
   displ. norm   :     0.1394948 α      lambda       -0.4141847E-02
   maximum displ.:     0.1393719 α      in ANC's #1, #2, #6, ...

........................................................................
.............................. CYCLE    8 ..............................
........................................................................
   1    -13.1688258 -0.131688E+02  0.217E-01    0.97       0.0  T
   2    -13.1688166  0.926042E-05  0.147E-01    0.95       1.0  T
   3    -13.1682767  0.539866E-03  0.314E-01    1.02       1.0  T
   4    -13.1688413 -0.564548E-03  0.274E-02    0.96       1.5  T
   5    -13.1688410  0.299905E-06  0.196E-02    0.96       2.1  T
   6    -13.1688423 -0.133912E-05  0.422E-03    0.96       9.7  T
   7    -13.1688423 -0.526554E-07  0.252E-03    0.96      16.2  T
     SCC iter.                  ...        0 min,  0.001 sec
     gradient                   ...        0 min,  0.001 sec
 * total energy  :   -13.1056694 Eh     change       -0.2189800E-02 Eh
   gradient norm :     0.0284049 Eh/α   predicted    -0.2111224E-02 (  -3.59%)
   displ. norm   :     0.0942808 α      lambda       -0.2193293E-03
   maximum displ.:     0.0926280 α      in ANC's #2, #1, #6, ...

........................................................................
.............................. CYCLE    9 ..............................
........................................................................
   1    -13.1680868 -0.131681E+02  0.156E-01    0.96       0.0  T
   2    -13.1680717  0.151073E-04  0.113E-01    0.95       1.0  T
   3    -13.1678227  0.248945E-03  0.224E-01    1.00       1.0  T
   4    -13.1680950 -0.272319E-03  0.169E-02    0.96       2.4  T
   5    -13.1680948  0.281386E-06  0.113E-02    0.96       3.6  T
   6    -13.1680952 -0.445207E-06  0.342E-03    0.96      12.0  T
   7    -13.1680952 -0.338112E-07  0.204E-03    0.96      20.0  T
     SCC iter.                  ...        0 min,  0.001 sec
     gradient                   ...        0 min,  0.001 sec
 * total energy  :   -13.1049765 Eh     change        0.6929336E-03 Eh
   gradient norm :     0.0454699 Eh/α   predicted    -0.1106423E-03 (-115.97%)
   displ. norm   :     0.0871902 α      lambda       -0.1710457E-02
   maximum displ.:     0.0863408 α      in ANC's #2, #6, #1, ...

........................................................................
.............................. CYCLE   10 ..............................
........................................................................
   1    -13.1677885 -0.131678E+02  0.151E-01    0.97       0.0  T
   2    -13.1677145  0.739545E-04  0.152E-01    0.94       1.0  T
   3    -13.1676878  0.267593E-04  0.155E-01    0.99       1.0  T
   4    -13.1678008 -0.113056E-03  0.165E-02    0.96       2.5  T
   5    -13.1678006  0.253453E-06  0.121E-02    0.96       3.4  T
   6    -13.1678013 -0.691734E-06  0.310E-03    0.96      13.2  T
   7    -13.1678013 -0.360353E-07  0.157E-03    0.96      26.1  T
     SCC iter.                  ...        0 min,  0.001 sec
     gradient                   ...        0 min,  0.001 sec
 * total energy  :   -13.1058860 Eh     change       -0.9094983E-03 Eh
   gradient norm :     0.0173178 Eh/α   predicted    -0.8617333E-03 (  -5.25%)
   displ. norm   :     0.0189038 α      lambda       -0.2079139E-03
   maximum displ.:     0.0126010 α      in ANC's #1, #6, #3, ...

........................................................................
.............................. CYCLE   11 ..............................
........................................................................
   1    -13.1671224 -0.131671E+02  0.506E-02    0.97       0.0  T
   2    -13.1669968  0.125670E-03  0.152E-01    0.94       1.0  T
   3    -13.1671343 -0.137513E-03  0.147E-02    0.96       2.8  T
   4    -13.1671343 -0.519158E-07  0.416E-03    0.96       9.8  T
   5    -13.1671344 -0.374267E-07  0.205E-03    0.96      19.9  T
   6    -13.1671344 -0.601268E-08  0.809E-04    0.96      50.5  T
     SCC iter.                  ...        0 min,  0.001 sec
     gradient                   ...        0 min,  0.001 sec
 * total energy  :   -13.1060525 Eh     change       -0.1665009E-03 Eh
   gradient norm :     0.0203026 Eh/α   predicted    -0.1039935E-03 ( -37.54%)
   displ. norm   :     0.0544271 α      lambda       -0.5917895E-03
   maximum displ.:     0.0408127 α      in ANC's #6, #3, #2, ...

........................................................................
.............................. CYCLE   12 ..............................
........................................................................
   1    -13.1639685 -0.131640E+02  0.180E-01    1.00       0.0  T
   2    -13.1619117  0.205689E-02  0.603E-01    0.86       1.0  T
   3    -13.1641372 -0.222551E-02  0.413E-02    0.97       1.0  T
   4    -13.1641385 -0.133018E-05  0.132E-02    0.96       3.1  T
   5    -13.1641395 -0.976306E-06  0.357E-03    0.96      11.4  T
   6    -13.1641395 -0.341141E-07  0.218E-03    0.96      18.7  T
     SCC iter.                  ...        0 min,  0.004 sec
     gradient                   ...        0 min,  0.001 sec
 * total energy  :   -13.1064573 Eh     change       -0.4047882E-03 Eh
   gradient norm :     0.0261958 Eh/α   predicted    -0.2967704E-03 ( -26.69%)
   displ. norm   :     0.0423620 α      lambda       -0.2892161E-03
   maximum displ.:     0.0298593 α      in ANC's #6, #3, #2, ...

........................................................................
.............................. CYCLE   13 ..............................
........................................................................
   1    -13.1619790 -0.131620E+02  0.133E-01    0.99       0.0  T
   2    -13.1608876  0.109139E-02  0.440E-01    0.89       1.0  T
   3    -13.1620731 -0.118549E-02  0.310E-02    0.96       1.3  T
   4    -13.1620732 -0.106314E-06  0.141E-02    0.96       2.9  T
   5    -13.1620737 -0.461351E-06  0.396E-03    0.96      10.3  T
   6    -13.1620737 -0.720808E-07  0.206E-03    0.96      19.8  T
     SCC iter.                  ...        0 min,  0.001 sec
     gradient                   ...        0 min,  0.001 sec
 * total energy  :   -13.1066543 Eh     change       -0.1969904E-03 Eh
   gradient norm :     0.0232536 Eh/α   predicted    -0.1448669E-03 ( -26.46%)
   displ. norm   :     0.0300778 α      lambda       -0.1796409E-03
   maximum displ.:     0.0237951 α      in ANC's #3, #6, #2, ...

........................................................................
.............................. CYCLE   14 ..............................
........................................................................
   1    -13.1613261 -0.131613E+02  0.777E-02    0.98       0.0  T
   2    -13.1610005  0.325599E-03  0.242E-01    0.92       1.0  T
   3    -13.1613567 -0.356189E-03  0.240E-02    0.96       1.7  T
   4    -13.1613565  0.125382E-06  0.158E-02    0.96       2.6  T
   5    -13.1613570 -0.422050E-06  0.192E-03    0.96      21.3  T
   6    -13.1613570 -0.383558E-08  0.136E-03    0.96      30.1  T
     SCC iter.                  ...        0 min,  0.000 sec
     gradient                   ...        0 min,  0.001 sec
 * total energy  :   -13.1067942 Eh     change       -0.1399378E-03 Eh
   gradient norm :     0.0170645 Eh/α   predicted    -0.8989991E-04 ( -35.76%)
   displ. norm   :     0.0461572 α      lambda       -0.3075125E-03
   maximum displ.:     0.0408594 α      in ANC's #3, #6, #2, ...

........................................................................
.............................. CYCLE   15 ..............................
........................................................................
   1    -13.1614060 -0.131614E+02  0.101E-01    0.98       0.0  T
   2    -13.1609750  0.430977E-03  0.280E-01    0.91       1.0  T
   3    -13.1614497 -0.474678E-03  0.412E-02    0.96       1.0  T
   4    -13.1614507 -0.101579E-05  0.280E-02    0.96       1.5  T
   5    -13.1614515 -0.823028E-06  0.300E-03    0.96      13.6  T
   6    -13.1614515 -0.187408E-07  0.176E-03    0.96      23.2  T
   7    -13.1614515 -0.121791E-07  0.564E-04    0.96      72.3  T
     SCC iter.                  ...        0 min,  0.001 sec
     gradient                   ...        0 min,  0.001 sec
 * total energy  :   -13.1070257 Eh     change       -0.2314533E-03 Eh
   gradient norm :     0.0291588 Eh/α   predicted    -0.1540853E-03 ( -33.43%)
   displ. norm   :     0.0588644 α      lambda       -0.4104873E-03
   maximum displ.:     0.0570151 α      in ANC's #3, #2, #6, ...

........................................................................
.............................. CYCLE   16 ..............................
........................................................................
   1    -13.1627790 -0.131628E+02  0.117E-01    0.97       0.0  T
   2    -13.1624512  0.327790E-03  0.250E-01    0.91       1.0  T
   3    -13.1628127 -0.361522E-03  0.700E-02    0.96       1.0  T
   4    -13.1628262 -0.135059E-04  0.390E-02    0.95       1.0  T
   5    -13.1628281 -0.188815E-05  0.351E-03    0.95      11.6  T
   6    -13.1628281 -0.330766E-07  0.179E-03    0.96      22.9  T
     SCC iter.                  ...        0 min,  0.000 sec
     gradient                   ...        0 min,  0.001 sec
 * total energy  :   -13.1073355 Eh     change       -0.3098003E-03 Eh
   gradient norm :     0.0434855 Eh/α   predicted    -0.2059523E-03 ( -33.52%)
   displ. norm   :     0.0678000 α      lambda       -0.4808247E-03
   maximum displ.:     0.0677253 α      in ANC's #3, #2, #1, ...

........................................................................
.............................. CYCLE   17 ..............................
........................................................................
   1    -13.1654697 -0.131655E+02  0.135E-01    0.96       0.0  T
   2    -13.1653357  0.133944E-03  0.181E-01    0.92       1.0  T
   3    -13.1654353 -0.995398E-04  0.127E-01    0.97       1.0  T
   4    -13.1655145 -0.792091E-04  0.495E-02    0.95       1.0  T
   5    -13.1655193 -0.479743E-05  0.357E-03    0.95      11.4  T
   6    -13.1655193 -0.224531E-07  0.157E-03    0.95      26.0  T
     SCC iter.                  ...        0 min,  0.000 sec
     gradient                   ...        0 min,  0.001 sec
 * total energy  :   -13.1076657 Eh     change       -0.3302662E-03 Eh
   gradient norm :     0.0365207 Eh/α   predicted    -0.2415163E-03 ( -26.87%)
   displ. norm   :     0.0352055 α      lambda       -0.2011751E-03
   maximum displ.:     0.0320060 α      in ANC's #3, #2, #6, ...

........................................................................
.............................. CYCLE   18 ..............................
........................................................................
   1    -13.1675146 -0.131675E+02  0.729E-02    0.95       0.0  T
   2    -13.1675174 -0.277471E-05  0.544E-02    0.95       1.0  T
   3    -13.1675240 -0.658664E-05  0.246E-02    0.95       1.7  T
   4    -13.1675079  0.161164E-04  0.564E-02    0.94       1.0  T
   5    -13.1675254 -0.175684E-04  0.227E-03    0.95      18.0  T
   6    -13.1675254 -0.467570E-08  0.427E-04    0.95      95.5  T
   7    -13.1675254 -0.198774E-10  0.319E-04    0.95     128.0  T
     SCC iter.                  ...        0 min,  0.001 sec
     gradient                   ...        0 min,  0.001 sec
 * total energy  :   -13.1077871 Eh     change       -0.1214025E-03 Eh
   gradient norm :     0.0138489 Eh/α   predicted    -0.1007113E-03 ( -17.04%)
   displ. norm   :     0.0079994 α      lambda       -0.2096125E-04
   maximum displ.:     0.0072865 α      in ANC's #2, #6, #1, ...

........................................................................
.............................. CYCLE   19 ..............................
........................................................................
   1    -13.1678937 -0.131679E+02  0.145E-02    0.95       0.0  T
   2    -13.1678927  0.103955E-05  0.165E-02    0.95       2.5  T
   3    -13.1678929 -0.245557E-06  0.147E-02    0.95       2.8  T
   4    -13.1678938 -0.903755E-06  0.558E-03    0.95       7.3  T
   5    -13.1678939 -0.121954E-06  0.104E-03    0.95      39.4  T
   6    -13.1678939 -0.123029E-08  0.212E-04    0.95     192.5  T
     SCC iter.                  ...        0 min,  0.000 sec
     gradient                   ...        0 min,  0.001 sec
 * total energy  :   -13.1077993 Eh     change       -0.1219000E-04 Eh
   gradient norm :     0.0029542 Eh/α   predicted    -0.1047998E-04 ( -14.03%)
   displ. norm   :     0.0031699 α      lambda       -0.1400638E-05
   maximum displ.:     0.0025444 α      in ANC's #3, #2, #1, ...

........................................................................
.............................. CYCLE   20 ..............................
........................................................................
   1    -13.1678666 -0.131679E+02  0.569E-03    0.95       0.0  T
   2    -13.1678664  0.262927E-06  0.761E-03    0.95       5.4  T
   3    -13.1678666 -0.199416E-06  0.536E-03    0.95       7.6  T
   4    -13.1678667 -0.128652E-06  0.192E-03    0.95      21.3  T
   5    -13.1678667 -0.335053E-08  0.277E-04    0.95     147.6  T
   6    -13.1678667 -0.895586E-10  0.799E-05    0.95     511.2  T
     SCC iter.                  ...        0 min,  0.000 sec
     gradient                   ...        0 min,  0.001 sec
 * total energy  :   -13.1078001 Eh     change       -0.7862189E-06 Eh
   gradient norm :     0.0002434 Eh/α   predicted    -0.7002246E-06 ( -10.94%)
   displ. norm   :     0.0013354 α      lambda       -0.5075441E-07
   maximum displ.:     0.0013189 α      in ANC's #3, #2, #6, ...

   *** GEOMETRY OPTIMIZATION CONVERGED AFTER 20 ITERATIONS ***

------------------------------------------------------------------------
 total energy gain   :       -15.9753462 Eh   -10024.6811 kcal/mol
 total RMSD          :         0.3302791 a0        0.1748 Å
 total power (kW/mol):     -2097.1632829 (step)********** (real)
------------------------------------------------------------------------

 ANCopt (total)                0 d,  0 h,  0 min,  0.097 sec
 optimizer setup                ...        0 min,  0.000 sec (  0.059%)
 model hessian                  ...        0 min,  0.000 sec (  0.092%)
 ANC generation                 ...        0 min,  0.000 sec (  0.072%)
 coordinate transformation      ...        0 min,  0.000 sec (  0.104%)
 single point calculation       ...        0 min,  0.094 sec ( 97.554%)
 optimization log               ...        0 min,  0.001 sec (  0.667%)
 hessian update                 ...        0 min,  0.000 sec (  0.083%)
 rational function              ...        0 min,  0.001 sec (  0.730%)

================
 final structure:
================
6
 xtb: 6.2.3 (830e466)
F        -3.19330389924658   -0.18336959072703    0.06048712252634
Cl        1.96355114328930    0.12151505419320   -0.02819523011935
C        -0.69840440926792   -0.04271580025487    0.01121374465899
H        -0.71628407673846   -0.62636932650533   -0.88223901552052
H        -0.69485143662963   -0.52691046218207    0.96241964350281
H        -0.80363732140671    1.01778012547610   -0.04497626504826
 
 Bond Distances (Angstroems)
 ---------------------------
C3-H4=1.0673         C3-H5=1.0674         C3-H6=1.0672         H4-C3=1.0673         H5-C3=1.0674         H6-C3=1.0672         
 C  H  Rav=1.0673 sigma=0.0001  Rmin=1.0672  Rmax=1.0674     3
 
 selected bond angles (degree)
 --------------------
H5-C3-H4=119.87                H6-C3-H4=119.85                H6-C3-H5=119.87                
 
 selected dihedral angles (degree)
 ---------------------------------

 
 CMA Distance (Angstroems)
 ---------------------------
R(CMA):  4.3699
           -------------------------------------------------
          |                Final Singlepoint                |
           -------------------------------------------------

          ...................................................
          :                      SETUP                      :
          :.................................................:
          :  # basis functions                  21          :
          :  # atomic orbitals                  20          :
          :  # shells                           10          :
          :  # electrons                        22          :
          :  max. iterations                   250          :
          :  Hamiltonian                  GFN2-xTB          :
          :  restarted?                      false          :
          :  GBSA solvation                  false          :
          :  PC potential                    false          :
          :  electronic temp.          300.0000000     K    :
          :  accuracy                    1.0000000          :
          :  -> integral cutoff          0.2500000E+02      :
          :  -> integral neglect         0.1000000E-07      :
          :  -> SCF convergence          0.1000000E-05 Eh   :
          :  -> wf. convergence          0.1000000E-03 e    :
          :  Broyden damping             0.4000000          :
          ...................................................

 iter      E             dE          RMSdq      gap      omega  full diag
   1    -13.1678667 -0.131679E+02  0.472E-05    0.95       0.0  T
   2    -13.1678667  0.613554E-11  0.516E-05    0.95     790.7  T
   3    -13.1678667 -0.393996E-11  0.460E-05    0.95     887.0  T

   *** convergence criteria satisfied after 3 iterations ***

         #    Occupation            Energy/Eh            Energy/eV
      -------------------------------------------------------------
         1        2.0000           -0.8529935             -23.2111
       ...           ...                  ...                  ...
         5        2.0000           -0.3490747              -9.4988
         6        2.0000           -0.2529403              -6.8829
         7        2.0000           -0.2334020              -6.3512
         8        2.0000           -0.2334013              -6.3512
         9        2.0000           -0.2141358              -5.8269
        10        2.0000           -0.2094245              -5.6987
        11        2.0000           -0.2094239              -5.6987 (HOMO)
        12                         -0.1745289              -4.7492 (LUMO)
        13                          0.2523481               6.8667
        14                          0.2523488               6.8668
        15                          0.2533547               6.8941
        16                          0.2534618               6.8970
       ...                                ...                  ...
        20                          0.4266272              11.6091
      -------------------------------------------------------------
                  HL-Gap            0.0348950 Eh            0.9495 eV
             Fermi-level           -0.1916457 Eh           -5.2149 eV

 SCC (total)                   0 d,  0 h,  0 min,  0.002 sec
 SCC setup                      ...        0 min,  0.000 sec (  2.580%)
 Dispersion                     ...        0 min,  0.000 sec (  0.416%)
 integral evaluation            ...        0 min,  0.001 sec ( 33.231%)
 zeroth order Hamiltonian       ...        0 min,  0.000 sec (  0.770%)
 iterations                     ...        0 min,  0.001 sec ( 26.874%)
 molecular gradient             ...        0 min,  0.001 sec ( 32.510%)
 printout                       ...        0 min,  0.000 sec (  2.506%)

         :::::::::::::::::::::::::::::::::::::::::::::::::::::
         ::                     SUMMARY                     ::
         :::::::::::::::::::::::::::::::::::::::::::::::::::::
         :: total energy             -13.107800115721 Eh    ::
         :: gradient norm              0.000243583094 Eh/a0 ::
         :: HOMO-LUMO gap              0.949541164538 eV    ::
         ::.................................................::
         :: SCC energy               -13.167866688814 Eh    ::
         :: -> isotropic ES            0.172827134545 Eh    ::
         :: -> anisotropic ES          0.000876389271 Eh    ::
         :: -> anisotropic XC          0.005320023414 Eh    ::
         :: -> dispersion             -0.001887148115 Eh    ::
         :: repulsion energy           0.060035237440 Eh    ::
         :: add. restraining           0.000032331339 Eh    ::
         :::::::::::::::::::::::::::::::::::::::::::::::::::::

           -------------------------------------------------
          |                Property Printout                |
           -------------------------------------------------

    * Orbital Energies and Occupations

         #    Occupation            Energy/Eh            Energy/eV
      -------------------------------------------------------------
         1        2.0000           -0.8529935             -23.2111
         2        2.0000           -0.4940031             -13.4425
         3        2.0000           -0.4442820             -12.0895
         4        2.0000           -0.3491456              -9.5007
         5        2.0000           -0.3490747              -9.4988
         6        2.0000           -0.2529403              -6.8829
         7        2.0000           -0.2334020              -6.3512
         8        2.0000           -0.2334013              -6.3512
         9        2.0000           -0.2141358              -5.8269
        10        2.0000           -0.2094245              -5.6987
        11        2.0000           -0.2094239              -5.6987 (HOMO)
        12                         -0.1745289              -4.7492 (LUMO)
        13                          0.2523481               6.8667
        14                          0.2523488               6.8668
        15                          0.2533547               6.8941
        16                          0.2534618               6.8970
        17                          0.2534619               6.8970
        18                          0.2611324               7.1058
        19                          0.4263239              11.6009
        20                          0.4266272              11.6091
      -------------------------------------------------------------
                  HL-Gap            0.0348950 Eh            0.9495 eV
             Fermi-level           -0.1916457 Eh           -5.2149 eV

     #   Z        covCN         q      C6AA      α(0)
     1   9 F      0.000    -0.601    16.845     4.780
     2  17 Cl     0.050    -0.650   113.518    16.215
     3   6 C      2.831    -0.025    28.610     8.765
     4   1 H      0.927     0.092     1.862     2.134
     5   1 H      0.927     0.092     1.857     2.131
     6   1 H      0.927     0.092     1.856     2.130

 Mol. C6AA /au·bohr⁶  :        578.681463
 Mol. C8AA /au·bohr⁸  :      16430.388160
 Mol. α(0) /au        :         36.155765


Wiberg/Mayer (AO) data.
largest (>0.10) Wiberg bond orders for each atom
          total WBO             WBO to atom ...
     1  F   0.638        C    3 0.498    Cl   2 0.140
     2  Cl  0.578        C    3 0.438    F    1 0.140
     3  C   3.907        H    4 0.990    H    5 0.990    H    6 0.990    F    1 0.498    Cl   2 0.438
     4  H   0.992        C    3 0.990
     5  H   0.991        C    3 0.990
     6  H   0.991        C    3 0.990

molecular dipole:
                 x           y           z       tot (Debye)
 q only:        0.864       0.038      -0.028
   full:        0.937       0.043      -0.029       2.386
molecular quadrupole (traceless):
                xx          xy          yy          xz          yz          zz
 q only:      -30.860      -2.725      15.358       0.814       0.046      15.502
  q+dip:      -31.298      -2.761      15.576       0.827       0.046      15.722
   full:      -30.458      -2.685      15.158       0.808       0.046      15.300

           -------------------------------------------------
          |                Geometry Summary                 |
           -------------------------------------------------

      molecular mass/u    :       69.4858989
   center of mass at/Å    :       -0.0241017       0.0025144       0.0046013
  moments of inertia/u·Å² :        0.3440676E+01   0.3408935E+03   0.3408943E+03
rotational constants/cm⁻¹ :        0.4899512E+01   0.4945131E-01   0.4945121E-01

 * 3 selected distances

     #   Z        #   Z                                     value/Å
     3   6 C      4   1 H                                 1.0673467
     3   6 C      5   1 H                                 1.0673564 (max)
     3   6 C      6   1 H                                 1.0671846 (min)

 * 1 distinct bonds (by element types)

   Z      Z             #   av. dist./Å        max./Å        min./Å
   1 H    6 C           3     1.0672959     1.0673564     1.0671846


optimized geometry written to: xtbopt.xyz


           -------------------------------------------------
          | TOTAL ENERGY              -13.107800115721 Eh   |
          | GRADIENT NORM               0.000243583094 Eh/α |
          | HOMO-LUMO GAP               0.949541164538 eV   |
           -------------------------------------------------

------------------------------------------------------------------------
 * finished run on 2020/04/08 at 13:05:37.797     
------------------------------------------------------------------------
 total:
 * wall-time:     0 d,  0 h,  0 min,  0.139 sec
 *  cpu-time:     0 d,  0 h,  0 min,  0.057 sec
 * ratio c/w:     0.410 speedup
 SCF:
 * wall-time:     0 d,  0 h,  0 min,  0.013 sec
 *  cpu-time:     0 d,  0 h,  0 min,  0.006 sec
 * ratio c/w:     0.443 speedup
 ANC optimizer:
 * wall-time:     0 d,  0 h,  0 min,  0.099 sec
 *  cpu-time:     0 d,  0 h,  0 min,  0.044 sec
 * ratio c/w:     0.447 speedup

