      -----------------------------------------------------------      
     |                   =====================                   |     
     |                           x T B                           |     
     |                   =====================                   |     
     |                         S. Grimme                         |     
     |          Mulliken Center for Theoretical Chemistry        |     
     |                    University of Bonn                     |     
      -----------------------------------------------------------      

   * xtb version 6.2.3 (830e466) compiled by 'ehlert@majestix' on 2020-03-16

   xtb is free software: you can redistribute it and/or modify it under
   the terms of the GNU Lesser General Public License as published by
   the Free Software Foundation, either version 3 of the License, or
   (at your option) any later version.
   
   xtb is distributed in the hope that it will be useful,
   but WITHOUT ANY WARRANTY; without even the implied warranty of
   MERCHANTABILITY or FITNESS FOR A PARTICULAR PURPOSE.  See the
   GNU Lesser General Public License for more details.
   
   Cite this work as:
   * S. Grimme, C. Bannwarth, P. Shushkov, J. Chem. Theory Comput., 2017,
     13, 1989-2009. DOI: 10.1021/acs.jctc.7b00118
   * C. Bannwarth, S. Ehlert and S. Grimme., J. Chem. Theory Comput., 2019,
     15, 1652-1671. DOI: 10.1021/acs.jctc.8b01176
   * P. Pracht, E. Caldeweyher, S. Ehlert, S. Grimme, ChemRxiv, 2019, preprint.
     DOI: 10.26434/chemrxiv.8326202.v1
   
   for DFT-D4:
   * E. Caldeweyher, C. Bannwarth and S. Grimme, J. Chem. Phys., 2017,
     147, 034112. DOI: 10.1063/1.4993215
   * E. Caldeweyher, S. Ehlert, A. Hansen, H. Neugebauer, S. Spicher,
     C. Bannwarth and S. Grimme, J. Chem. Phys., 2019, 150, 154122.
     DOI: 10.1063/1.5090222
   
   for sTDA-xTB:
   * S. Grimme and C. Bannwarth, J. Chem. Phys., 2016, 145, 054103.
     DOI: 10.1063/1.4959605
   
   in the mass-spec context:
   * V. Asgeirsson, C. Bauer and S. Grimme, Chem. Sci., 2017, 8, 4879.
     DOI: 10.1039/c7sc00601b
   
   for metadynamics refer to:
   * S. Grimme, J. Chem. Theory Comput., 2019, 155, 2847-2862
     DOI: 10.1021/acs.jctc.9b00143
   
   with help from (in alphabetical order)
   C. Bannwarth, F. Bohle, G. Brandenburg, E. Caldeweyher, M. Checinski,
   S. Dohm, S. Ehlert, S. Ehrlich, F. März, H. Neugebauer, J. Pisarek,
   P. Pracht, P. Shushkov, and S. Spicher.
   
 * started run on 2020/04/08 at 23:03:59.254     

           -------------------------------------------------
          |                Calculation Setup                |
           -------------------------------------------------

          program call               : /home/tom/.local/bin/xtb SN2_PES_scan_1-2_xtb.xyz --chrg -1 --opt --input xcontrol_SN2_PES_scan_1-2
          coordinate file            : SN2_PES_scan_1-2_xtb.xyz
          omp threads                :                     1
          number of atoms            :                     6
          number of electrons        :                    22
          charge                     :                    -1
          spin                       :                   0.0
          first test random number   :      0.77122660938383

constraining bond 1 3 to    3.5000000 Å, actual value:    4.0000080 Å
constraining bond 2 3 to    2.6680000 Å, actual value:    2.2231583 Å

molecular fragmentation (1/2 indicates fragments):
122222
# atoms in fragment 1/2:     1     5
 fragment masses (1/2) :       19.00       50.49
CMA distance (Bohr)    :  10.486
constraining FC (au)   : 10.0000
########################################################################
[WARNING] Please study the warnings concerning your input carefully
-2- prog_main: XTBPATH is not set, using XTBHOME instead
-1- prog_main: XTBHOME is not set, using HOME instead
########################################################################
           ------------------------------------------------- 
          |                 G F N 2 - x T B                 |
          | Geometry, Frequencies, Noncovalent interactions |
          |            JCTC 2019 parametrisation            |
           ------------------------------------------------- 
             k(s)              :                1.8500
             k(p)              :                2.2300
             k(d)              :                2.2300
             k(f)              :                2.0000
             kEN (H0ij)        :               -2.0000
             D4 a1             :                0.5200
             D4 a2             :                5.0000
             D4 s6             :                1.0000
             D4 s8             :                2.7000
             D4 s9             :                5.0000
             alphaj            :                2.0000

  Z AO/shell   Hii/eV     exponent
  1     Wed Apr 25 08:07:45 CEST 2018   EN: 2.200 GM2: 0.406  GM3: 0.0800  RAES: 1.40
     1s    -10.707211    1.230000
  6     Wed Apr 25 08:07:45 CEST 2018   EN: 2.550 GM2: 0.538  GM3: 0.1500  RAES: 3.00
     2s    -13.970922    2.096432
     2p    -10.063292    1.800000
  9     Mon Apr 23 13:58:50 CEST 2018   EN: 3.980 GM2: 0.532  GM3: 0.1426  RAES: 2.40
     2s    -23.458179    2.416361
     2p    -15.746583    2.308399
 17     Mon Apr 23 14:09:22 CEST 2018   EN: 3.160 GM2: 0.249  GM3: 0.1495  RAES: 2.50
     3s    -29.278781    2.485265
     3p    -12.673758    2.199650
     3d     -0.240338    2.476089

           ------------------------------------------------- 
          |        Self-Consistent Charge Iterations        |
           ------------------------------------------------- 

          ...................................................
          :                      SETUP                      :
          :.................................................:
          :  # basis functions                  21          :
          :  # atomic orbitals                  20          :
          :  # shells                           10          :
          :  # electrons                        22          :
          :  max. iterations                   250          :
          :  Hamiltonian                  GFN2-xTB          :
          :  restarted?                      false          :
          :  GBSA solvation                  false          :
          :  PC potential                    false          :
          :  electronic temp.          300.0000000     K    :
          :  accuracy                    1.0000000          :
          :  -> integral cutoff          0.2500000E+02      :
          :  -> integral neglect         0.1000000E-07      :
          :  -> SCF convergence          0.1000000E-05 Eh   :
          :  -> wf. convergence          0.1000000E-03 e    :
          :  Broyden damping             0.4000000          :
          ...................................................

 iter      E             dE          RMSdq      gap      omega  full diag
   1    -13.0186722 -0.130187E+02  0.724E+00    2.21       0.0  T
   2    -12.0144154  0.100426E+01  0.952E+00    0.00       1.0  T
   3    -13.1292209 -0.111481E+01  0.365E+00    3.51       1.0  T
   4    -13.1391989 -0.997794E-02  0.284E+00    3.00       1.0  T
   5    -13.1748876 -0.356887E-01  0.174E-01    0.13       1.0  T
   6    -13.1478259  0.270618E-01  0.153E+00    0.31       1.0  T
   7    -12.4583977  0.689428E+00  0.725E+00    0.00       1.0  T
   8    -12.5761164 -0.117719E+00  0.667E+00    0.00       1.0  T
   9    -13.1566581 -0.580542E+00  0.122E+00    0.21       1.0  T
  10    -13.1624305 -0.577236E-02  0.101E+00    0.18       1.0  T
  11    -13.1729509 -0.105205E-01  0.401E-01    0.14       1.0  T
  12    -13.1745766 -0.162568E-02  0.177E-01    0.13       1.0  T
  13    -13.1745722  0.441043E-05  0.178E-01    0.13       1.0  T
  14    -13.1749662 -0.393948E-03  0.216E-02    0.12       1.9  T
  15    -13.1749560  0.101442E-04  0.356E-02    0.12       1.1  T
  16    -13.1749621 -0.607511E-05  0.280E-02    0.12       1.5  T
  17    -13.1749678 -0.567315E-05  0.183E-02    0.12       2.2  T
  18    -13.1749712 -0.345926E-05  0.780E-03    0.12       5.2  T
  19    -13.1749719 -0.696559E-06  0.234E-03    0.12      17.4  T
  20    -13.1749720 -0.621394E-07  0.747E-04    0.12      54.7  T
  21    -13.1749720 -0.699503E-08  0.536E-05    0.12     761.7  T

   *** convergence criteria satisfied after 21 iterations ***

         #    Occupation            Energy/Eh            Energy/eV
      -------------------------------------------------------------
         1        2.0000           -0.9016675             -24.5356
       ...           ...                  ...                  ...
         5        2.0000           -0.3629941              -9.8776
         6        2.0000           -0.3149165              -8.5693
         7        2.0000           -0.2741408              -7.4597
         8        2.0000           -0.2741397              -7.4597
         9        1.9089           -0.1571880              -4.2773
        10        1.9024           -0.1571197              -4.2754
        11        1.9024           -0.1571195              -4.2754 (HOMO)
        12        0.2864           -0.1525984              -4.1524 (LUMO)
        13                          0.1898813               5.1669
        14                          0.1898817               5.1669
        15                          0.1910472               5.1987
        16                          0.1910476               5.1987
       ...                                ...                  ...
        20                          0.3868538              10.5268
      -------------------------------------------------------------
                  HL-Gap            0.0045211 Eh            0.1230 eV
             Fermi-level           -0.1542981 Eh           -4.1987 eV

 SCC (total)                   0 d,  0 h,  0 min,  0.003 sec
 SCC setup                      ...        0 min,  0.000 sec (  2.003%)
 Dispersion                     ...        0 min,  0.000 sec (  0.408%)
 integral evaluation            ...        0 min,  0.001 sec ( 20.449%)
 zeroth order Hamiltonian       ...        0 min,  0.000 sec (  0.446%)
 iterations                     ...        0 min,  0.002 sec ( 55.377%)
 molecular gradient             ...        0 min,  0.001 sec ( 18.953%)
 printout                       ...        0 min,  0.000 sec (  1.678%)

         :::::::::::::::::::::::::::::::::::::::::::::::::::::
         ::                     SUMMARY                     ::
         :::::::::::::::::::::::::::::::::::::::::::::::::::::
         :: total energy               2.877593092794 Eh    ::
         :: gradient norm             43.722056736134 Eh/a0 ::
         :: HOMO-LUMO gap              0.123025474912 eV    ::
         ::.................................................::
         :: SCC energy               -13.174971987796 Eh    ::
         :: -> isotropic ES            0.186713094661 Eh    ::
         :: -> anisotropic ES          0.001231772227 Eh    ::
         :: -> anisotropic XC          0.005041413150 Eh    ::
         :: -> dispersion             -0.001655093042 Eh    ::
         :: repulsion energy           0.058054587829 Eh    ::
         :: add. restraining          15.994513680989 Eh    ::
         :::::::::::::::::::::::::::::::::::::::::::::::::::::

      ----------------------------------------------------------- 
     |                   =====================                   |
     |                        A N C O P T                        |
     |                   =====================                   |
     |               Approximate Normal Coordinate               |
     |                Rational Function Optimizer                |
      ----------------------------------------------------------- 

          ...................................................
          :                      SETUP                      :
          :.................................................:
          :   optimization level            normal          :
          :   max. optcycles                   200          :
          :   ANC micro-cycles                  20          :
          :   degrees of freedom                12          :
          :.................................................:
          :   RF solver                   davidson          :
          :   write xtbopt.log                true          :
          :   linear?                        false          :
          :   energy convergence         0.5000000E-05 Eh   :
          :   grad. convergence          0.1000000E-02 Eh/α :
          :   maximium RF displ.         1.0000000          :
          :   Hlow (freq-cutoff)         0.1000000E-01      :
          :   Hmax (freq-cutoff)         5.0000000          :
          :   S6 in model hess.         20.0000000          :
          ...................................................

generating ANC from model Hessian ...
Using Lindh-Hessian (1995)
 Shifting diagonal of input Hessian by    4.24679945831869     
 Lowest  eigenvalues of input Hessian
    0.010000    0.010044   -0.000000   -0.000000    0.000000    0.000000
    0.000000    0.000000    4.286923    4.362113    4.362121    4.540088
    4.540100    4.698493    5.516600    5.516669   24.282506   64.432284
 Highest eigenvalues
    4.540100    4.698493    5.516600    5.516669   24.282506   64.432284
 

........................................................................
.............................. CYCLE    1 ..............................
........................................................................
   1    -13.1749720 -0.131750E+02  0.575E-05    0.12       0.0  T
   2    -13.1749719  0.568183E-07  0.212E-03    0.12      19.2  T
   3    -13.1749720 -0.568600E-07  0.116E-06    0.12   35046.7  T
   4    -13.1749720  0.248690E-13  0.151E-06    0.12   27031.7  T
     SCC iter.                  ...        0 min,  0.000 sec
     gradient                   ...        0 min,  0.001 sec
 * total energy  :     2.8775931 Eh     change       -0.1894081E-08 Eh
   gradient norm :    43.7220554 Eh/α   predicted     0.0000000E+00 (-100.00%)
   displ. norm   :     0.9444540 α      lambda       -0.4129347E+02
   maximum displ.:     0.9438462 α      in ANC's #9, #12, #8, ...

........................................................................
.............................. CYCLE    2 ..............................
........................................................................
   1    -12.2337235 -0.122337E+02  0.102E+01    0.00       0.0  T
   2    -12.7202943 -0.486571E+00  0.962E+00    4.48       1.0  T
   3    -13.0047323 -0.284438E+00  0.531E+00    1.38       1.0  T
   4    -13.0686103 -0.638780E-01  0.386E+00    0.65       1.0  T
   5    -13.0251828  0.434275E-01  0.436E+00    1.32       1.0  T
   6    -12.2180763  0.807106E+00  0.103E+01    0.00       1.0  T
   7    -13.0558580 -0.837782E+00  0.323E+00    1.05       1.0  T
   8    -13.1071477 -0.512896E-01  0.173E+00    0.19       1.0  T
   9    -13.0723803  0.347674E-01  0.263E+00    0.40       1.0  T
  10    -12.2191880  0.853192E+00  0.977E+00    0.00       1.0  T
  11    -13.0732398 -0.854052E+00  0.281E+00    0.93       1.0  T
  12    -12.2301853  0.843055E+00  0.943E+00    0.00       1.0  T
  13    -13.0707651 -0.840580E+00  0.276E+00    0.88       1.0  T
  14    -12.2411487  0.829616E+00  0.934E+00    0.01       1.0  T
  15    -13.0702551 -0.829106E+00  0.272E+00    0.68       1.0  T
  16    -13.0442362  0.260189E-01  0.308E+00    0.07       1.0  T
  17    -13.1201922 -0.759560E-01  0.117E+00    0.17       1.0  T
  18    -13.1333546 -0.131625E-01  0.262E-01    0.13       1.0  T
  19    -13.1036160  0.297387E-01  0.182E+00    0.09       1.0  T
  20    -13.0916319  0.119840E-01  0.213E+00    0.09       1.0  T
  21    -13.0846422  0.698969E-02  0.230E+00    0.08       1.0  T
  22    -13.0954874 -0.108452E-01  0.204E+00    0.09       1.0  T
  23    -13.0788500  0.166374E-01  0.242E+00    0.08       1.0  T
  24    -13.0654245  0.134255E-01  0.269E+00    0.08       1.0  T
  25    -13.0663702 -0.945631E-03  0.267E+00    0.08       1.0  T
  26    -13.0186164  0.477537E-01  0.346E+00    0.07       1.0  T
  27    -12.9659944  0.526220E-01  0.416E+00    0.06       1.0  T
  28    -12.9665397 -0.545257E-03  0.415E+00    0.06       1.0  T
  29    -13.1063044 -0.139765E+00  0.167E+00    0.20       1.0  T
  30    -12.3540361  0.752268E+00  0.873E+00    0.02       1.0  T
  31    -13.0727911 -0.718755E+00  0.260E+00    0.55       1.0  T
  32    -12.6317001  0.441091E+00  0.709E+00    0.03       1.0  T
  33    -13.0725850 -0.440885E+00  0.263E+00    0.61       1.0  T
  34    -13.1292040 -0.566190E-01  0.690E-01    0.15       1.0  T
  35    -12.4552431  0.673961E+00  0.817E+00    0.02       1.0  T
  36    -13.0717007 -0.616458E+00  0.266E+00    0.66       1.0  T
  37    -13.1293554 -0.576547E-01  0.703E-01    0.14       1.0  T
  38    -12.6277336  0.501622E+00  0.711E+00    0.03       1.0  T
  39    -13.0716498 -0.443916E+00  0.267E+00    0.67       1.0  T
  40    -13.1032419 -0.315921E-01  0.177E+00    0.21       1.0  T
  41    -13.1292177 -0.259757E-01  0.827E-01    0.11       1.0  T
  42    -13.0889499  0.402678E-01  0.216E+00    0.26       1.0  T
  43    -13.1297269 -0.407770E-01  0.779E-01    0.11       1.0  T
  44    -13.0983170  0.314099E-01  0.191E+00    0.22       1.0  T
  45    -13.1119614 -0.136444E-01  0.159E+00    0.09       1.0  T
  46    -13.0888477  0.231138E-01  0.217E+00    0.26       1.0  T
  47    -13.1160461 -0.271984E-01  0.145E+00    0.10       1.0  T
  48    -13.0949322  0.211139E-01  0.201E+00    0.23       1.0  T
  49    -13.0946594  0.272770E-03  0.209E+00    0.09       1.0  T
  50    -13.0875917  0.706771E-02  0.220E+00    0.27       1.0  T
  51    -13.1104909 -0.228992E-01  0.164E+00    0.09       1.0  T
  52    -13.0962128  0.142781E-01  0.197E+00    0.23       1.0  T
  53    -13.0811456  0.150672E-01  0.240E+00    0.08       1.0  T
  54    -13.0862502 -0.510460E-02  0.223E+00    0.28       1.0  T
  55    -13.1129138 -0.266635E-01  0.156E+00    0.09       1.0  T
  56    -13.1007057  0.122080E-01  0.185E+00    0.21       1.0  T
  57    -13.0692999  0.314058E-01  0.265E+00    0.08       1.0  T
  58    -13.0847941 -0.154941E-01  0.227E+00    0.29       1.0  T
  59    -13.1200570 -0.352629E-01  0.130E+00    0.10       1.0  T
  60    -13.1089086  0.111484E-01  0.160E+00    0.19       1.0  T
  61    -13.0695685  0.393401E-01  0.264E+00    0.08       1.0  T
  62    -13.0851051 -0.155367E-01  0.226E+00    0.28       1.0  T
  63    -13.1232657 -0.381606E-01  0.116E+00    0.10       1.0  T
  64    -13.1131998  0.100659E-01  0.145E+00    0.18       1.0  T
  65    -13.0824119  0.307879E-01  0.238E+00    0.08       1.0  T
  66    -13.0878676 -0.545569E-02  0.219E+00    0.27       1.0  T
  67    -13.1210154 -0.331478E-01  0.127E+00    0.10       1.0  T
  68    -13.1098892  0.111262E-01  0.157E+00    0.19       1.0  T
  69    -13.0903856  0.195036E-01  0.220E+00    0.08       1.0  T
  70    -13.0900223  0.363347E-03  0.214E+00    0.25       1.0  T
  71    -13.1215150 -0.314927E-01  0.125E+00    0.10       1.0  T
  72    -13.1093193  0.121957E-01  0.159E+00    0.19       1.0  T
  73    -13.1019461  0.737322E-02  0.191E+00    0.09       1.0  T
  74    -13.0936809  0.826517E-02  0.204E+00    0.24       1.0  T
  75    -13.1218774 -0.281965E-01  0.124E+00    0.10       1.0  T
  76    -13.1077815  0.140959E-01  0.164E+00    0.19       1.0  T
  77    -13.1134363 -0.565484E-02  0.156E+00    0.09       1.0  T
  78    -13.0986590  0.147773E-01  0.191E+00    0.22       1.0  T
  79    -13.1236986 -0.250396E-01  0.116E+00    0.10       1.0  T
  80    -13.1071802  0.165184E-01  0.166E+00    0.19       1.0  T
  81    -13.1233050 -0.161248E-01  0.118E+00    0.10       1.0  T
  82    -13.1047498  0.185552E-01  0.173E+00    0.20       1.0  T
  83    -13.1278147 -0.230650E-01  0.951E-01    0.11       1.0  T
  84    -13.1091199  0.186948E-01  0.160E+00    0.19       1.0  T
  85    -13.1301323 -0.210124E-01  0.805E-01    0.11       1.0  T
  86    -13.1109745  0.191578E-01  0.154E+00    0.18       1.0  T
  87    -13.1322287 -0.212542E-01  0.635E-01    0.11       1.0  T
  88    -13.1140570  0.181717E-01  0.144E+00    0.18       1.0  T
  89    -13.1332432 -0.191861E-01  0.518E-01    0.12       1.0  T
  90    -13.1170592  0.161839E-01  0.133E+00    0.17       1.0  T
  91    -13.1329597 -0.159005E-01  0.515E-01    0.13       1.0  T
  92    -13.1199603  0.129994E-01  0.122E+00    0.16       1.0  T
  93    -13.1313099 -0.113497E-01  0.635E-01    0.13       1.0  T
  94    -13.1224323  0.887761E-02  0.112E+00    0.16       1.0  T
  95    -13.1286187 -0.618635E-02  0.809E-01    0.14       1.0  T
  96    -13.1243069  0.431176E-02  0.103E+00    0.15       1.0  T
  97    -13.1255356 -0.122863E-02  0.975E-01    0.15       1.0  T
  98    -13.1259460 -0.410439E-03  0.955E-01    0.15       1.0  T
  99    -13.1227951  0.315089E-02  0.110E+00    0.16       1.0  T
 100    -13.1288869 -0.609181E-02  0.779E-01    0.14       1.0  T
 101    -13.1228629  0.602404E-02  0.108E+00    0.16       1.0  T
 102    -13.1333287 -0.104659E-01  0.345E-01    0.13       1.0  T
 103    -13.1325878  0.740902E-03  0.354E-01    0.14       1.0  T
 104    -13.1192958  0.132920E-01  0.123E+00    0.11       1.0  T
 105    -13.0856827  0.336131E-01  0.223E+00    0.09       1.0  T
 106    -13.0701847  0.154980E-01  0.255E+00    0.09       1.0  T
 107    -13.0702244 -0.396764E-04  0.255E+00    0.09       1.0  T
 108    -13.0786317 -0.840735E-02  0.238E+00    0.09       1.0  T
 109    -13.0922606 -0.136289E-01  0.206E+00    0.09       1.0  T
 110    -13.1090807 -0.168201E-01  0.159E+00    0.10       1.0  T
 111    -13.1264705 -0.173898E-01  0.846E-01    0.12       1.0  T
 112    -13.1334046 -0.693410E-02  0.636E-02    0.13       1.0  T
 113    -13.1280610  0.534361E-02  0.765E-01    0.15       1.0  T
 114    -13.1229676  0.509339E-02  0.106E+00    0.17       1.0  T
 115    -13.1249976 -0.202997E-02  0.945E-01    0.16       1.0  T
 116    -13.1331671 -0.816947E-02  0.160E-01    0.14       1.0  T
 117    -13.1314993  0.166779E-02  0.455E-01    0.12       1.0  T
 118    -13.1319210 -0.421729E-03  0.399E-01    0.12       1.0  T
 119    -13.1333914 -0.147036E-02  0.529E-02    0.13       1.0  T
 120    -13.1333572  0.341658E-04  0.820E-02    0.13       1.0  T
 121    -13.1333939 -0.366764E-04  0.514E-02    0.13       1.0  T
 122    -13.1334177 -0.238606E-04  0.116E-02    0.13       3.5  T
 123    -13.1334147  0.306323E-05  0.213E-02    0.13       1.9  T
 124    -13.1334181 -0.340699E-05  0.913E-03    0.13       4.5  T
 125    -13.1334189 -0.781967E-06  0.270E-04    0.13     151.0  T
 126    -13.1334189 -0.347168E-09  0.271E-04    0.13     150.7  T
     SCC iter.                  ...        0 min,  0.018 sec
     gradient                   ...        0 min,  0.001 sec
 * total energy  :   -11.6721471 Eh     change       -0.1454974E+02 Eh
   gradient norm :    12.9672276 Eh/α   predicted    -0.3906349E+02 ( 168.48%)
   displ. norm   :     0.2405050 α      lambda       -0.2783694E+01
   maximum displ.:     0.2073582 α      in ANC's #9, #12, #3, ...

........................................................................
.............................. CYCLE    3 ..............................
........................................................................
   1    -13.1022878 -0.131023E+02  0.234E+00    0.56       0.0  T
   2    -12.1704844  0.931803E+00  0.102E+01    0.00       1.0  T
   3    -12.6341972 -0.463713E+00  0.700E+00    0.03       1.0  T
   4    -13.0827801 -0.448583E+00  0.300E+00    0.94       1.0  T
   5    -13.0938119 -0.110319E-01  0.259E+00    0.79       1.0  T
   6    -13.0953372 -0.152525E-02  0.251E+00    0.65       1.0  T
   7    -13.0991469 -0.380975E-02  0.234E+00    0.41       1.0  T
   8    -13.1077662 -0.861931E-02  0.209E+00    0.27       1.0  T
   9    -13.1359250 -0.281588E-01  0.118E+00    0.17       1.0  T
  10    -13.1033757  0.325493E-01  0.219E+00    0.32       1.0  T
  11    -13.1027181  0.657606E-03  0.221E+00    0.33       1.0  T
  12    -12.2014787  0.901239E+00  0.949E+00    0.01       1.0  T
  13    -13.0913178 -0.889839E+00  0.279E+00    1.50       1.0  T
  14    -13.1501920 -0.588742E-01  0.166E-01    0.12       1.0  T
  15    -12.3236138  0.826578E+00  0.875E+00    0.02       1.0  T
  16    -13.0936522 -0.770038E+00  0.264E+00    1.31       1.0  T
  17    -13.1117126 -0.180603E-01  0.199E+00    0.25       1.0  T
  18    -13.1196357 -0.792316E-02  0.174E+00    0.09       1.0  T
  19    -13.1184886  0.114713E-02  0.180E+00    0.22       1.0  T
  20    -12.9534030  0.165086E+00  0.435E+00    0.05       1.0  T
  21    -13.0992113 -0.145808E+00  0.233E+00    0.43       1.0  T
  22    -13.1370089 -0.377976E-01  0.115E+00    0.17       1.0  T
  23    -12.8639274  0.273081E+00  0.522E+00    0.04       1.0  T
  24    -13.0973851 -0.233458E+00  0.240E+00    0.54       1.0  T
  25    -13.1224766 -0.250916E-01  0.168E+00    0.21       1.0  T
  26    -12.9743068  0.148170E+00  0.411E+00    0.06       1.0  T
  27    -13.0986064 -0.124300E+00  0.235E+00    0.45       1.0  T
  28    -13.1322109 -0.336045E-01  0.135E+00    0.18       1.0  T
  29    -12.9947716  0.137439E+00  0.387E+00    0.06       1.0  T
  30    -13.0986599 -0.103888E+00  0.235E+00    0.45       1.0  T
  31    -13.1349078 -0.362479E-01  0.124E+00    0.17       1.0  T
  32    -13.0275898  0.107318E+00  0.344E+00    0.06       1.0  T
  33    -13.0993500 -0.717601E-01  0.233E+00    0.42       1.0  T
  34    -13.1417043 -0.423543E-01  0.928E-01    0.16       1.0  T
  35    -13.0807028  0.610015E-01  0.260E+00    0.08       1.0  T
  36    -13.1023708 -0.216680E-01  0.224E+00    0.34       1.0  T
  37    -13.1499457 -0.475749E-01  0.211E-01    0.12       1.0  T
  38    -13.1501009 -0.155244E-03  0.160E-01    0.13       1.0  T
  39    -13.1483480  0.175295E-02  0.450E-01    0.11       1.0  T
  40    -13.1446145  0.373345E-02  0.757E-01    0.15       1.0  T
  41    -13.1025525  0.420620E-01  0.216E+00    0.08       1.0  T
  42    -13.1086787 -0.612623E-02  0.207E+00    0.27       1.0  T
  43    -13.1386748 -0.299961E-01  0.108E+00    0.10       1.0  T
  44    -13.1352125  0.346234E-02  0.124E+00    0.17       1.0  T
  45    -13.0842297  0.509828E-01  0.254E+00    0.08       1.0  T
  46    -13.1069446 -0.227148E-01  0.212E+00    0.28       1.0  T
  47    -13.1503635 -0.434190E-01  0.204E-02    0.12       2.0  T
  48    -13.1463370  0.402651E-02  0.633E-01    0.11       1.0  T
  49    -13.1457633  0.573698E-03  0.677E-01    0.15       1.0  T
  50    -13.1239829  0.217804E-01  0.161E+00    0.09       1.0  T
  51    -13.1227422  0.124074E-02  0.168E+00    0.20       1.0  T
  52    -13.1270364 -0.429426E-02  0.152E+00    0.09       1.0  T
  53    -13.1271539 -0.117505E-03  0.153E+00    0.19       1.0  T
  54    -13.1246703  0.248368E-02  0.159E+00    0.09       1.0  T
  55    -13.1262582 -0.158795E-02  0.156E+00    0.19       1.0  T
  56    -13.1313201 -0.506185E-02  0.137E+00    0.09       1.0  T
  57    -13.1325853 -0.126523E-02  0.134E+00    0.18       1.0  T
  58    -13.1268975  0.568780E-02  0.152E+00    0.09       1.0  T
  59    -13.1295435 -0.264600E-02  0.145E+00    0.18       1.0  T
  60    -13.1340718 -0.452829E-02  0.127E+00    0.10       1.0  T
  61    -13.1365086 -0.243684E-02  0.118E+00    0.17       1.0  T
  62    -13.1306030  0.590565E-02  0.139E+00    0.09       1.0  T
  63    -13.1337919 -0.318899E-02  0.129E+00    0.17       1.0  T
  64    -13.1356104 -0.181845E-02  0.121E+00    0.10       1.0  T
  65    -13.1388236 -0.321317E-02  0.108E+00    0.16       1.0  T
  66    -13.1350428  0.378075E-02  0.123E+00    0.10       1.0  T
  67    -13.1385097 -0.346686E-02  0.109E+00    0.16       1.0  T
  68    -13.1376512  0.858461E-03  0.112E+00    0.10       1.0  T
  69    -13.1411757 -0.352452E-02  0.960E-01    0.16       1.0  T
  70    -13.1389989  0.217680E-02  0.106E+00    0.10       1.0  T
  71    -13.1425103 -0.351132E-02  0.887E-01    0.15       1.0  T
  72    -13.1407893  0.172092E-02  0.973E-01    0.10       1.0  T
  73    -13.1441915 -0.340222E-02  0.786E-01    0.15       1.0  T
  74    -13.1424953  0.169622E-02  0.882E-01    0.10       1.0  T
  75    -13.1456845 -0.318920E-02  0.684E-01    0.15       1.0  T
  76    -13.1441610  0.152351E-02  0.784E-01    0.11       1.0  T
  77    -13.1470351 -0.287405E-02  0.577E-01    0.14       1.0  T
  78    -13.1457268  0.130831E-02  0.678E-01    0.11       1.0  T
  79    -13.1481865 -0.245978E-02  0.466E-01    0.14       1.0  T
  80    -13.1471280  0.105858E-02  0.567E-01    0.11       1.0  T
  81    -13.1490934 -0.196545E-02  0.356E-01    0.13       1.0  T
  82    -13.1482969  0.796559E-03  0.453E-01    0.11       1.0  T
  83    -13.1497301 -0.143326E-02  0.251E-01    0.13       1.0  T
  84    -13.1491812  0.548881E-03  0.343E-01    0.12       1.0  T
  85    -13.1501099 -0.928624E-03  0.159E-01    0.13       1.0  T
  86    -13.1497694  0.340425E-03  0.244E-01    0.12       1.0  T
  87    -13.1502902 -0.520755E-03  0.857E-02    0.13       1.0  T
  88    -13.1501037  0.186532E-03  0.161E-01    0.12       1.0  T
  89    -13.1503520 -0.248386E-03  0.350E-02    0.13       1.2  T
  90    -13.1502637  0.883867E-04  0.100E-01    0.12       1.0  T
  91    -13.1503643 -0.100617E-03  0.497E-03    0.12       8.2  T
  92    -13.1503262  0.380360E-04  0.619E-02    0.12       1.0  T
  93    -13.1503560 -0.298059E-04  0.292E-02    0.12       1.4  T
  94    -13.1503559  0.101216E-06  0.294E-02    0.12       1.4  T
  95    -13.1503623 -0.639451E-05  0.148E-02    0.13       2.8  T
  96    -13.1503584  0.392661E-05  0.248E-02    0.12       1.6  T
  97    -13.1503626 -0.423154E-05  0.138E-02    0.13       3.0  T
  98    -13.1503609  0.174253E-05  0.191E-02    0.12       2.1  T
  99    -13.1503635 -0.258907E-05  0.102E-02    0.12       4.0  T
 100    -13.1503630  0.505462E-06  0.125E-02    0.12       3.3  T
 101    -13.1503643 -0.127534E-05  0.528E-03    0.12       7.7  T
 102    -13.1503642  0.642620E-07  0.586E-03    0.12       7.0  T
     SCC iter.                  ...        0 min,  0.012 sec
     gradient                   ...        0 min,  0.001 sec
 * total energy  :   -13.0192987 Eh     change       -0.1347152E+01 Eh
   gradient norm :     1.6772599 Eh/α   predicted    -0.1472355E+01 (   9.29%)
   displ. norm   :     0.2656821 α      lambda       -0.4412853E+00
   maximum displ.:     0.2618693 α      in ANC's #12, #9, #8, ...

........................................................................
.............................. CYCLE    4 ..............................
........................................................................
   1    -12.2697245 -0.122697E+02  0.906E+00    0.01       0.0  T
   2    -12.7603164 -0.490592E+00  0.940E+00    4.37       1.0  T
   3    -13.0288635 -0.268547E+00  0.520E+00    1.68       1.0  T
   4    -13.0912444 -0.623810E-01  0.347E+00    1.17       1.0  T
   5    -13.0790189  0.122255E-01  0.357E+00    1.32       1.0  T
   6    -13.0831522 -0.413329E-02  0.295E+00    1.33       1.0  T
   7    -13.0902742 -0.712202E-02  0.250E+00    0.52       1.0  T
   8    -12.1839454  0.906329E+00  0.104E+01    0.00       1.0  T
   9    -12.1819819  0.196349E-02  0.105E+01    0.00       1.0  T
  10    -13.0826693 -0.900687E+00  0.320E+00    1.31       1.0  T
  11    -13.0890506 -0.638131E-02  0.260E+00    0.75       1.0  T
  12    -13.0901380 -0.108739E-02  0.252E+00    0.53       1.0  T
  13    -13.0883416  0.179643E-02  0.271E+00    1.13       1.0  T
  14    -13.0885570 -0.215398E-03  0.274E+00    1.27       1.0  T
  15    -13.0915264 -0.296943E-02  0.249E+00    0.61       1.0  T
  16    -12.1954196  0.896107E+00  0.968E+00    0.00       1.0  T
  17    -13.0724975 -0.877078E+00  0.429E+00    1.34       1.0  T
  18    -13.0894139 -0.169164E-01  0.257E+00    0.67       1.0  T
  19    -12.2549368  0.834477E+00  0.911E+00    0.00       1.0  T
  20    -13.0701163 -0.815179E+00  0.401E+00    1.39       1.0  T
  21    -13.0871061 -0.169898E-01  0.274E+00    1.08       1.0  T
  22    -13.0894755 -0.236938E-02  0.258E+00    0.71       1.0  T
  23    -13.0414739  0.480015E-01  0.323E+00    0.05       1.0  T
  24    -13.0849103 -0.434363E-01  0.298E+00    1.30       1.0  T
  25    -13.0919003 -0.699000E-02  0.244E+00    0.42       1.0  T
  26    -12.2038100  0.888090E+00  0.941E+00    0.00       1.0  T
  27    -13.0714465 -0.867636E+00  0.395E+00    1.38       1.0  T
  28    -13.0876134 -0.161670E-01  0.272E+00    1.04       1.0  T
  29    -13.0931367 -0.552326E-02  0.239E+00    0.36       1.0  T
  30    -12.2029133  0.890223E+00  0.943E+00    0.00       1.0  T
  31    -13.0695861 -0.866673E+00  0.406E+00    1.39       1.0  T
  32    -13.0867972 -0.172111E-01  0.279E+00    1.24       1.0  T
  33    -13.0917856 -0.498843E-02  0.244E+00    0.43       1.0  T
  34    -12.2023666  0.889419E+00  0.944E+00    0.00       1.0  T
  35    -13.0671530 -0.864786E+00  0.419E+00    1.41       1.0  T
  36    -13.0862794 -0.191264E-01  0.284E+00    1.30       1.0  T
  37    -13.0914892 -0.520986E-02  0.246E+00    0.47       1.0  T
  38    -12.2004143  0.891075E+00  0.948E+00    0.00       1.0  T
  39    -13.0648921 -0.864478E+00  0.431E+00    1.42       1.0  T
  40    -13.0859353 -0.210432E-01  0.289E+00    1.30       1.0  T
  41    -13.0918700 -0.593464E-02  0.244E+00    0.44       1.0  T
  42    -12.1985022  0.893368E+00  0.955E+00    0.00       1.0  T
  43    -13.0630810 -0.864579E+00  0.441E+00    1.43       1.0  T
  44    -13.0857679 -0.226869E-01  0.292E+00    1.30       1.0  T
  45    -13.0932736 -0.750569E-02  0.239E+00    0.37       1.0  T
  46    -12.1969443  0.896329E+00  0.962E+00    0.00       1.0  T
  47    -13.0618412 -0.864897E+00  0.448E+00    1.43       1.0  T
  48    -13.0857034 -0.238622E-01  0.294E+00    1.29       1.0  T
  49    -13.0978558 -0.121524E-01  0.226E+00    0.28       1.0  T
  50    -12.1961397  0.901716E+00  0.966E+00    0.00       1.0  T
  51    -13.0609818 -0.864842E+00  0.452E+00    1.44       1.0  T
  52    -13.0856132 -0.246313E-01  0.296E+00    1.29       1.0  T
  53    -13.1047680 -0.191548E-01  0.209E+00    0.24       1.0  T
  54    -12.1962023  0.908566E+00  0.965E+00    0.00       1.0  T
  55    -13.0599582 -0.863756E+00  0.457E+00    1.44       1.0  T
  56    -13.0853894 -0.254313E-01  0.298E+00    1.29       1.0  T
  57    -13.1037690 -0.183796E-01  0.211E+00    0.24       1.0  T
  58    -12.1956084  0.908161E+00  0.968E+00    0.00       1.0  T
  59    -13.0593342 -0.863726E+00  0.461E+00    1.45       1.0  T
  60    -13.0852055 -0.258714E-01  0.301E+00    1.29       1.0  T
  61    -13.1100623 -0.248568E-01  0.195E+00    0.21       1.0  T
  62    -12.1958957  0.914167E+00  0.967E+00    0.00       1.0  T
  63    -13.0580865 -0.862191E+00  0.467E+00    1.45       1.0  T
  64    -13.0849586 -0.268721E-01  0.303E+00    1.30       1.0  T
  65    -13.1073385 -0.223799E-01  0.202E+00    0.22       1.0  T
  66    -12.1951864  0.912152E+00  0.971E+00    0.00       1.0  T
  67    -13.0577356 -0.862549E+00  0.469E+00    1.46       1.0  T
  68    -13.0848522 -0.271166E-01  0.305E+00    1.30       1.0  T
  69    -13.1196045 -0.347523E-01  0.169E+00    0.18       1.0  T
  70    -12.1965167  0.923088E+00  0.964E+00    0.00       1.0  T
  71    -13.0554218 -0.858905E+00  0.480E+00    1.47       1.0  T
  72    -13.0844996 -0.290777E-01  0.308E+00    1.30       1.0  T
  73    -13.1041440 -0.196444E-01  0.211E+00    0.24       1.0  T
  74    -12.1942131  0.909931E+00  0.976E+00    0.00       1.0  T
  75    -13.0568302 -0.862617E+00  0.475E+00    1.46       1.0  T
  76    -13.0846682 -0.278380E-01  0.307E+00    1.30       1.0  T
  77    -13.1467890 -0.621208E-01  0.388E-01    0.12       1.0  T
  78    -12.7829572  0.363832E+00  0.588E+00    0.02       1.0  T
  79    -13.0678548 -0.284898E+00  0.411E+00    1.41       1.0  T
  80    -13.0884843 -0.206295E-01  0.271E+00    1.10       1.0  T
  81    -12.1973994  0.891085E+00  0.960E+00    0.00       1.0  T
  82    -13.0528738 -0.855474E+00  0.494E+00    1.48       1.0  T
  83    -13.0837334 -0.308596E-01  0.314E+00    1.30       1.0  T
  84    -13.0961733 -0.124399E-01  0.231E+00    0.31       1.0  T
  85    -12.1931334  0.903040E+00  0.982E+00    0.00       1.0  T
  86    -13.0560876 -0.862954E+00  0.480E+00    1.46       1.0  T
  87    -13.0846510 -0.285634E-01  0.308E+00    1.30       1.0  T
  88    -12.9622700  0.122381E+00  0.423E+00    0.04       1.0  T
  89    -13.0744705 -0.112200E+00  0.375E+00    1.37       1.0  T
  90    -13.0912985 -0.168280E-01  0.247E+00    0.49       1.0  T
  91    -12.1933068  0.897992E+00  0.981E+00    0.00       1.0  T
  92    -13.0558912 -0.862584E+00  0.481E+00    1.46       1.0  T
  93    -13.0847888 -0.288976E-01  0.307E+00    1.30       1.0  T
  94    -12.9014905  0.183298E+00  0.486E+00    0.03       1.0  T
  95    -13.0716634 -0.170173E+00  0.393E+00    1.38       1.0  T
  96    -13.0896848 -0.180214E-01  0.259E+00    0.75       1.0  T
  97    -12.1949109  0.894774E+00  0.973E+00    0.00       1.0  T
  98    -13.0528092 -0.857898E+00  0.496E+00    1.48       1.0  T
  99    -13.0843830 -0.315739E-01  0.310E+00    1.30       1.0  T
 100    -13.1401786 -0.557955E-01  0.917E-01    0.09       1.0  T
 101    -13.0887445  0.514340E-01  0.264E+00    0.84       1.0  T
 102    -12.1951145  0.893630E+00  0.972E+00    0.00       1.0  T
 103    -13.0539052 -0.858791E+00  0.491E+00    1.47       1.0  T
 104    -13.0844212 -0.305160E-01  0.309E+00    1.30       1.0  T
 105    -13.1474798 -0.630586E-01  0.289E-01    0.12       1.0  T
 106    -12.2166135  0.930866E+00  0.931E+00    0.00       1.0  T
 107    -13.0447527 -0.828139E+00  0.527E+00    1.52       1.0  T
 108    -13.0832625 -0.385098E-01  0.317E+00    1.31       1.0  T
 109    -13.0919167 -0.865423E-02  0.245E+00    0.45       1.0  T
 110    -12.1940039  0.897913E+00  0.978E+00    0.00       1.0  T
 111    -13.0525109 -0.858507E+00  0.499E+00    1.48       1.0  T
 112    -13.0844302 -0.319193E-01  0.309E+00    1.30       1.0  T
 113    -12.8031609  0.281269E+00  0.573E+00    0.03       1.0  T
 114    -13.0679669 -0.264806E+00  0.415E+00    1.40       1.0  T
 115    -13.0883766 -0.204096E-01  0.270E+00    1.05       1.0  T
 116    -12.1970915  0.891285E+00  0.962E+00    0.00       1.0  T
 117    -13.0477058 -0.850614E+00  0.519E+00    1.50       1.0  T
 118    -13.0836117 -0.359058E-01  0.315E+00    1.30       1.0  T
 119    -13.1362458 -0.526341E-01  0.108E+00    0.15       1.0  T
 120    -12.1973077  0.938938E+00  0.960E+00    0.00       1.0  T
 121    -13.0467912 -0.849483E+00  0.523E+00    1.51       1.0  T
 122    -13.0835345 -0.367433E-01  0.316E+00    1.30       1.0  T
 123    -13.1045370 -0.210025E-01  0.210E+00    0.24       1.0  T
 124    -12.1931378  0.911399E+00  0.982E+00    0.00       1.0  T
 125    -13.0520929 -0.858955E+00  0.502E+00    1.48       1.0  T
 126    -13.0846358 -0.325428E-01  0.309E+00    1.30       1.0  T
 127    -12.7474182  0.337218E+00  0.616E+00    0.02       1.0  T
 128    -13.0653444 -0.317926E+00  0.430E+00    1.41       1.0  T
 129    -13.0877058 -0.223613E-01  0.276E+00    1.22       1.0  T
 130    -12.1981306  0.889575E+00  0.957E+00    0.00       1.0  T
 131    -13.0450114 -0.846881E+00  0.531E+00    1.52       1.0  T
 132    -13.0833164 -0.383050E-01  0.317E+00    1.31       1.0  T
 133    -13.1307982 -0.474818E-01  0.131E+00    0.16       1.0  T
 134    -12.1960186  0.934780E+00  0.967E+00    0.00       1.0  T
 135    -13.0472493 -0.851231E+00  0.522E+00    1.51       1.0  T
 136    -13.0838200 -0.365707E-01  0.314E+00    1.30       1.0  T
 137    -13.1273778 -0.435578E-01  0.143E+00    0.17       1.0  T
 138    -12.1954381  0.931940E+00  0.970E+00    0.00       1.0  T
 139    -13.0480072 -0.852569E+00  0.519E+00    1.50       1.0  T
 140    -13.0839887 -0.359815E-01  0.313E+00    1.30       1.0  T
 141    -13.1397884 -0.557997E-01  0.909E-01    0.14       1.0  T
 142    -12.1979648  0.941824E+00  0.957E+00    0.00       1.0  T
 143    -13.0443017 -0.846337E+00  0.534E+00    1.52       1.0  T
 144    -13.0833940 -0.390924E-01  0.317E+00    1.30       1.0  T
 145    -13.1041600 -0.207659E-01  0.211E+00    0.24       1.0  T
 146    -12.1929942  0.911166E+00  0.983E+00    0.00       1.0  T
 147    -13.0509733 -0.857979E+00  0.508E+00    1.48       1.0  T
 148    -13.0846801 -0.337068E-01  0.308E+00    1.30       1.0  T
 149    -12.5964690  0.488211E+00  0.720E+00    0.01       1.0  T
 150    -13.0581568 -0.461688E+00  0.468E+00    1.45       1.0  T
 151    -13.0860814 -0.279246E-01  0.292E+00    1.29       1.0  T
 152    -12.2014796  0.884602E+00  0.945E+00    0.00       1.0  T
 153    -13.0409305 -0.839451E+00  0.549E+00    1.54       1.0  T
 154    -13.0827865 -0.418560E-01  0.321E+00    1.31       1.0  T
 155    -13.1084362 -0.256496E-01  0.200E+00    0.22       1.0  T
 156    -12.1932813  0.915155E+00  0.982E+00    0.00       1.0  T
 157    -13.0499066 -0.856625E+00  0.513E+00    1.49       1.0  T
 158    -13.0845956 -0.346890E-01  0.309E+00    1.30       1.0  T
 159    -12.7791072  0.305488E+00  0.592E+00    0.02       1.0  T
 160    -13.0668289 -0.287722E+00  0.422E+00    1.41       1.0  T
 161    -13.0881413 -0.213124E-01  0.272E+00    1.10       1.0  T
 162    -12.1975384  0.890603E+00  0.960E+00    0.00       1.0  T
 163    -13.0442112 -0.846673E+00  0.536E+00    1.52       1.0  T
 164    -13.0836120 -0.394008E-01  0.315E+00    1.30       1.0  T
 165    -13.1390780 -0.554661E-01  0.971E-01    0.09       1.0  T
 166    -13.0896382  0.494398E-01  0.257E+00    0.65       1.0  T
 167    -12.1949609  0.894677E+00  0.973E+00    0.00       1.0  T
 168    -13.0487917 -0.853831E+00  0.517E+00    1.50       1.0  T
 169    -13.0843581 -0.355664E-01  0.310E+00    1.30       1.0  T
 170    -13.0324804  0.518778E-01  0.335E+00    0.05       1.0  T
 171    -13.0808550 -0.483747E-01  0.330E+00    1.33       1.0  T
 172    -12.6153716  0.465483E+00  0.708E+00    0.02       1.0  T
 173    -13.0598777 -0.444506E+00  0.458E+00    1.44       1.0  T
 174    -13.0863356 -0.264580E-01  0.289E+00    1.29       1.0  T
 175    -12.2034746  0.882861E+00  0.942E+00    0.00       1.0  T
 176    -13.0411927 -0.837718E+00  0.547E+00    1.54       1.0  T
 177    -13.0827395 -0.415468E-01  0.321E+00    1.31       1.0  T
 178    -13.0974289 -0.146894E-01  0.228E+00    0.29       1.0  T
 179    -12.1929984  0.904430E+00  0.983E+00    0.00       1.0  T
 180    -13.0509502 -0.857952E+00  0.509E+00    1.48       1.0  T
 181    -13.0849170 -0.339669E-01  0.306E+00    1.29       1.0  T
 182    -12.5790246  0.505892E+00  0.731E+00    0.01       1.0  T
 183    -13.0589238 -0.479899E+00  0.465E+00    1.45       1.0  T
 184    -13.0861178 -0.271940E-01  0.291E+00    1.29       1.0  T
 185    -12.2031343  0.882984E+00  0.942E+00    0.00       1.0  T
 186    -13.0405040 -0.837370E+00  0.551E+00    1.54       1.0  T
 187    -13.0826965 -0.421925E-01  0.321E+00    1.31       1.0  T
 188    -13.1035291 -0.208326E-01  0.212E+00    0.24       1.0  T
 189    -12.1929638  0.910565E+00  0.984E+00    0.00       1.0  T
 190    -13.0500809 -0.857117E+00  0.513E+00    1.49       1.0  T
 191    -13.0849139 -0.348329E-01  0.306E+00    1.29       1.0  T
 192    -12.7209389  0.363975E+00  0.636E+00    0.02       1.0  T
 193    -13.0654897 -0.344551E+00  0.430E+00    1.41       1.0  T
 194    -13.0876343 -0.221447E-01  0.276E+00    1.22       1.0  T
 195    -12.1991774  0.888457E+00  0.953E+00    0.00       1.0  T
 196    -13.0422148 -0.843037E+00  0.544E+00    1.53       1.0  T
 197    -13.0832339 -0.410191E-01  0.317E+00    1.31       1.0  T
 198    -13.1390714 -0.558375E-01  0.948E-01    0.14       1.0  T
 199    -12.1969037  0.942168E+00  0.963E+00    0.00       1.0  T
 200    -13.0436403 -0.846737E+00  0.539E+00    1.52       1.0  T
 201    -13.0835821 -0.399419E-01  0.316E+00    1.30       1.0  T
 202    -13.1093600 -0.257778E-01  0.197E+00    0.22       1.0  T
 203    -12.1931189  0.916241E+00  0.983E+00    0.00       1.0  T
 204    -13.0491497 -0.856031E+00  0.518E+00    1.49       1.0  T
 205    -13.0849028 -0.357532E-01  0.306E+00    1.29       1.0  T
 206    -12.8551145  0.229788E+00  0.529E+00    0.03       1.0  T
 207    -13.0719682 -0.216854E+00  0.392E+00    1.38       1.0  T
 208    -13.0894083 -0.174401E-01  0.260E+00    0.78       1.0  T
 209    -12.1965642  0.892844E+00  0.964E+00    0.00       1.0  T
 210    -13.0448596 -0.848295E+00  0.535E+00    1.52       1.0  T
 211    -13.0840317 -0.391722E-01  0.312E+00    1.30       1.0  T
 212    -12.9945644  0.894674E-01  0.385E+00    0.05       1.0  T
 213    -13.0793529 -0.847886E-01  0.342E+00    1.34       1.0  T
 214    -13.1209606 -0.416076E-01  0.165E+00    0.18       1.0  T
 215    -12.1941618  0.926799E+00  0.977E+00    0.00       1.0  T
 216    -13.0467123 -0.852550E+00  0.527E+00    1.51       1.0  T
 217    -13.0844341 -0.377218E-01  0.310E+00    1.30       1.0  T
 218    -13.1419999 -0.575658E-01  0.780E-01    0.14       1.0  T
 219    -12.1975289  0.944471E+00  0.960E+00    0.00       1.0  T
 220    -13.0422201 -0.844691E+00  0.545E+00    1.53       1.0  T
 221    -13.0833849 -0.411648E-01  0.318E+00    1.30       1.0  T
 222    -13.1046687 -0.212838E-01  0.210E+00    0.24       1.0  T
 223    -12.1929003  0.911768E+00  0.984E+00    0.00       1.0  T
 224    -13.0489240 -0.856024E+00  0.519E+00    1.49       1.0  T
 225    -13.0850596 -0.361356E-01  0.305E+00    1.29       1.0  T
 226    -12.6169213  0.468138E+00  0.707E+00    0.02       1.0  T
 227    -13.0608964 -0.443975E+00  0.455E+00    1.44       1.0  T
 228    -13.0866441 -0.257477E-01  0.286E+00    1.29       1.0  T
 229    -12.2018971  0.884747E+00  0.945E+00    0.00       1.0  T
 230    -13.0397315 -0.837834E+00  0.555E+00    1.54       1.0  T
 231    -13.0827045 -0.429730E-01  0.321E+00    1.31       1.0  T
 232    -13.1191701 -0.364657E-01  0.170E+00    0.19       1.0  T
 233    -12.1938690  0.925301E+00  0.979E+00    0.00       1.0  T
 234    -13.0470077 -0.853139E+00  0.527E+00    1.50       1.0  T
 235    -13.0846410 -0.376333E-01  0.308E+00    1.30       1.0  T
 236    -13.1064847 -0.218436E-01  0.203E+00    0.07       1.0  T
 237    -13.0865917  0.198930E-01  0.283E+00    1.29       1.0  T
 238    -12.1992331  0.887359E+00  0.952E+00    0.00       1.0  T
 239    -13.0418275 -0.842594E+00  0.547E+00    1.53       1.0  T
 240    -13.0833059 -0.414785E-01  0.317E+00    1.31       1.0  T
 241    -13.1404742 -0.571683E-01  0.872E-01    0.14       1.0  T
 242    -12.1970365  0.943438E+00  0.962E+00    0.00       1.0  T
 243    -13.0427689 -0.845732E+00  0.543E+00    1.53       1.0  T
 244    -13.0835780 -0.408091E-01  0.316E+00    1.30       1.0  T
 245    -13.1081249 -0.245469E-01  0.201E+00    0.22       1.0  T
 246    -12.1930342  0.915091E+00  0.983E+00    0.00       1.0  T
 247    -13.0486026 -0.855568E+00  0.521E+00    1.49       1.0  T
 248    -13.0850652 -0.364626E-01  0.304E+00    1.29       1.0  T
 249    -12.8247880  0.260277E+00  0.555E+00    0.03       1.0  T
 250    -13.0709902 -0.246202E+00  0.398E+00    1.38       1.0  T
     SCC iter.                  ...        0 min,  0.112 sec
     gradient                   ...        0 min,  0.001 sec
 * total energy  :   -12.6370382 Eh     change        0.3822605E+00 Eh
   gradient norm :     4.2442221 Eh/α   predicted    -0.2362172E+00 (-161.79%)
   displ. norm   :     0.1793830 α      lambda       -0.7189093E+00
   maximum displ.:     0.1757787 α      in ANC's #12, #9, #8, ...

........................................................................
.............................. CYCLE    5 ..............................
........................................................................
   1    -13.0932783 -0.130933E+02  0.236E+00    0.97       0.0  T
   2    -12.1620176  0.931261E+00  0.106E+01    0.00       1.0  T
   3    -12.2232748 -0.612572E-01  0.962E+00    0.00       1.0  T
   4    -12.1940317  0.292431E-01  0.991E+00    0.00       1.0  T
   5    -12.1945846 -0.552922E-03  0.987E+00    0.00       1.0  T
   6    -12.1918673  0.271725E-02  0.104E+01    0.20       1.0  T
   7    -12.1889955  0.287180E-02  0.102E+01    0.00       1.0  T
   8    -12.9602221 -0.771227E+00  0.291E+01    2.31       1.0  T
   9    -12.9828824 -0.226603E-01  0.240E+01    2.16       1.0  T
  10    -13.0099676 -0.270852E-01  0.240E+01    1.95       1.0  T
  11    -13.0388721 -0.289045E-01  0.683E+00    1.79       1.0  T
  12    -13.0997472 -0.608752E-01  0.390E+00    1.20       1.0  T
  13    -13.1011321 -0.138482E-02  0.664E+00    0.87       1.0  T
  14    -13.0974174  0.371471E-02  0.504E+00    1.20       1.0  T
  15    -13.0942111  0.320624E-02  0.419E+00    1.13       1.0  T
  16    -13.0995452 -0.533410E-02  0.399E+00    0.40       1.0  T
  17    -12.1951727  0.904373E+00  0.966E+00    0.00       1.0  T
  18    -13.0557755 -0.860603E+00  0.688E+00    1.67       1.0  T
  19    -13.0900407 -0.342652E-01  0.327E+00    1.40       1.0  T
  20    -13.1012648 -0.112241E-01  0.350E+00    0.31       1.0  T
  21    -12.6083794  0.492885E+00  0.718E+00    0.00       1.0  T
  22    -13.0714618 -0.463082E+00  0.461E+00    1.55       1.0  T
  23    -13.0923258 -0.208639E-01  0.304E+00    1.22       1.0  T
  24    -13.0971428 -0.481700E-02  0.311E+00    0.47       1.0  T
  25    -13.1001356 -0.299285E-02  0.282E+00    0.32       1.0  T
  26    -13.1451552 -0.450196E-01  0.143E+00    0.12       1.0  T
  27    -13.0942303  0.509250E-01  0.249E+00    0.56       1.0  T
  28    -12.2208372  0.873393E+00  0.931E+00    0.00       1.0  T
  29    -13.0820315 -0.861194E+00  0.341E+00    1.47       1.0  T
  30    -13.0902679 -0.823644E-02  0.274E+00    1.25       1.0  T
  31    -13.0954914 -0.522346E-02  0.267E+00    0.52       1.0  T
  32    -13.1119613 -0.164699E-01  0.215E+00    0.22       1.0  T
  33    -13.1317669 -0.198056E-01  0.138E+00    0.08       1.0  T
  34    -13.0929366  0.388303E-01  0.255E+00    0.64       1.0  T
  35    -12.2312672  0.861669E+00  0.924E+00    0.00       1.0  T
  36    -13.0866356 -0.855368E+00  0.300E+00    1.44       1.0  T
  37    -13.0902363 -0.360068E-02  0.272E+00    1.13       1.0  T
  38    -13.0964008 -0.616457E-02  0.249E+00    0.42       1.0  T
  39    -12.8968896  0.199511E+00  0.493E+00    0.03       1.0  T
  40    -13.0882881 -0.191399E+00  0.297E+00    1.39       1.0  T
  41    -13.0963851 -0.809700E-02  0.246E+00    0.42       1.0  T
  42    -13.0903514  0.603372E-02  0.245E+00    0.06       1.0  T
  43    -13.0920138 -0.166245E-02  0.262E+00    0.76       1.0  T
  44    -13.1487516 -0.567378E-01  0.629E-01    0.11       1.0  T
  45    -13.1086050  0.401466E-01  0.204E+00    0.24       1.0  T
  46    -12.2245732  0.884032E+00  0.927E+00    0.00       1.0  T
  47    -13.0887294 -0.864156E+00  0.289E+00    1.41       1.0  T
  48    -13.0915213 -0.279198E-02  0.261E+00    0.87       1.0  T
  49    -13.0978276 -0.630626E-02  0.236E+00    0.36       1.0  T
  50    -12.9361477  0.161680E+00  0.453E+00    0.04       1.0  T
  51    -13.0905945 -0.154447E+00  0.276E+00    0.99       1.0  T
  52    -13.1014539 -0.108595E-01  0.226E+00    0.29       1.0  T
  53    -12.8998096  0.201644E+00  0.489E+00    0.03       1.0  T
  54    -13.0907003 -0.190891E+00  0.275E+00    0.97       1.0  T
  55    -13.0996345 -0.893420E-02  0.230E+00    0.32       1.0  T
  56    -13.0597424  0.398921E-01  0.297E+00    0.06       1.0  T
  57    -13.0928975 -0.331551E-01  0.256E+00    0.64       1.0  T
  58    -13.1482795 -0.553820E-01  0.513E-01    0.12       1.0  T
  59    -13.1200903  0.281892E-01  0.171E+00    0.20       1.0  T
  60    -12.2759552  0.844135E+00  0.900E+00    0.00       1.0  T
  61    -13.0898946 -0.813939E+00  0.281E+00    1.20       1.0  T
  62    -13.0923440 -0.244936E-02  0.255E+00    0.74       1.0  T
  63    -13.0997113 -0.736734E-02  0.228E+00    0.32       1.0  T
  64    -13.0734178  0.262935E-01  0.274E+00    0.06       1.0  T
  65    -13.0935790 -0.201612E-01  0.251E+00    0.57       1.0  T
  66    -13.1425270 -0.489480E-01  0.901E-01    0.09       1.0  T
  67    -13.0986619  0.438651E-01  0.230E+00    0.33       1.0  T
  68    -12.3930702  0.705592E+00  0.839E+00    0.00       1.0  T
  69    -13.0897024 -0.696632E+00  0.280E+00    1.22       1.0  T
  70    -13.0933224 -0.361997E-02  0.250E+00    0.63       1.0  T
  71    -13.1038251 -0.105027E-01  0.217E+00    0.27       1.0  T
  72    -13.0627065  0.411186E-01  0.291E+00    0.06       1.0  T
  73    -13.0937232 -0.310167E-01  0.250E+00    0.56       1.0  T
  74    -13.1489659 -0.552428E-01  0.365E-01    0.11       1.0  T
  75    -13.1091242  0.398418E-01  0.202E+00    0.24       1.0  T
  76    -12.3237297  0.785394E+00  0.876E+00    0.00       1.0  T
  77    -13.0902325 -0.766503E+00  0.275E+00    1.14       1.0  T
  78    -13.0930312 -0.279873E-02  0.251E+00    0.65       1.0  T
  79    -13.1044630 -0.114318E-01  0.215E+00    0.27       1.0  T
  80    -13.0473479  0.571152E-01  0.316E+00    0.06       1.0  T
  81    -13.0935743 -0.462264E-01  0.251E+00    0.58       1.0  T
  82    -13.1466014 -0.530272E-01  0.577E-01    0.13       1.0  T
  83    -13.1327594  0.138421E-01  0.128E+00    0.17       1.0  T
  84    -12.6039382  0.528821E+00  0.715E+00    0.02       1.0  T
  85    -13.0909573 -0.487019E+00  0.274E+00    0.98       1.0  T
  86    -13.0951587 -0.420135E-02  0.241E+00    0.46       1.0  T
  87    -13.1259609 -0.308023E-01  0.153E+00    0.18       1.0  T
  88    -13.0772334  0.487276E-01  0.265E+00    0.07       1.0  T
  89    -13.0951887 -0.179553E-01  0.244E+00    0.45       1.0  T
  90    -13.1026707 -0.748205E-02  0.215E+00    0.07       1.0  T
  91    -13.0953672  0.730348E-02  0.242E+00    0.44       1.0  T
  92    -13.0613321  0.340351E-01  0.294E+00    0.06       1.0  T
  93    -13.0942799 -0.329478E-01  0.247E+00    0.51       1.0  T
  94    -13.1490117 -0.547317E-01  0.286E-01    0.11       1.0  T
  95    -13.1191369  0.298748E-01  0.174E+00    0.20       1.0  T
  96    -12.4460011  0.673136E+00  0.810E+00    0.01       1.0  T
  97    -13.0911186 -0.645118E+00  0.269E+00    0.97       1.0  T
  98    -13.0941381 -0.301949E-02  0.245E+00    0.53       1.0  T
  99    -13.1149441 -0.208060E-01  0.186E+00    0.21       1.0  T
 100    -13.0450160  0.699281E-01  0.319E+00    0.06       1.0  T
 101    -13.0945034 -0.494874E-01  0.246E+00    0.50       1.0  T
 102    -13.1483297 -0.538262E-01  0.360E-01    0.12       1.0  T
 103    -13.1305408  0.177889E-01  0.136E+00    0.17       1.0  T
 104    -12.6865569  0.443984E+00  0.660E+00    0.02       1.0  T
 105    -13.0919050 -0.405348E+00  0.264E+00    0.83       1.0  T
 106    -13.0967723 -0.486738E-02  0.235E+00    0.38       1.0  T
 107    -13.1435861 -0.468138E-01  0.757E-01    0.14       1.0  T
 108    -13.1489095 -0.532336E-02  0.167E-01    0.12       1.0  T
 109    -13.1490833 -0.173823E-03  0.775E-02    0.12       1.0  T
 110    -13.1464937  0.258956E-02  0.506E-01    0.13       1.0  T
 111    -13.1245735  0.219202E-01  0.156E+00    0.09       1.0  T
 112    -13.1025347  0.220388E-01  0.222E+00    0.28       1.0  T
 113    -12.6560741  0.446461E+00  0.681E+00    0.02       1.0  T
 114    -13.0919548 -0.435881E+00  0.261E+00    0.81       1.0  T
 115    -13.0966477 -0.469294E-02  0.235E+00    0.39       1.0  T
 116    -13.1439968 -0.473491E-01  0.725E-01    0.14       1.0  T
 117    -13.1481670 -0.417021E-02  0.308E-01    0.13       1.0  T
 118    -13.1457444  0.242261E-02  0.585E-01    0.10       1.0  T
 119    -13.1244334  0.213109E-01  0.158E+00    0.19       1.0  T
 120    -12.6698354  0.454598E+00  0.672E+00    0.02       1.0  T
 121    -13.0921874 -0.422352E+00  0.261E+00    0.78       1.0  T
 122    -13.0974325 -0.524517E-02  0.233E+00    0.36       1.0  T
 123    -13.1474345 -0.500020E-01  0.432E-01    0.13       1.0  T
 124    -13.1396442  0.779037E-02  0.969E-01    0.15       1.0  T
 125    -13.0066511  0.132993E+00  0.371E+00    0.05       1.0  T
 126    -13.0946976 -0.880465E-01  0.246E+00    0.48       1.0  T
 127    -13.1448438 -0.501462E-01  0.664E-01    0.14       1.0  T
 128    -13.1446270  0.216786E-03  0.665E-01    0.14       1.0  T
 129    -13.0740732  0.705538E-01  0.270E+00    0.07       1.0  T
 130    -13.0965421 -0.224689E-01  0.239E+00    0.39       1.0  T
 131    -13.1112805 -0.147384E-01  0.194E+00    0.08       1.0  T
 132    -13.0984656  0.128149E-01  0.232E+00    0.34       1.0  T
 133    -12.9901673  0.108298E+00  0.392E+00    0.05       1.0  T
 134    -13.0942499 -0.104083E+00  0.247E+00    0.52       1.0  T
 135    -13.1304467 -0.361968E-01  0.137E+00    0.17       1.0  T
 136    -13.0926400  0.378067E-01  0.235E+00    0.07       1.0  T
 137    -13.0983758 -0.573577E-02  0.232E+00    0.34       1.0  T
 138    -13.0488300  0.495457E-01  0.313E+00    0.06       1.0  T
 139    -13.0954502 -0.466201E-01  0.241E+00    0.43       1.0  T
 140    -13.1487237 -0.532735E-01  0.253E-01    0.12       1.0  T
 141    -13.1411352  0.758848E-02  0.889E-01    0.15       1.0  T
 142    -13.0097605  0.131375E+00  0.367E+00    0.06       1.0  T
 143    -13.0951151 -0.853546E-01  0.244E+00    0.46       1.0  T
 144    -13.1413048 -0.461898E-01  0.883E-01    0.15       1.0  T
 145    -13.1431234 -0.181860E-02  0.777E-01    0.10       1.0  T
 146    -13.1257406  0.173828E-01  0.154E+00    0.18       1.0  T
 147    -12.7959527  0.329788E+00  0.579E+00    0.03       1.0  T
 148    -13.0931375 -0.297185E+00  0.254E+00    0.64       1.0  T
 149    -13.1017862 -0.864868E-02  0.221E+00    0.29       1.0  T
 150    -13.1364874 -0.347012E-01  0.114E+00    0.09       1.0  T
 151    -13.1089377  0.275497E-01  0.203E+00    0.24       1.0  T
 152    -12.7892399  0.319698E+00  0.584E+00    0.03       1.0  T
 153    -13.0931529 -0.303913E+00  0.252E+00    0.64       1.0  T
 154    -13.1013285 -0.817553E-02  0.222E+00    0.30       1.0  T
 155    -13.1437968 -0.424683E-01  0.751E-01    0.10       1.0  T
 156    -13.1146849  0.291118E-01  0.187E+00    0.22       1.0  T
 157    -12.7981163  0.316569E+00  0.577E+00    0.03       1.0  T
 158    -13.0932706 -0.295154E+00  0.252E+00    0.63       1.0  T
 159    -13.1021944 -0.892384E-02  0.219E+00    0.29       1.0  T
 160    -13.1425691 -0.403746E-01  0.828E-01    0.10       1.0  T
 161    -13.1124629  0.301062E-01  0.194E+00    0.22       1.0  T
 162    -12.8144740  0.297989E+00  0.564E+00    0.03       1.0  T
 163    -13.0934219 -0.278948E+00  0.251E+00    0.61       1.0  T
 164    -13.1037545 -0.103326E-01  0.215E+00    0.27       1.0  T
 165    -13.1377687 -0.340142E-01  0.108E+00    0.09       1.0  T
 166    -13.1081161  0.296526E-01  0.205E+00    0.24       1.0  T
 167    -12.8489243  0.259192E+00  0.535E+00    0.04       1.0  T
 168    -13.0936759 -0.244752E+00  0.249E+00    0.58       1.0  T
 169    -13.1070462 -0.133703E-01  0.207E+00    0.25       1.0  T
 170    -13.1288009 -0.217547E-01  0.143E+00    0.09       1.0  T
 171    -13.1041422  0.246588E-01  0.216E+00    0.27       1.0  T
 172    -12.9149645  0.189178E+00  0.474E+00    0.04       1.0  T
 173    -13.0941886 -0.179224E+00  0.246E+00    0.53       1.0  T
 174    -13.1164667 -0.222782E-01  0.181E+00    0.21       1.0  T
 175    -13.1206391 -0.417233E-02  0.168E+00    0.08       1.0  T
 176    -13.1028321  0.178070E-01  0.220E+00    0.28       1.0  T
 177    -12.9488873  0.153945E+00  0.439E+00    0.05       1.0  T
 178    -13.0945806 -0.145693E+00  0.245E+00    0.49       1.0  T
 179    -13.1249666 -0.303860E-01  0.155E+00    0.18       1.0  T
 180    -13.1298448 -0.487823E-02  0.139E+00    0.09       1.0  T
 181    -13.1071177  0.227271E-01  0.208E+00    0.25       1.0  T
 182    -12.8757920  0.231326E+00  0.511E+00    0.04       1.0  T
 183    -13.0941141 -0.218322E+00  0.247E+00    0.54       1.0  T
 184    -13.1129831 -0.188690E-01  0.191E+00    0.22       1.0  T
 185    -13.1186714 -0.568835E-02  0.174E+00    0.08       1.0  T
 186    -13.1025709  0.161005E-01  0.220E+00    0.28       1.0  T
 187    -12.9768195  0.125751E+00  0.408E+00    0.05       1.0  T
 188    -13.0950686 -0.118249E+00  0.242E+00    0.46       1.0  T
 189    -13.1338248 -0.387562E-01  0.123E+00    0.16       1.0  T
 190    -13.1455084 -0.116835E-01  0.607E-01    0.10       1.0  T
 191    -13.1245467  0.209616E-01  0.158E+00    0.19       1.0  T
 192    -12.9258788  0.198668E+00  0.462E+00    0.04       1.0  T
 193    -13.0947715 -0.168893E+00  0.244E+00    0.48       1.0  T
 194    -13.1273482 -0.325767E-01  0.147E+00    0.18       1.0  T
 195    -13.1321787 -0.483046E-02  0.130E+00    0.09       1.0  T
 196    -13.1099047  0.222739E-01  0.201E+00    0.24       1.0  T
 197    -12.8744240  0.235481E+00  0.512E+00    0.04       1.0  T
 198    -13.0944047 -0.219981E+00  0.245E+00    0.51       1.0  T
 199    -13.1157768 -0.213721E-01  0.183E+00    0.21       1.0  T
 200    -13.1202603 -0.448347E-02  0.169E+00    0.08       1.0  T
 201    -13.1039879  0.162723E-01  0.216E+00    0.27       1.0  T
 202    -12.9781626  0.125825E+00  0.406E+00    0.05       1.0  T
 203    -13.0954045 -0.117242E+00  0.241E+00    0.44       1.0  T
 204    -13.1365864 -0.411818E-01  0.111E+00    0.16       1.0  T
 205    -13.1482764 -0.116900E-01  0.299E-01    0.11       1.0  T
 206    -13.1348070  0.134694E-01  0.120E+00    0.16       1.0  T
 207    -13.0545086  0.802984E-01  0.303E+00    0.06       1.0  T
 208    -13.0978038 -0.432951E-01  0.234E+00    0.35       1.0  T
 209    -13.1281697 -0.303660E-01  0.145E+00    0.09       1.0  T
 210    -13.1055258  0.226440E-01  0.212E+00    0.26       1.0  T
 211    -12.9465790  0.158947E+00  0.441E+00    0.05       1.0  T
 212    -13.0953334 -0.148754E+00  0.241E+00    0.44       1.0  T
 213    -13.1320726 -0.367392E-01  0.130E+00    0.17       1.0  T
 214    -13.1426163 -0.105438E-01  0.810E-01    0.10       1.0  T
 215    -13.1212897  0.213266E-01  0.168E+00    0.20       1.0  T
 216    -12.9518378  0.169452E+00  0.435E+00    0.05       1.0  T
 217    -13.0955616 -0.143724E+00  0.241E+00    0.43       1.0  T
 218    -13.1361812 -0.406196E-01  0.113E+00    0.16       1.0  T
 219    -13.1471172 -0.109360E-01  0.453E-01    0.11       1.0  T
 220    -13.1322679  0.148494E-01  0.130E+00    0.17       1.0  T
 221    -13.0364741  0.957937E-01  0.330E+00    0.06       1.0  T
 222    -13.0976267 -0.611526E-01  0.234E+00    0.36       1.0  T
 223    -13.1425329 -0.449062E-01  0.824E-01    0.10       1.0  T
 224    -13.1152795  0.272534E-01  0.186E+00    0.21       1.0  T
 225    -12.9268157  0.188464E+00  0.461E+00    0.04       1.0  T
 226    -13.0955128 -0.168697E+00  0.241E+00    0.43       1.0  T
 227    -13.1307964 -0.352836E-01  0.135E+00    0.17       1.0  T
 228    -13.1411882 -0.103918E-01  0.892E-01    0.10       1.0  T
 229    -13.1207066  0.204816E-01  0.170E+00    0.20       1.0  T
 230    -12.9756265  0.145080E+00  0.409E+00    0.05       1.0  T
 231    -13.0962653 -0.120639E+00  0.238E+00    0.40       1.0  T
 232    -13.1429847 -0.467194E-01  0.776E-01    0.14       1.0  T
 233    -13.1485305 -0.554579E-02  0.235E-01    0.13       1.0  T
 234    -13.1489604 -0.429913E-03  0.112E-01    0.12       1.0  T
 235    -13.1479104  0.105003E-02  0.340E-01    0.13       1.0  T
 236    -13.1482909 -0.380487E-03  0.285E-01    0.11       1.0  T
 237    -13.1411500  0.714083E-02  0.893E-01    0.15       1.0  T
 238    -13.0972001  0.439499E-01  0.225E+00    0.08       1.0  T
 239    -13.1042269 -0.702679E-02  0.217E+00    0.27       1.0  T
 240    -12.9805991  0.123628E+00  0.403E+00    0.05       1.0  T
 241    -13.0967260 -0.116127E+00  0.236E+00    0.38       1.0  T
 242    -13.1460265 -0.493004E-01  0.550E-01    0.13       1.0  T
 243    -13.1472723 -0.124582E-02  0.422E-01    0.13       1.0  T
 244    -13.1459228  0.134948E-02  0.565E-01    0.11       1.0  T
 245    -13.1325923  0.133305E-01  0.129E+00    0.17       1.0  T
 246    -13.0354844  0.971078E-01  0.332E+00    0.06       1.0  T
 247    -13.0983793 -0.628949E-01  0.232E+00    0.34       1.0  T
 248    -13.1403326 -0.419533E-01  0.945E-01    0.10       1.0  T
 249    -13.1164407  0.238919E-01  0.183E+00    0.21       1.0  T
 250    -12.9640167  0.152424E+00  0.422E+00    0.05       1.0  T
     SCC iter.                  ...        0 min,  0.114 sec
     gradient                   ...        0 min,  0.001 sec
 * total energy  :   -12.8997126 Eh     change       -0.2626744E+00 Eh
   gradient norm :     0.1288307 Eh/α   predicted    -0.3710213E+00 (  41.25%)
   displ. norm   :     0.0064836 α      lambda       -0.6786654E-03
   maximum displ.:     0.0052774 α      in ANC's #12, #8, #1, ...

........................................................................
.............................. CYCLE    6 ..............................
........................................................................
   1    -13.0940694 -0.130941E+02  0.371E+00    0.37       0.0  T
   2    -12.1601454  0.933924E+00  0.993E+00    0.00       1.0  T
   3    -13.0844860 -0.924341E+00  0.335E+00    0.71       1.0  T
   4    -13.1022464 -0.177605E-01  0.254E+00    0.50       1.0  T
   5    -13.1102077 -0.796129E-02  0.198E+00    0.25       1.0  T
   6    -12.2183059  0.891902E+00  0.933E+00    0.00       1.0  T
   7    -12.7325882 -0.514282E+00  0.630E+00    0.03       1.0  T
   8    -12.5532137  0.179375E+00  0.749E+00    0.02       1.0  T
   9    -12.3130841  0.240130E+00  0.882E+00    0.01       1.0  T
  10    -12.3340458 -0.209617E-01  0.871E+00    0.01       1.0  T
  11    -13.1069927 -0.772947E+00  0.235E+00    0.22       1.0  T
  12    -13.0816717  0.253210E-01  0.359E+00    0.56       1.0  T
  13    -12.4710604  0.610611E+00  0.795E+00    0.01       1.0  T
  14    -13.0764473 -0.605387E+00  0.260E+00    0.07       1.0  T
  15    -13.0954807 -0.190334E-01  0.224E+00    0.07       1.0  T
  16    -13.1413938 -0.459130E-01  0.933E-01    0.14       1.0  T
  17    -13.1200549  0.213389E-01  0.173E+00    0.20       1.0  T
  18    -13.1206919 -0.637078E-03  0.169E+00    0.19       1.0  T
  19    -13.1332092 -0.125173E-01  0.125E+00    0.16       1.0  T
  20    -13.1430158 -0.980659E-02  0.759E-01    0.14       1.0  T
  21    -13.1456142 -0.259840E-02  0.564E-01    0.14       1.0  T
  22    -13.1471347 -0.152051E-02  0.408E-01    0.13       1.0  T
  23    -13.1483646 -0.122988E-02  0.207E-01    0.13       1.0  T
  24    -13.1487131 -0.348480E-03  0.866E-02    0.12       1.0  T
  25    -13.1487778 -0.647345E-04  0.267E-02    0.12       1.5  T
  26    -13.1487815 -0.367534E-05  0.134E-02    0.12       3.0  T
  27    -13.1487783  0.315890E-05  0.209E-02    0.12       2.0  T
  28    -13.1487802 -0.190949E-05  0.157E-02    0.12       2.6  T
  29    -13.1487826 -0.239019E-05  0.365E-03    0.12      11.2  T
  30    -13.1487828 -0.137616E-06  0.456E-04    0.12      89.4  T
     SCC iter.                  ...        0 min,  0.002 sec
     gradient                   ...        0 min,  0.001 sec
 * total energy  :   -13.0853751 Eh     change       -0.1856624E+00 Eh
   gradient norm :     0.0498203 Eh/α   predicted    -0.3393468E-03 ( -99.82%)
   displ. norm   :     0.0647734 α      lambda       -0.1856590E-03
   maximum displ.:     0.0642192 α      in ANC's #1, #2, #8, ...

........................................................................
.............................. CYCLE    7 ..............................
........................................................................
   1    -13.1479387 -0.131479E+02  0.238E-01    0.13       0.0  T
   2    -12.2325692  0.915370E+00  0.922E+00    0.01       1.0  T
   3    -13.1482319 -0.915663E+00  0.136E-01    0.12       1.0  T
   4    -13.1483222 -0.903508E-04  0.819E-02    0.12       1.0  T
   5    -13.1483713 -0.490193E-04  0.246E-02    0.12       1.7  T
   6    -13.1483348  0.364715E-04  0.615E-02    0.12       1.0  T
   7    -13.1483677 -0.328722E-04  0.243E-02    0.12       1.7  T
   8    -13.1483705 -0.281374E-05  0.170E-02    0.12       2.4  T
   9    -13.1483730 -0.251174E-05  0.610E-03    0.12       6.7  T
  10    -13.1483733 -0.288452E-06  0.199E-03    0.12      20.5  T
  11    -13.1483733 -0.341721E-07  0.373E-04    0.12     109.5  T
     SCC iter.                  ...        0 min,  0.001 sec
     gradient                   ...        0 min,  0.001 sec
 * total energy  :   -13.0850702 Eh     change        0.3049099E-03 Eh
   gradient norm :     0.0408571 Eh/α   predicted    -0.9321855E-04 (-130.57%)
   displ. norm   :     0.0748867 α      lambda       -0.1088684E-02
   maximum displ.:     0.0735552 α      in ANC's #1, #8, #3, ...

........................................................................
.............................. CYCLE    8 ..............................
........................................................................
   1    -13.1445208 -0.131445E+02  0.594E-01    0.14       0.0  T
   2    -12.1928055  0.951715E+00  0.952E+00    0.01       1.0  T
   3    -13.1456586 -0.952853E+00  0.478E-01    0.11       1.0  T
   4    -13.1462849 -0.626297E-03  0.404E-01    0.13       1.0  T
   5    -13.1478449 -0.155996E-02  0.382E-02    0.12       1.1  T
   6    -13.1466842  0.116075E-02  0.340E-01    0.11       1.0  T
   7    -13.1478447 -0.116056E-02  0.154E-02    0.12       2.6  T
   8    -13.1478375  0.717679E-05  0.307E-02    0.12       1.3  T
   9    -13.1478444 -0.685036E-05  0.157E-02    0.12       2.6  T
  10    -13.1478467 -0.228320E-05  0.357E-03    0.12      11.4  T
  11    -13.1478467  0.986056E-08  0.368E-03    0.12      11.1  T
     SCC iter.                  ...        0 min,  0.001 sec
     gradient                   ...        0 min,  0.001 sec
 * total energy  :   -13.0851915 Eh     change       -0.1213246E-03 Eh
   gradient norm :     0.1539466 Eh/α   predicted    -0.5473946E-03 ( 351.18%)
   displ. norm   :     0.0475247 α      lambda       -0.9988677E-03
   maximum displ.:     0.0428872 α      in ANC's #2, #1, #12, ...

........................................................................
.............................. CYCLE    9 ..............................
........................................................................
   1    -13.1444513 -0.131445E+02  0.597E-01    0.11       0.0  T
   2    -13.0779598  0.664914E-01  0.302E+00    0.86       1.0  T
   3    -13.1028410 -0.248812E-01  0.216E+00    0.28       1.0  T
   4    -13.1363900 -0.335489E-01  0.108E+00    0.16       1.0  T
   5    -12.6715827  0.464807E+00  0.670E+00    0.03       1.0  T
   6    -13.0482962 -0.376713E+00  0.311E+00    0.06       1.0  T
   7    -13.1198063 -0.715101E-01  0.169E+00    0.20       1.0  T
   8    -13.1263851 -0.657873E-02  0.146E+00    0.09       1.0  T
   9    -13.1356566 -0.927154E-02  0.111E+00    0.16       1.0  T
  10    -13.1479803 -0.123237E-01  0.121E-02    0.12       3.4  T
  11    -13.1448351  0.314518E-02  0.559E-01    0.14       1.0  T
  12    -13.1462464 -0.141127E-02  0.414E-01    0.13       1.0  T
  13    -13.1465661 -0.319683E-03  0.374E-01    0.13       1.0  T
  14    -13.1475012 -0.935174E-03  0.217E-01    0.13       1.0  T
  15    -13.1478137 -0.312477E-03  0.128E-01    0.12       1.0  T
  16    -13.1479369 -0.123210E-03  0.653E-02    0.12       1.0  T
  17    -13.1479683 -0.313789E-04  0.343E-02    0.12       1.2  T
  18    -13.1479773 -0.901635E-05  0.172E-02    0.12       2.4  T
  19    -13.1479799 -0.257195E-05  0.647E-03    0.12       6.3  T
  20    -13.1479803 -0.423117E-06  0.311E-04    0.12     131.1  T
  21    -13.1479803  0.239422E-08  0.565E-04    0.12      72.3  T
     SCC iter.                  ...        0 min,  0.001 sec
     gradient                   ...        0 min,  0.001 sec
 * total energy  :   -13.0853173 Eh     change       -0.1258301E-03 Eh
   gradient norm :     0.0430327 Eh/α   predicted    -0.5005597E-03 ( 297.81%)
   displ. norm   :     0.3088982 α      lambda       -0.2081647E-02
   maximum displ.:     0.3082426 α      in ANC's #2, #1, #12, ...

........................................................................
.............................. CYCLE   10 ..............................
........................................................................
   1    -13.1225743 -0.131226E+02  0.158E+00    0.09       0.0  T
   2    -13.0415650  0.810093E-01  0.412E+00    1.81       1.0  T
   3    -13.0923486 -0.507836E-01  0.251E+00    0.84       1.0  T
   4    -13.0925593 -0.210765E-03  0.239E+00    0.39       1.0  T
   5    -12.1932998  0.899260E+00  0.970E+00    0.00       1.0  T
   6    -12.1981263 -0.482648E-02  0.953E+00    0.00       1.0  T
   7    -13.0898216 -0.891695E+00  0.246E+00    0.46       1.0  T
   8    -13.0887833  0.103834E-02  0.251E+00    0.60       1.0  T
   9    -13.0932397 -0.445643E-02  0.233E+00    0.37       1.0  T
  10    -13.1023587 -0.911895E-02  0.208E+00    0.25       1.0  T
  11    -13.1084978 -0.613910E-02  0.192E+00    0.22       1.0  T
  12    -13.1132216 -0.472379E-02  0.179E+00    0.21       1.0  T
  13    -13.1411107 -0.278892E-01  0.637E-01    0.14       1.0  T
  14    -13.1336605  0.745022E-02  0.108E+00    0.16       1.0  T
  15    -13.1325070  0.115348E-02  0.113E+00    0.09       1.0  T
  16    -13.1452708 -0.127637E-01  0.631E-02    0.12       1.0  T
  17    -13.1125010  0.327698E-01  0.180E+00    0.08       1.0  T
  18    -13.1369176 -0.244166E-01  0.912E-01    0.10       1.0  T
  19    -13.1406505 -0.373296E-02  0.680E-01    0.10       1.0  T
  20    -13.1444190 -0.376843E-02  0.297E-01    0.13       1.0  T
  21    -13.1430621  0.135681E-02  0.472E-01    0.13       1.0  T
  22    -13.1448459 -0.178373E-02  0.212E-01    0.12       1.0  T
  23    -13.1452507 -0.404857E-03  0.751E-02    0.12       1.0  T
  24    -13.1452617 -0.109227E-04  0.664E-02    0.12       1.0  T
  25    -13.1453043 -0.426160E-04  0.681E-03    0.12       6.0  T
  26    -13.1452917  0.125450E-04  0.357E-02    0.12       1.1  T
  27    -13.1453045 -0.128043E-04  0.371E-03    0.12      11.0  T
  28    -13.1453045  0.260904E-07  0.420E-03    0.12       9.7  T
  29    -13.1453047 -0.172193E-06  0.510E-04    0.12      80.0  T
     SCC iter.                  ...        0 min,  0.002 sec
     gradient                   ...        0 min,  0.001 sec
 * total energy  :   -13.0707037 Eh     change        0.1461362E-01 Eh
   gradient norm :     0.6068948 Eh/α   predicted    -0.1140135E-02 (-107.80%)
   displ. norm   :     0.2527332 α      lambda       -0.3650429E-01
   maximum displ.:     0.2466797 α      in ANC's #2, #1, #12, ...

........................................................................
.............................. CYCLE   11 ..............................
........................................................................
   1    -13.1304899 -0.131305E+02  0.137E+00    0.17       0.0  T
   2    -12.1773548  0.953135E+00  0.987E+00    0.00       1.0  T
   3    -12.6839094 -0.506555E+00  0.662E+00    0.03       1.0  T
   4    -13.1018729 -0.417963E+00  0.220E+00    0.27       1.0  T
   5    -13.0947452  0.712772E-02  0.238E+00    0.43       1.0  T
   6    -13.0918247  0.292054E-02  0.248E+00    0.50       1.0  T
   7    -13.0925082 -0.683524E-03  0.246E+00    0.52       1.0  T
   8    -13.0943899 -0.188173E-02  0.238E+00    0.45       1.0  T
   9    -13.0968038 -0.241385E-02  0.229E+00    0.36       1.0  T
  10    -13.0975221 -0.718373E-03  0.227E+00    0.34       1.0  T
  11    -12.2094216  0.888100E+00  0.934E+00    0.01       1.0  T
  12    -13.0895998 -0.880178E+00  0.263E+00    1.11       1.0  T
  13    -13.0917920 -0.219219E-02  0.252E+00    0.76       1.0  T
  14    -13.1039162 -0.121242E-01  0.211E+00    0.26       1.0  T
  15    -12.4541950  0.649721E+00  0.804E+00    0.02       1.0  T
  16    -13.0884005 -0.634206E+00  0.275E+00    1.35       1.0  T
  17    -13.0974174 -0.901694E-02  0.229E+00    0.34       1.0  T
  18    -13.1117182 -0.143008E-01  0.190E+00    0.22       1.0  T
  19    -12.9439157  0.167802E+00  0.442E+00    0.05       1.0  T
  20    -13.0910008 -0.147085E+00  0.256E+00    0.80       1.0  T
  21    -13.1215737 -0.305729E-01  0.161E+00    0.19       1.0  T
  22    -12.8879067  0.233667E+00  0.498E+00    0.04       1.0  T
  23    -13.0907434 -0.202837E+00  0.258E+00    0.84       1.0  T
  24    -13.1172591 -0.265157E-01  0.174E+00    0.20       1.0  T
  25    -12.9687406  0.148518E+00  0.415E+00    0.05       1.0  T
  26    -13.0916388 -0.122898E+00  0.252E+00    0.70       1.0  T
  27    -13.1248172 -0.331784E-01  0.150E+00    0.18       1.0  T
  28    -13.0457150  0.791022E-01  0.314E+00    0.06       1.0  T
  29    -13.0928161 -0.471011E-01  0.246E+00    0.55       1.0  T
  30    -13.1466115 -0.537954E-01  0.283E-01    0.13       1.0  T
  31    -13.1384514  0.816007E-02  0.946E-01    0.15       1.0  T
  32    -13.1103033  0.281480E-01  0.191E+00    0.08       1.0  T
  33    -13.0969982  0.133051E-01  0.231E+00    0.34       1.0  T
  34    -12.8816867  0.215312E+00  0.504E+00    0.04       1.0  T
  35    -13.0923897 -0.210703E+00  0.248E+00    0.61       1.0  T
  36    -13.1171063 -0.247167E-01  0.175E+00    0.21       1.0  T
  37    -13.0923257  0.247807E-01  0.232E+00    0.07       1.0  T
  38    -13.0962087 -0.388307E-02  0.233E+00    0.36       1.0  T
  39    -13.1400661 -0.438574E-01  0.864E-01    0.10       1.0  T
  40    -13.1130051  0.270610E-01  0.187E+00    0.22       1.0  T
  41    -12.9934932  0.119512E+00  0.385E+00    0.06       1.0  T
  42    -13.0940514 -0.100558E+00  0.240E+00    0.45       1.0  T
  43    -13.1403281 -0.462767E-01  0.837E-01    0.15       1.0  T
  44    -13.1419783 -0.165024E-02  0.741E-01    0.10       1.0  T
  45    -13.1192273  0.227511E-01  0.169E+00    0.20       1.0  T
  46    -12.9771499  0.142077E+00  0.405E+00    0.05       1.0  T
  47    -13.0943901 -0.117240E+00  0.239E+00    0.43       1.0  T
  48    -13.1424594 -0.480694E-01  0.699E-01    0.14       1.0  T
  49    -13.1427313 -0.271891E-03  0.689E-01    0.10       1.0  T
  50    -13.1263404  0.163909E-01  0.146E+00    0.18       1.0  T
  51    -13.0400607  0.862797E-01  0.322E+00    0.06       1.0  T
  52    -13.0971804 -0.571197E-01  0.230E+00    0.34       1.0  T
  53    -13.1452674 -0.480870E-01  0.474E-01    0.11       1.0  T
  54    -13.1381116  0.715586E-02  0.965E-01    0.15       1.0  T
  55    -13.1168568  0.212547E-01  0.173E+00    0.08       1.0  T
  56    -13.1119831  0.487376E-02  0.190E+00    0.22       1.0  T
  57    -13.0630178  0.489653E-01  0.286E+00    0.07       1.0  T
  58    -13.1009430 -0.379252E-01  0.220E+00    0.29       1.0  T
  59    -13.1432819 -0.423389E-01  0.649E-01    0.10       1.0  T
  60    -13.1372553  0.602658E-02  0.101E+00    0.15       1.0  T
  61    -13.1197684  0.174869E-01  0.165E+00    0.09       1.0  T
  62    -13.1181833  0.158506E-02  0.172E+00    0.20       1.0  T
  63    -13.0915935  0.265898E-01  0.234E+00    0.08       1.0  T
  64    -13.1087631 -0.171696E-01  0.199E+00    0.24       1.0  T
  65    -13.1313616 -0.225985E-01  0.126E+00    0.09       1.0  T
  66    -13.1283734  0.298819E-02  0.139E+00    0.17       1.0  T
  67    -13.1138595  0.145139E-01  0.182E+00    0.08       1.0  T
  68    -13.1192283 -0.536873E-02  0.169E+00    0.20       1.0  T
  69    -13.1190723  0.156001E-03  0.167E+00    0.09       1.0  T
  70    -13.1233422 -0.426989E-02  0.156E+00    0.19       1.0  T
  71    -13.1210353  0.230689E-02  0.161E+00    0.09       1.0  T
  72    -13.1258940 -0.485876E-02  0.148E+00    0.18       1.0  T
  73    -13.1224158  0.347827E-02  0.157E+00    0.09       1.0  T
  74    -13.1282524 -0.583662E-02  0.139E+00    0.17       1.0  T
  75    -13.1240070  0.424534E-02  0.152E+00    0.09       1.0  T
[...]
   maximum displ.:     0.0316640 α      in ANC's #2, #4, #1, ...

........................................................................
.............................. CYCLE   23 ..............................
........................................................................
   1    -13.1487468 -0.131487E+02  0.128E-01    0.12       0.0  T
   2    -12.5875711  0.561176E+00  0.712E+00    0.02       1.0  T
   3    -13.1485937 -0.561023E+00  0.165E-01    0.12       1.0  T
   4    -13.1488345 -0.240783E-03  0.628E-02    0.12       1.0  T
   5    -13.1488262  0.828855E-05  0.619E-02    0.12       1.0  T
   6    -13.1488626 -0.364308E-04  0.101E-02    0.12       4.0  T
   7    -13.1488608  0.182806E-05  0.166E-02    0.12       2.5  T
   8    -13.1488624 -0.160021E-05  0.108E-02    0.12       3.8  T
   9    -13.1488634 -0.104172E-05  0.420E-03    0.12       9.7  T
  10    -13.1488634  0.879250E-07  0.492E-03    0.12       8.3  T
     SCC iter.                  ...        0 min,  0.001 sec
     gradient                   ...        0 min,  0.001 sec
 * total energy  :   -13.0880754 Eh     change        0.4954975E-03 Eh
   gradient norm :     0.2080531 Eh/α   predicted    -0.1067575E-03 (-121.55%)
   displ. norm   :     0.0397452 α      lambda       -0.1050282E-02
   maximum displ.:     0.0231413 α      in ANC's #2, #4, #1, ...

........................................................................
.............................. CYCLE   24 ..............................
........................................................................
   1    -13.1484298 -0.131484E+02  0.621E-02    0.12       0.0  T
   2    -13.1482701  0.159715E-03  0.136E-01    0.12       1.0  T
   3    -13.1420830  0.618710E-02  0.787E-01    0.15       1.0  T
   4    -13.1484206 -0.633761E-02  0.415E-02    0.12       1.0  T
   5    -13.1484332 -0.126519E-04  0.569E-03    0.12       7.2  T
   6    -13.1484316  0.162691E-05  0.131E-02    0.12       3.1  T
   7    -13.1484328 -0.120613E-05  0.695E-03    0.12       5.9  T
   8    -13.1484328  0.255506E-09  0.689E-03    0.12       5.9  T
   9    -13.1484333 -0.493112E-06  0.462E-04    0.12      88.4  T
  10    -13.1484333  0.129101E-08  0.534E-04    0.12      76.4  T
     SCC iter.                  ...        0 min,  0.001 sec
     gradient                   ...        0 min,  0.001 sec
 * total energy  :   -13.0885481 Eh     change       -0.4726780E-03 Eh
   gradient norm :     0.0407026 Eh/α   predicted    -0.5259712E-03 (  11.27%)
   displ. norm   :     0.0382527 α      lambda       -0.2954297E-03
   maximum displ.:     0.0256147 α      in ANC's #4, #3, #10, ...

........................................................................
.............................. CYCLE   25 ..............................
........................................................................
   1    -13.1472503 -0.131473E+02  0.211E-01    0.12       0.0  T
   2    -13.0950672  0.521830E-01  0.237E+00    0.38       1.0  T
   3    -13.1403932 -0.453260E-01  0.839E-01    0.15       1.0  T
   4    -13.1466846 -0.629141E-02  0.312E-01    0.11       1.0  T
   5    -13.1469680 -0.283340E-03  0.267E-01    0.13       1.0  T
   6    -13.1455429  0.142502E-02  0.455E-01    0.11       1.0  T
   7    -13.1475344 -0.199142E-02  0.128E-01    0.12       1.0  T
   8    -13.1477039 -0.169495E-03  0.957E-03    0.12       4.3  T
   9    -13.1476974  0.646386E-05  0.266E-02    0.12       1.5  T
  10    -13.1477043 -0.691894E-05  0.679E-03    0.12       6.0  T
  11    -13.1477047 -0.349278E-06  0.347E-03    0.12      11.8  T
  12    -13.1477047 -0.869015E-07  0.194E-03    0.12      21.0  T
     SCC iter.                  ...        0 min,  0.001 sec
     gradient                   ...        0 min,  0.001 sec
 * total energy  :   -13.0883423 Eh     change        0.2057407E-03 Eh
   gradient norm :     0.0904052 Eh/α   predicted    -0.1479312E-03 (-171.90%)
   displ. norm   :     0.0306171 α      lambda       -0.5124441E-03
   maximum displ.:     0.0164891 α      in ANC's #4, #2, #3, ...

........................................................................
.............................. CYCLE   26 ..............................
........................................................................
   1    -13.1480515 -0.131481E+02  0.148E-01    0.13       0.0  T
   2    -12.3237156  0.824336E+00  0.860E+00    0.01       1.0  T
   3    -13.1482551 -0.824539E+00  0.449E-02    0.12       1.0  T
   4    -13.1482256  0.294811E-04  0.658E-02    0.12       1.0  T
   5    -13.1482599 -0.342959E-04  0.305E-02    0.12       1.3  T
   6    -13.1482553  0.459472E-05  0.351E-02    0.12       1.2  T
   7    -13.1482681 -0.128466E-04  0.188E-03    0.12      21.8  T
   8    -13.1482679  0.270747E-06  0.544E-03    0.12       7.5  T
   9    -13.1482682 -0.287928E-06  0.800E-04    0.12      51.0  T
     SCC iter.                  ...        0 min,  0.001 sec
     gradient                   ...        0 min,  0.001 sec
 * total energy  :   -13.0885951 Eh     change       -0.2528123E-03 Eh
   gradient norm :     0.0011026 Eh/α   predicted    -0.2564621E-03 (   1.44%)
   displ. norm   :     0.0117495 α      lambda       -0.9396081E-06
   maximum displ.:     0.0070268 α      in ANC's #2, #4, #3, ...

........................................................................
.............................. CYCLE   27 ..............................
........................................................................
   1    -13.1482877 -0.131483E+02  0.120E-02    0.12       0.0  T
   2    -13.1476005  0.687143E-03  0.258E-01    0.13       1.0  T
   3    -13.1482879 -0.687410E-03  0.706E-03    0.12       5.8  T
   4    -13.1482802  0.773816E-05  0.275E-02    0.12       1.5  T
   5    -13.1482881 -0.789192E-05  0.755E-04    0.12      54.1  T
   6    -13.1482881  0.159959E-07  0.139E-03    0.12      29.3  T
   7    -13.1482881 -0.185690E-07  0.213E-04    0.12     192.0  T
   8    -13.1482881 -0.421199E-09  0.368E-05    0.12    1108.0  T
     SCC iter.                  ...        0 min,  0.001 sec
     gradient                   ...        0 min,  0.001 sec
 * total energy  :   -13.0885956 Eh     change       -0.4480118E-06 Eh
   gradient norm :     0.0015954 Eh/α   predicted    -0.4692347E-06 (   4.74%)
   displ. norm   :     0.0020970 α      lambda       -0.1738596E-06
   maximum displ.:     0.0016136 α      in ANC's #5, #1, #2, ...

........................................................................
.............................. CYCLE   28 ..............................
........................................................................
   1    -13.1482883 -0.131483E+02  0.339E-03    0.12       0.0  T
   2    -13.1482639  0.244015E-04  0.484E-02    0.12       1.0  T
   3    -13.1482878 -0.239600E-04  0.684E-03    0.12       6.0  T
   4    -13.1482883 -0.453767E-06  0.161E-03    0.12      25.3  T
   5    -13.1482883  0.415173E-08  0.125E-03    0.12      32.6  T
   6    -13.1482883 -0.985413E-08  0.731E-04    0.12      55.9  T
   7    -13.1482883 -0.518076E-08  0.101E-04    0.12     403.7  T
     SCC iter.                  ...        0 min,  0.000 sec
     gradient                   ...        0 min,  0.001 sec
 * total energy  :   -13.0885957 Eh     change       -0.1157181E-06 Eh
   gradient norm :     0.0002353 Eh/α   predicted    -0.8873871E-07 ( -23.31%)
   displ. norm   :     0.0013043 α      lambda       -0.1365933E-07
   maximum displ.:     0.0008157 α      in ANC's #1, #5, #4, ...

   *** GEOMETRY OPTIMIZATION CONVERGED AFTER 28 ITERATIONS ***

------------------------------------------------------------------------
 total energy gain   :       -15.9661888 Eh   -10018.9347 kcal/mol
 total RMSD          :         0.3492844 a0        0.1848 Å
 total power (kW/mol):     -1497.1151056 (step)********** (real)
------------------------------------------------------------------------

 ANCopt (total)                0 d,  0 h,  0 min,  0.325 sec
 optimizer setup                ...        0 min,  0.000 sec (  0.017%)
 model hessian                  ...        0 min,  0.000 sec (  0.043%)
 ANC generation                 ...        0 min,  0.000 sec (  0.039%)
 coordinate transformation      ...        0 min,  0.000 sec (  0.036%)
 single point calculation       ...        0 min,  0.323 sec ( 99.187%)
 optimization log               ...        0 min,  0.001 sec (  0.187%)
 hessian update                 ...        0 min,  0.000 sec (  0.028%)
 rational function              ...        0 min,  0.001 sec (  0.236%)

================
 final structure:
================
6
 xtb: 6.2.3 (830e466)
F        -4.00599593604474   -0.23611809936726    0.07344894654786
Cl        2.14970077030716    0.12242836265804   -0.04047418647665
C        -0.51276050483975   -0.02826831567803    0.01034602234868
H        -0.57536857838103   -0.61363361046451   -0.88086571990645
H        -0.54628468701748   -0.51372634761780    0.96116432761602
H        -0.65223106402418    1.02925801046957   -0.04491939012946
 
 Bond Distances (Angstroems)
 ---------------------------
C3-H4=1.0681         C3-H5=1.0681         C3-H6=1.0681         H4-C3=1.0681         H5-C3=1.0681         H6-C3=1.0681         
 C  H  Rav=1.0681 sigma=0.0000  Rmin=1.0681  Rmax=1.0681     3
 
 selected bond angles (degree)
 --------------------
H5-C3-H4=119.46                H6-C3-H4=119.46                H6-C3-H5=119.47                
 
 selected dihedral angles (degree)
 ---------------------------------

 
 CMA Distance (Angstroems)
 ---------------------------
R(CMA):  5.3682
           -------------------------------------------------
          |                Final Singlepoint                |
           -------------------------------------------------

          ...................................................
          :                      SETUP                      :
          :.................................................:
          :  # basis functions                  21          :
          :  # atomic orbitals                  20          :
          :  # shells                           10          :
          :  # electrons                        22          :
          :  max. iterations                   250          :
          :  Hamiltonian                  GFN2-xTB          :
          :  restarted?                      false          :
          :  GBSA solvation                  false          :
          :  PC potential                    false          :
          :  electronic temp.          300.0000000     K    :
          :  accuracy                    1.0000000          :
          :  -> integral cutoff          0.2500000E+02      :
          :  -> integral neglect         0.1000000E-07      :
          :  -> SCF convergence          0.1000000E-05 Eh   :
          :  -> wf. convergence          0.1000000E-03 e    :
          :  Broyden damping             0.4000000          :
          ...................................................

 iter      E             dE          RMSdq      gap      omega  full diag
   1    -13.1482883 -0.131483E+02  0.652E-05    0.12       0.0  T
   2    -13.1482882  0.808690E-07  0.281E-03    0.12      14.5  T
   3    -13.1482883 -0.742965E-07  0.809E-04    0.12      50.5  T
   4    -13.1482883 -0.591163E-08  0.270E-04    0.12     151.0  T

   *** convergence criteria satisfied after 4 iterations ***

         #    Occupation            Energy/Eh            Energy/eV
      -------------------------------------------------------------
         1        2.0000           -0.8729081             -23.7530
       ...           ...                  ...                  ...
         5        2.0000           -0.3612417              -9.8299
         6        2.0000           -0.2689990              -7.3198
         7        2.0000           -0.2507764              -6.8240
         8        2.0000           -0.2507762              -6.8240
         9        1.9081           -0.2028790              -5.5206
        10        1.8983           -0.2027779              -5.5179
        11        1.8982           -0.2027776              -5.5179 (HOMO)
        12        0.2954           -0.1983327              -5.3969 (LUMO)
        13                          0.2278967               6.2014
        14                          0.2278967               6.2014
        15                          0.2290408               6.2325
        16                          0.2291362               6.2351
       ...                                ...                  ...
        20                          0.4096401              11.1469
      -------------------------------------------------------------
                  HL-Gap            0.0044450 Eh            0.1210 eV
             Fermi-level           -0.1999977 Eh           -5.4422 eV

 SCC (total)                   0 d,  0 h,  0 min,  0.002 sec
 SCC setup                      ...        0 min,  0.000 sec (  2.856%)
 Dispersion                     ...        0 min,  0.000 sec (  0.438%)
 integral evaluation            ...        0 min,  0.001 sec ( 38.985%)
 zeroth order Hamiltonian       ...        0 min,  0.000 sec (  0.695%)
 iterations                     ...        0 min,  0.000 sec ( 18.117%)
 molecular gradient             ...        0 min,  0.001 sec ( 34.542%)
 printout                       ...        0 min,  0.000 sec (  3.113%)

         :::::::::::::::::::::::::::::::::::::::::::::::::::::
         ::                     SUMMARY                     ::
         :::::::::::::::::::::::::::::::::::::::::::::::::::::
         :: total energy             -13.088595719179 Eh    ::
         :: gradient norm              0.000237144546 Eh/a0 ::
         :: HOMO-LUMO gap              0.120953633896 eV    ::
         ::.................................................::
         :: SCC energy               -13.148288276036 Eh    ::
         :: -> isotropic ES            0.169094990923 Eh    ::
         :: -> anisotropic ES          0.000462886849 Eh    ::
         :: -> anisotropic XC          0.005650730587 Eh    ::
         :: -> dispersion             -0.001717845021 Eh    ::
         :: repulsion energy           0.059673497673 Eh    ::
         :: add. restraining           0.000022477734 Eh    ::
         :::::::::::::::::::::::::::::::::::::::::::::::::::::

           -------------------------------------------------
          |                Property Printout                |
           -------------------------------------------------

    * Orbital Energies and Occupations

         #    Occupation            Energy/Eh            Energy/eV
      -------------------------------------------------------------
         1        2.0000           -0.8729081             -23.7530
         2        2.0000           -0.4866342             -13.2420
         3        2.0000           -0.4582321             -12.4691
         4        2.0000           -0.3612717              -9.8307
         5        2.0000           -0.3612417              -9.8299
         6        2.0000           -0.2689990              -7.3198
         7        2.0000           -0.2507764              -6.8240
         8        2.0000           -0.2507762              -6.8240
         9        1.9081           -0.2028790              -5.5206
        10        1.8983           -0.2027779              -5.5179
        11        1.8982           -0.2027776              -5.5179 (HOMO)
        12        0.2954           -0.1983327              -5.3969 (LUMO)
        13                          0.2278967               6.2014
        14                          0.2278967               6.2014
        15                          0.2290408               6.2325
        16                          0.2291362               6.2351
        17                          0.2291363               6.2351
        18                          0.2483653               6.7584
        19                          0.4095903              11.1455
        20                          0.4096401              11.1469
      -------------------------------------------------------------
                  HL-Gap            0.0044450 Eh            0.1210 eV
             Fermi-level           -0.1999977 Eh           -5.4422 eV

     #   Z        covCN         q      C6AA      α(0)
     1   9 F      0.000    -0.612    17.013     4.804
     2  17 Cl     0.050    -0.574   110.814    16.021
     3   6 C      2.830    -0.060    29.487     8.898
     4   1 H      0.927     0.082     1.956     2.187
     5   1 H      0.927     0.082     1.956     2.187
     6   1 H      0.927     0.082     1.957     2.188

 Mol. C6AA /au·bohr⁶  :        582.528003
 Mol. C8AA /au·bohr⁸  :      16446.900290
 Mol. α(0) /au        :         36.285300


Wiberg/Mayer (AO) data.
largest (>0.10) Wiberg bond orders for each atom
          total WBO             WBO to atom ...
     1  F   0.104        C    3 0.103
     2  Cl  0.506        C    3 0.506
     3  C   3.585        H    6 0.992    H    5 0.992    H    4 0.992    Cl   2 0.506    F    1 0.103
     4  H   0.993        C    3 0.992
     5  H   0.993        C    3 0.992
     6  H   0.993        C    3 0.992

molecular dipole:
                 x           y           z       tot (Debye)
 q only:        2.084       0.128      -0.037
   full:        2.119       0.130      -0.038       5.397
molecular quadrupole (traceless):
                xx          xy          yy          xz          yz          zz
 q only:      -44.717      -3.932      22.255       1.239       0.073      22.463
  q+dip:      -44.905      -3.948      22.348       1.244       0.073      22.557
   full:      -44.036      -3.874      21.916       1.219       0.071      22.121

           -------------------------------------------------
          |                Geometry Summary                 |
           -------------------------------------------------

      molecular mass/u    :       69.4858989
   center of mass at/Å    :       -0.1128419      -0.0084021       0.0017328
  moments of inertia/u·Å² :        0.3431259E+01   0.4755282E+03   0.4755285E+03
rotational constants/cm⁻¹ :        0.4912958E+01   0.3545033E-01   0.3545031E-01

 * 3 selected distances

     #   Z        #   Z                                     value/Å
     3   6 C      4   1 H                                 1.0680968 (min)
     3   6 C      5   1 H                                 1.0681052
     3   6 C      6   1 H                                 1.0681143 (max)

 * 1 distinct bonds (by element types)

   Z      Z             #   av. dist./Å        max./Å        min./Å
   1 H    6 C           3     1.0681054     1.0681143     1.0680968


optimized geometry written to: xtbopt.xyz


           -------------------------------------------------
          | TOTAL ENERGY              -13.088595719179 Eh   |
          | GRADIENT NORM               0.000237144546 Eh/α |
          | HOMO-LUMO GAP               0.120953633896 eV   |
           -------------------------------------------------
########################################################################
[WARNING] Runtime exception occurred
-2- scf: Self consistent charge iterator did not converge
-1- scf: Self consistent charge iterator did not converge
########################################################################

------------------------------------------------------------------------
 * finished run on 2020/04/08 at 23:03:59.592     
------------------------------------------------------------------------
 total:
 * wall-time:     0 d,  0 h,  0 min,  0.337 sec
 *  cpu-time:     0 d,  0 h,  0 min,  0.337 sec
 * ratio c/w:     1.000 speedup
 SCF:
 * wall-time:     0 d,  0 h,  0 min,  0.003 sec
 *  cpu-time:     0 d,  0 h,  0 min,  0.003 sec
 * ratio c/w:     1.000 speedup
 ANC optimizer:
 * wall-time:     0 d,  0 h,  0 min,  0.327 sec
 *  cpu-time:     0 d,  0 h,  0 min,  0.327 sec
 * ratio c/w:     1.000 speedup

