      -----------------------------------------------------------      
     |                   =====================                   |     
     |                           x T B                           |     
     |                   =====================                   |     
     |                         S. Grimme                         |     
     |          Mulliken Center for Theoretical Chemistry        |     
     |                    University of Bonn                     |     
      -----------------------------------------------------------      

   * xtb version 6.2.3 (830e466) compiled by 'ehlert@majestix' on 2020-03-16

   xtb is free software: you can redistribute it and/or modify it under
   the terms of the GNU Lesser General Public License as published by
   the Free Software Foundation, either version 3 of the License, or
   (at your option) any later version.
   
   xtb is distributed in the hope that it will be useful,
   but WITHOUT ANY WARRANTY; without even the implied warranty of
   MERCHANTABILITY or FITNESS FOR A PARTICULAR PURPOSE.  See the
   GNU Lesser General Public License for more details.
   
   Cite this work as:
   * S. Grimme, C. Bannwarth, P. Shushkov, J. Chem. Theory Comput., 2017,
     13, 1989-2009. DOI: 10.1021/acs.jctc.7b00118
   * C. Bannwarth, S. Ehlert and S. Grimme., J. Chem. Theory Comput., 2019,
     15, 1652-1671. DOI: 10.1021/acs.jctc.8b01176
   * P. Pracht, E. Caldeweyher, S. Ehlert, S. Grimme, ChemRxiv, 2019, preprint.
     DOI: 10.26434/chemrxiv.8326202.v1
   
   for DFT-D4:
   * E. Caldeweyher, C. Bannwarth and S. Grimme, J. Chem. Phys., 2017,
     147, 034112. DOI: 10.1063/1.4993215
   * E. Caldeweyher, S. Ehlert, A. Hansen, H. Neugebauer, S. Spicher,
     C. Bannwarth and S. Grimme, J. Chem. Phys., 2019, 150, 154122.
     DOI: 10.1063/1.5090222
   
   for sTDA-xTB:
   * S. Grimme and C. Bannwarth, J. Chem. Phys., 2016, 145, 054103.
     DOI: 10.1063/1.4959605
   
   in the mass-spec context:
   * V. Asgeirsson, C. Bauer and S. Grimme, Chem. Sci., 2017, 8, 4879.
     DOI: 10.1039/c7sc00601b
   
   for metadynamics refer to:
   * S. Grimme, J. Chem. Theory Comput., 2019, 155, 2847-2862
     DOI: 10.1021/acs.jctc.9b00143
   
   with help from (in alphabetical order)
   C. Bannwarth, F. Bohle, G. Brandenburg, E. Caldeweyher, M. Checinski,
   S. Dohm, S. Ehlert, S. Ehrlich, F. März, H. Neugebauer, J. Pisarek,
   P. Pracht, P. Shushkov, and S. Spicher.
   
 * started run on 2020/04/08 at 23:04:05.694     

           -------------------------------------------------
          |                Calculation Setup                |
           -------------------------------------------------

          program call               : /home/tom/.local/bin/xtb SN2_PES_scan_2-5_xtb.xyz --chrg -1 --opt --input xcontrol_SN2_PES_scan_2-5
          coordinate file            : SN2_PES_scan_2-5_xtb.xyz
          omp threads                :                     1
          number of atoms            :                     6
          number of electrons        :                    22
          charge                     :                    -1
          spin                       :                   0.0
          first test random number   :      0.96059360804523

constraining bond 1 3 to    3.0000000 Å, actual value:    3.4999793 Å
constraining bond 2 3 to    4.0000000 Å, actual value:    3.5558473 Å

molecular fragmentation (1/2 indicates fragments):
122222
# atoms in fragment 1/2:     1     5
 fragment masses (1/2) :       19.00       50.49
CMA distance (Bohr)    :  11.333
constraining FC (au)   : 10.0000
########################################################################
[WARNING] Please study the warnings concerning your input carefully
-2- prog_main: XTBPATH is not set, using XTBHOME instead
-1- prog_main: XTBHOME is not set, using HOME instead
########################################################################
           ------------------------------------------------- 
          |                 G F N 2 - x T B                 |
          | Geometry, Frequencies, Noncovalent interactions |
          |            JCTC 2019 parametrisation            |
           ------------------------------------------------- 
             k(s)              :                1.8500
             k(p)              :                2.2300
             k(d)              :                2.2300
             k(f)              :                2.0000
             kEN (H0ij)        :               -2.0000
             D4 a1             :                0.5200
             D4 a2             :                5.0000
             D4 s6             :                1.0000
             D4 s8             :                2.7000
             D4 s9             :                5.0000
             alphaj            :                2.0000

  Z AO/shell   Hii/eV     exponent
  1     Wed Apr 25 08:07:45 CEST 2018   EN: 2.200 GM2: 0.406  GM3: 0.0800  RAES: 1.40
     1s    -10.707211    1.230000
  6     Wed Apr 25 08:07:45 CEST 2018   EN: 2.550 GM2: 0.538  GM3: 0.1500  RAES: 3.00
     2s    -13.970922    2.096432
     2p    -10.063292    1.800000
  9     Mon Apr 23 13:58:50 CEST 2018   EN: 3.980 GM2: 0.532  GM3: 0.1426  RAES: 2.40
     2s    -23.458179    2.416361
     2p    -15.746583    2.308399
 17     Mon Apr 23 14:09:22 CEST 2018   EN: 3.160 GM2: 0.249  GM3: 0.1495  RAES: 2.50
     3s    -29.278781    2.485265
     3p    -12.673758    2.199650
     3d     -0.240338    2.476089

           ------------------------------------------------- 
          |        Self-Consistent Charge Iterations        |
           ------------------------------------------------- 

          ...................................................
          :                      SETUP                      :
          :.................................................:
          :  # basis functions                  21          :
          :  # atomic orbitals                  20          :
          :  # shells                           10          :
          :  # electrons                        22          :
          :  max. iterations                   250          :
          :  Hamiltonian                  GFN2-xTB          :
          :  restarted?                      false          :
          :  GBSA solvation                  false          :
          :  PC potential                    false          :
          :  electronic temp.          300.0000000     K    :
          :  accuracy                    1.0000000          :
          :  -> integral cutoff          0.2500000E+02      :
          :  -> integral neglect         0.1000000E-07      :
          :  -> SCF convergence          0.1000000E-05 Eh   :
          :  -> wf. convergence          0.1000000E-03 e    :
          :  Broyden damping             0.4000000          :
          ...................................................

 iter      E             dE          RMSdq      gap      omega  full diag
   1    -12.8143306 -0.128143E+02  0.105E+01    1.23       0.0  T
   2    -12.1218250  0.692506E+00  0.106E+01    0.00       1.0  T
   3    -12.8122925 -0.690467E+00  0.717E+00    0.07       1.0  T
   4    -12.8616146 -0.493221E-01  0.802E+00    1.66       1.0  T
   5    -12.4571176  0.404497E+00  0.104E+01    0.00       1.0  T
   6    -12.4610526 -0.393502E-02  0.103E+01    0.00       1.0  T
   7    -12.2456225  0.215430E+00  0.101E+01    0.00       1.0  T
   8    -12.2543889 -0.876638E-02  0.959E+00    0.00       1.0  T
   9    -12.2486151  0.577378E-02  0.977E+00    0.00       1.0  T
  10    -12.2458098  0.280534E-02  0.102E+01    0.00       1.0  T
  11    -12.9003242 -0.654514E+00  0.619E+00    0.60       1.0  T
  12    -12.2402628  0.660061E+00  0.101E+01    0.00       1.0  T
  13    -12.2463654 -0.610254E-02  0.966E+00    0.00       1.0  T
  14    -12.4766582 -0.230293E+00  0.106E+01    0.00       1.0  T
  15    -12.5080221 -0.313639E-01  0.105E+01    0.01       1.0  T
  16    -12.9359561 -0.427934E+00  0.681E+00    0.08       1.0  T
  17    -12.2349690  0.700987E+00  0.979E+00    0.00       1.0  T
  18    -12.4825230 -0.247554E+00  0.104E+01    0.00       1.0  T
  19    -12.2258866  0.256636E+00  0.103E+01    0.00       1.0  T
  20    -12.2266381 -0.751547E-03  0.996E+00    0.00       1.0  T
  21    -12.7295918 -0.502954E+00  0.886E+00    0.00       1.0  T
  22    -12.2173493  0.512242E+00  0.108E+01    0.00       1.0  T
  23    -12.2161861  0.116318E-02  0.107E+01    0.00       1.0  T
  24    -12.2160301  0.156012E-03  0.107E+01    0.00       1.0  T
  25    -12.2153782  0.651968E-03  0.105E+01    0.00       1.0  T
  26    -12.4321742 -0.216796E+00  0.116E+01    0.00       1.0  T
  27    -12.4211297  0.110445E-01  0.119E+01    0.00       1.0  T
  28    -12.4428438 -0.217141E-01  0.119E+01    0.00       1.0  T
  29    -12.5185258 -0.756821E-01  0.109E+01    0.00       1.0  T
  30    -12.8253866 -0.306861E+00  0.886E+00    2.03       1.0  T
  31    -12.9562040 -0.130817E+00  0.621E+00    0.30       1.0  T
  32    -12.8943853  0.618187E-01  0.674E+00    0.94       1.0  T
  33    -12.9628709 -0.684856E-01  0.535E+00    0.32       1.0  T
  34    -12.9957608 -0.328899E-01  0.433E+00    0.27       1.0  T
  35    -13.0014273 -0.566652E-02  0.430E+00    0.20       1.0  T
  36    -12.2408753  0.760552E+00  0.969E+00    0.00       1.0  T
  37    -12.9049922 -0.664117E+00  0.744E+00    0.39       1.0  T
  38    -12.2180158  0.686976E+00  0.103E+01    0.00       1.0  T
  39    -12.9153618 -0.697346E+00  0.671E+00    0.07       1.0  T
  40    -13.0301664 -0.114805E+00  0.404E+00    0.19       1.0  T
  41    -12.9199373  0.110229E+00  0.582E+00    0.65       1.0  T
  42    -12.2487368  0.671201E+00  0.961E+00    0.00       1.0  T
  43    -12.9257827 -0.677046E+00  0.690E+00    0.34       1.0  T
  44    -12.5086445  0.417138E+00  0.974E+00    0.01       1.0  T
  45    -12.2352011  0.273443E+00  0.102E+01    0.00       1.0  T
  46    -12.8781200 -0.642919E+00  0.743E+00    0.70       1.0  T
  47    -13.0670607 -0.188941E+00  0.277E+00    0.17       1.0  T
  48    -12.9541057  0.112955E+00  0.533E+00    0.36       1.0  T
  49    -12.9467347  0.737101E-02  0.520E+00    0.46       1.0  T
  50    -12.9521656 -0.543090E-02  0.509E+00    0.43       1.0  T
  51    -12.9548022 -0.263666E-02  0.504E+00    0.42       1.0  T
  52    -12.2357673  0.719035E+00  0.980E+00    0.00       1.0  T
  53    -13.0033044 -0.767537E+00  0.527E+00    0.22       1.0  T
  54    -12.6971276  0.306177E+00  0.829E+00    0.04       1.0  T
  55    -12.2387764  0.458351E+00  0.992E+00    0.00       1.0  T
  56    -12.8815597 -0.642783E+00  0.734E+00    0.67       1.0  T
  57    -12.9877309 -0.106171E+00  0.451E+00    0.28       1.0  T
  58    -12.9445482  0.431827E-01  0.526E+00    0.45       1.0  T
  59    -12.2357144  0.708834E+00  0.982E+00    0.00       1.0  T
  60    -12.9995667 -0.763852E+00  0.523E+00    0.23       1.0  T
  61    -12.8984389  0.101128E+00  0.620E+00    0.07       1.0  T
  62    -12.2397402  0.658699E+00  0.977E+00    0.00       1.0  T
  63    -12.8997253 -0.659985E+00  0.694E+00    0.52       1.0  T
  64    -13.0049569 -0.105232E+00  0.419E+00    0.24       1.0  T
  65    -12.9520228  0.529341E-01  0.512E+00    0.41       1.0  T
  66    -12.2384403  0.713583E+00  0.974E+00    0.00       1.0  T
  67    -13.0321011 -0.793661E+00  0.463E+00    0.18       1.0  T
  68    -13.0538673 -0.217661E-01  0.341E+00    0.14       1.0  T
  69    -12.9564734  0.973938E-01  0.399E+00    0.04       1.0  T
  70    -12.9327346  0.237389E-01  0.600E+00    0.41       1.0  T
  71    -12.9956179 -0.628833E-01  0.422E+00    0.28       1.0  T
  72    -12.3043326  0.691285E+00  0.925E+00    0.01       1.0  T
  73    -13.0462491 -0.741916E+00  0.438E+00    0.16       1.0  T
  74    -13.0530518 -0.680271E-02  0.328E+00    0.16       1.0  T
  75    -13.0732256 -0.201738E-01  0.290E+00    0.13       1.0  T
  76    -12.9710792  0.102146E+00  0.478E+00    0.33       1.0  T
  77    -12.2416663  0.729413E+00  0.967E+00    0.00       1.0  T
  78    -12.9589455 -0.717279E+00  0.570E+00    0.08       1.0  T
  79    -12.9610540 -0.210851E-02  0.495E+00    0.37       1.0  T
  80    -12.3649534  0.596101E+00  0.889E+00    0.01       1.0  T
  81    -13.0449528 -0.679999E+00  0.426E+00    0.16       1.0  T
  82    -13.0017313  0.432215E-01  0.428E+00    0.25       1.0  T
  83    -12.9893048  0.124266E-01  0.436E+00    0.29       1.0  T
  84    -12.7743538  0.214951E+00  0.600E+00    0.03       1.0  T
  85    -13.0416729 -0.267319E+00  0.399E+00    0.17       1.0  T
  86    -13.0173367  0.243362E-01  0.385E+00    0.23       1.0  T
  87    -13.0670425 -0.497059E-01  0.278E+00    0.17       1.0  T
  88    -13.0216546  0.453879E-01  0.367E+00    0.23       1.0  T
  89    -12.2596133  0.762041E+00  0.952E+00    0.01       1.0  T
  90    -13.0083063 -0.748693E+00  0.473E+00    0.10       1.0  T
  91    -12.3916438  0.616662E+00  0.872E+00    0.01       1.0  T
  92    -13.0304141 -0.638770E+00  0.428E+00    0.18       1.0  T
  93    -13.0315262 -0.111219E-02  0.359E+00    0.20       1.0  T
  94    -13.0037043  0.278219E-01  0.408E+00    0.25       1.0  T
  95    -13.0435265 -0.398221E-01  0.317E+00    0.21       1.0  T
  96    -13.1139690 -0.704426E-01  0.101E+00    0.10       1.0  T
  97    -13.0111863  0.102783E+00  0.404E+00    0.23       1.0  T
  98    -13.0581995 -0.470133E-01  0.281E+00    0.19       1.0  T
  99    -12.2923793  0.765820E+00  0.932E+00    0.01       1.0  T
 100    -13.0326016 -0.740222E+00  0.413E+00    0.11       1.0  T
 101    -12.4750034  0.557598E+00  0.820E+00    0.01       1.0  T
 102    -13.0458356 -0.570832E+00  0.380E+00    0.16       1.0  T
 103    -13.0239114  0.219242E-01  0.369E+00    0.21       1.0  T
 104    -13.0220711  0.184030E-02  0.364E+00    0.22       1.0  T
 105    -13.0617979 -0.397267E-01  0.280E+00    0.19       1.0  T
 106    -13.0244383  0.373595E-01  0.358E+00    0.22       1.0  T
 107    -13.1017426 -0.773043E-01  0.170E+00    0.13       1.0  T
 108    -13.0255426  0.762000E-01  0.364E+00    0.21       1.0  T
 109    -13.0925677 -0.670251E-01  0.196E+00    0.15       1.0  T
 110    -13.0413241  0.512436E-01  0.317E+00    0.20       1.0  T
 111    -12.3417163  0.699608E+00  0.903E+00    0.01       1.0  T
 112    -13.0351235 -0.693407E+00  0.389E+00    0.11       1.0  T
 113    -12.2363328  0.798791E+00  0.976E+00    0.00       1.0  T
 114    -13.0199619 -0.783629E+00  0.393E+00    0.10       1.0  T
 115    -12.2308375  0.789124E+00  0.999E+00    0.00       1.0  T
 116    -13.0556321 -0.824795E+00  0.278E+00    0.15       1.0  T
 117    -12.2545455  0.801087E+00  0.959E+00    0.00       1.0  T
 118    -12.7339606 -0.479415E+00  0.773E+00    0.03       1.0  T
 119    -12.2298322  0.504128E+00  0.103E+01    0.00       1.0  T
 120    -12.2377513 -0.791904E-02  0.975E+00    0.00       1.0  T
 121    -12.6690434 -0.431292E+00  0.847E+00    0.02       1.0  T
 122    -12.2328843  0.436159E+00  0.105E+01    0.00       1.0  T
 123    -12.9576148 -0.724730E+00  0.518E+00    0.33       1.0  T
 124    -12.5390356  0.418579E+00  0.776E+00    0.01       1.0  T
 125    -13.0035162 -0.464481E+00  0.467E+00    0.22       1.0  T
 126    -12.9472599  0.562563E-01  0.543E+00    0.39       1.0  T
 127    -12.9688994 -0.216395E-01  0.492E+00    0.32       1.0  T
 128    -12.9853402 -0.164408E-01  0.460E+00    0.27       1.0  T
 129    -12.9966610 -0.113208E-01  0.434E+00    0.25       1.0  T
 130    -13.0070210 -0.103600E-01  0.408E+00    0.24       1.0  T
 131    -13.0161260 -0.910502E-02  0.383E+00    0.22       1.0  T
 132    -13.0230685 -0.694247E-02  0.362E+00    0.22       1.0  T
 133    -13.0324064 -0.933794E-02  0.341E+00    0.22       1.0  T
 134    -13.0539129 -0.215065E-01  0.307E+00    0.19       1.0  T
 135    -13.0183275  0.355854E-01  0.373E+00    0.23       1.0  T
 136    -13.0467813 -0.284538E-01  0.307E+00    0.20       1.0  T
 137    -13.1076462 -0.608649E-01  0.145E+00    0.12       1.0  T
 138    -13.0260405  0.816057E-01  0.363E+00    0.21       1.0  T
 139    -13.0528601 -0.268196E-01  0.287E+00    0.17       1.0  T
 140    -12.3357971  0.717063E+00  0.907E+00    0.01       1.0  T
 141    -12.9259426 -0.590145E+00  0.570E+00    0.07       1.0  T
 142    -12.2363865  0.689556E+00  0.984E+00    0.00       1.0  T
 143    -13.0402789 -0.803892E+00  0.366E+00    0.17       1.0  T
 144    -13.0048684  0.354105E-01  0.408E+00    0.24       1.0  T
 145    -13.0270123 -0.221439E-01  0.350E+00    0.21       1.0  T
 146    -13.0545306 -0.275183E-01  0.301E+00    0.19       1.0  T
 147    -13.0192553  0.352753E-01  0.370E+00    0.23       1.0  T
 148    -13.0522365 -0.329812E-01  0.305E+00    0.20       1.0  T
 149    -13.0309638  0.212727E-01  0.342E+00    0.21       1.0  T
 150    -13.0895186 -0.585548E-01  0.211E+00    0.15       1.0  T
 151    -13.0359344  0.535842E-01  0.332E+00    0.19       1.0  T
 152    -13.0816460 -0.457116E-01  0.225E+00    0.17       1.0  T
 153    -13.0430584  0.385876E-01  0.312E+00    0.19       1.0  T
 154    -13.0930461 -0.499877E-01  0.160E+00    0.08       1.0  T
 155    -13.0407442  0.523019E-01  0.337E+00    0.18       1.0  T
 156    -13.0572897 -0.165455E-01  0.271E+00    0.15       1.0  T
 157    -12.2583067  0.798983E+00  0.953E+00    0.01       1.0  T
 158    -12.8384312 -0.580124E+00  0.666E+00    0.05       1.0  T
 159    -12.2317401  0.606691E+00  0.102E+01    0.00       1.0  T
 160    -12.9861537 -0.754414E+00  0.452E+00    0.28       1.0  T
 161    -13.0692418 -0.830882E-01  0.235E+00    0.14       1.0  T
 162    -12.2393822  0.829860E+00  0.971E+00    0.00       1.0  T
 163    -12.9275225 -0.688140E+00  0.547E+00    0.07       1.0  T
 164    -12.2349675  0.692555E+00  0.997E+00    0.00       1.0  T
 165    -12.9998474 -0.764880E+00  0.436E+00    0.24       1.0  T
 166    -13.0090318 -0.918443E-02  0.393E+00    0.24       1.0  T
 167    -13.0387062 -0.296743E-01  0.332E+00    0.22       1.0  T
 168    -13.0212409  0.174653E-01  0.371E+00    0.24       1.0  T
 169    -13.0240962 -0.285528E-02  0.366E+00    0.24       1.0  T
 170    -13.0333636 -0.926741E-02  0.336E+00    0.21       1.0  T
 171    -13.0670565 -0.336929E-01  0.266E+00    0.18       1.0  T
 172    -13.0460895  0.209669E-01  0.303E+00    0.18       1.0  T
 173    -13.0693069 -0.232174E-01  0.222E+00    0.07       1.0  T
 174    -13.0469396  0.223672E-01  0.321E+00    0.17       1.0  T
 175    -13.0503444 -0.340481E-02  0.289E+00    0.17       1.0  T
 176    -12.9726201  0.777243E-01  0.386E+00    0.05       1.0  T
 177    -13.0469849 -0.743648E-01  0.328E+00    0.16       1.0  T
 178    -13.0419427  0.504215E-02  0.313E+00    0.18       1.0  T
 179    -13.0766718 -0.347291E-01  0.244E+00    0.17       1.0  T
 180    -13.0456407  0.310311E-01  0.303E+00    0.18       1.0  T
 181    -13.1150479 -0.694071E-01  0.759E-01    0.10       1.0  T
 182    -13.0495755  0.654724E-01  0.302E+00    0.16       1.0  T
 183    -13.0904297 -0.408543E-01  0.201E+00    0.15       1.0  T
 184    -13.0482714  0.421584E-01  0.295E+00    0.17       1.0  T
 185    -13.0158856  0.323857E-01  0.324E+00    0.06       1.0  T
 186    -13.0511257 -0.352401E-01  0.309E+00    0.15       1.0  T
 187    -13.0546096 -0.348390E-02  0.284E+00    0.19       1.0  T
 188    -13.1105679 -0.559583E-01  0.125E+00    0.12       1.0  T
 189    -13.0504453  0.601226E-01  0.293E+00    0.16       1.0  T
 190    -13.0167731  0.336722E-01  0.324E+00    0.06       1.0  T
 191    -13.0536825 -0.369094E-01  0.298E+00    0.15       1.0  T
 192    -13.1127176 -0.590351E-01  0.111E+00    0.12       1.0  T
 193    -13.0489433  0.637743E-01  0.297E+00    0.16       1.0  T
 194    -13.0951313 -0.461880E-01  0.154E+00    0.08       1.0  T
 195    -13.0509221  0.442091E-01  0.298E+00    0.16       1.0  T
 196    -13.1164504 -0.655282E-01  0.657E-01    0.10       1.0  T
 197    -13.0520282  0.644222E-01  0.289E+00    0.16       1.0  T
 198    -12.8825856  0.169443E+00  0.495E+00    0.04       1.0  T
 199    -13.0535227 -0.170937E+00  0.302E+00    0.15       1.0  T
 200    -13.1082127 -0.546900E-01  0.136E+00    0.13       1.0  T
 201    -13.0495304  0.586823E-01  0.292E+00    0.16       1.0  T
 202    -12.9280636  0.121467E+00  0.444E+00    0.05       1.0  T
 203    -13.0528940 -0.124830E+00  0.301E+00    0.15       1.0  T
 204    -13.1150283 -0.621343E-01  0.912E-01    0.11       1.0  T
 205    -13.0514320  0.635963E-01  0.287E+00    0.16       1.0  T
 206    -12.7956380  0.255794E+00  0.581E+00    0.03       1.0  T
 207    -13.0540979 -0.258460E+00  0.300E+00    0.14       1.0  T
 208    -13.1125531 -0.584552E-01  0.888E-01    0.09       1.0  T
 209    -13.0488486  0.637045E-01  0.298E+00    0.16       1.0  T
 210    -13.1165265 -0.676778E-01  0.729E-01    0.10       1.0  T
 211    -13.0516012  0.649253E-01  0.287E+00    0.16       1.0  T
 212    -12.8537945  0.197807E+00  0.526E+00    0.04       1.0  T
 213    -13.0546768 -0.200882E+00  0.295E+00    0.14       1.0  T
 214    -12.9818225  0.728543E-01  0.376E+00    0.05       1.0  T
 215    -13.0517109 -0.698884E-01  0.299E+00    0.15       1.0  T
 216    -13.1047337 -0.530228E-01  0.152E+00    0.13       1.0  T
 217    -13.0509908  0.537429E-01  0.286E+00    0.16       1.0  T
 218    -12.8376058  0.213385E+00  0.542E+00    0.04       1.0  T
 219    -13.0537718 -0.216166E+00  0.297E+00    0.15       1.0  T
 220    -13.0975793 -0.438075E-01  0.147E+00    0.08       1.0  T
 221    -13.0520409  0.455384E-01  0.289E+00    0.15       1.0  T
 222    -13.0902068 -0.381659E-01  0.170E+00    0.08       1.0  T
 223    -13.0486057  0.416011E-01  0.301E+00    0.16       1.0  T
 224    -13.1051898 -0.565840E-01  0.141E+00    0.14       1.0  T
 225    -13.0550226  0.501671E-01  0.272E+00    0.16       1.0  T
 226    -12.3937718  0.661251E+00  0.873E+00    0.01       1.0  T
 227    -13.0524865 -0.658715E+00  0.302E+00    0.12       1.0  T
 228    -12.2412707  0.811216E+00  0.969E+00    0.00       1.0  T
 229    -13.0471573 -0.805887E+00  0.302E+00    0.11       1.0  T
 230    -12.2355595  0.811598E+00  0.984E+00    0.00       1.0  T
 231    -13.0355104 -0.799951E+00  0.333E+00    0.18       1.0  T
 232    -12.7587211  0.276789E+00  0.615E+00    0.03       1.0  T
 233    -13.0505051 -0.291784E+00  0.301E+00    0.15       1.0  T
 234    -13.0548124 -0.430726E-02  0.317E+00    0.17       1.0  T
 235    -13.0421281  0.126843E-01  0.312E+00    0.19       1.0  T
 236    -13.0571086 -0.149804E-01  0.280E+00    0.19       1.0  T
 237    -13.0730731 -0.159646E-01  0.241E+00    0.18       1.0  T
 238    -13.0581143  0.149589E-01  0.269E+00    0.17       1.0  T
 239    -13.1124782 -0.543639E-01  0.858E-01    0.09       1.0  T
 240    -13.0539823  0.584959E-01  0.284E+00    0.15       1.0  T
 241    -13.1159327 -0.619504E-01  0.635E-01    0.10       1.0  T
 242    -13.0548855  0.610472E-01  0.278E+00    0.15       1.0  T
 243    -12.9979743  0.569112E-01  0.352E+00    0.05       1.0  T
 244    -13.0477838 -0.498095E-01  0.308E+00    0.16       1.0  T
 245    -13.0629153 -0.151315E-01  0.251E+00    0.16       1.0  T
 246    -12.3677485  0.695167E+00  0.889E+00    0.01       1.0  T
 247    -13.0555778 -0.687829E+00  0.291E+00    0.13       1.0  T
 248    -12.2534332  0.802145E+00  0.958E+00    0.00       1.0  T
 249    -13.0450733 -0.791640E+00  0.308E+00    0.11       1.0  T
 250    -12.2357627  0.809311E+00  0.983E+00    0.00       1.0  T

   *** convergence criteria cannot be satisfied within 250 iterations ***

         #    Occupation            Energy/Eh            Energy/eV
      -------------------------------------------------------------
         1        2.0000           -0.8744336             -23.7945
       ...           ...                  ...                  ...
         5        2.0000           -0.3780536             -10.2874
         6        2.0000           -0.2559990              -6.9661
         7        2.0000           -0.2532291              -6.8907
         8        2.0000           -0.2532288              -6.8907
         9        2.0000           -0.2398719              -6.5272
        10        1.4026           -0.2128800              -5.7928
        11        1.2988           -0.2126548              -5.7866 (HOMO)
        12        1.2987           -0.2126546              -5.7866 (LUMO)
        13                          0.2260381               6.1508
        14                          0.2278669               6.2006
        15                          0.2278672               6.2006
        16                          0.2288752               6.2280
       ...                                ...                  ...
        20                          0.3962877              10.7835
      -------------------------------------------------------------
                  HL-Gap            0.0000002 Eh            0.0000 eV
             Fermi-level           -0.2120692 Eh           -5.7707 eV

 SCC (total)                   0 d,  0 h,  0 min,  0.120 sec
 SCC setup                      ...        0 min,  0.000 sec (  0.055%)
 Dispersion                     ...        0 min,  0.000 sec (  0.012%)
 integral evaluation            ...        0 min,  0.001 sec (  0.558%)
 zeroth order Hamiltonian       ...        0 min,  0.000 sec (  0.013%)
 iterations                     ...        0 min,  0.119 sec ( 98.845%)
 molecular gradient             ...        0 min,  0.001 sec (  0.450%)
 printout                       ...        0 min,  0.000 sec (  0.048%)

         :::::::::::::::::::::::::::::::::::::::::::::::::::::
         ::                     SUMMARY                     ::
         :::::::::::::::::::::::::::::::::::::::::::::::::::::
         :: total energy               3.796132384661 Eh    ::
         :: gradient norm             43.728338335250 Eh/a0 ::
         :: HOMO-LUMO gap              0.000004977595 eV    ::
         ::.................................................::
         :: SCC energy               -12.235762668873 Eh    ::
         :: -> isotropic ES            0.742689856693 Eh    ::
         :: -> anisotropic ES          0.012306358018 Eh    ::
         :: -> anisotropic XC          0.004235240375 Eh    ::
         :: -> dispersion             -0.001467827595 Eh    ::
         :: repulsion energy           0.059777546347 Eh    ::
         :: add. restraining          15.971616153045 Eh    ::
         :::::::::::::::::::::::::::::::::::::::::::::::::::::

      ----------------------------------------------------------- 
     |                   =====================                   |
     |                        A N C O P T                        |
     |                   =====================                   |
     |               Approximate Normal Coordinate               |
     |                Rational Function Optimizer                |
      ----------------------------------------------------------- 

          ...................................................
          :                      SETUP                      :
          :.................................................:
          :   optimization level            normal          :
          :   max. optcycles                   200          :
          :   ANC micro-cycles                  20          :
          :   degrees of freedom                12          :
          :.................................................:
          :   RF solver                   davidson          :
          :   write xtbopt.log                true          :
          :   linear?                        false          :
          :   energy convergence         0.5000000E-05 Eh   :
          :   grad. convergence          0.1000000E-02 Eh/α :
          :   maximium RF displ.         1.0000000          :
          :   Hlow (freq-cutoff)         0.1000000E-01      :
          :   Hmax (freq-cutoff)         5.0000000          :
          :   S6 in model hess.         20.0000000          :
          ...................................................

generating ANC from model Hessian ...
Using Lindh-Hessian (1995)
 Shifting diagonal of input Hessian by   0.807901303860699     
 Lowest  eigenvalues of input Hessian
    0.010000    0.011500   -0.000000   -0.000000   -0.000000    0.000000
    0.000000    0.000000    0.808240    0.960618    0.960784    1.245742
    1.395417    1.395880    2.899224    2.901882   20.809197   60.808710
 Highest eigenvalues
    1.395417    1.395880    2.899224    2.901882   20.809197   60.808710
 

........................................................................
.............................. CYCLE    1 ..............................
........................................................................
   1    -13.0222502 -0.130223E+02  0.365E+00    0.21       0.0  T
   2    -12.1594005  0.862850E+00  0.112E+01    0.00       1.0  T
   3    -12.4433443 -0.283944E+00  0.110E+01    0.00       1.0  T
   4    -12.3862183  0.571259E-01  0.928E+00    0.00       1.0  T
   5    -12.8028699 -0.416652E+00  0.681E+00    0.04       1.0  T
   6    -13.0451952 -0.242325E+00  0.290E+00    0.10       1.0  T
   7    -12.2774350  0.767760E+00  0.953E+00    0.00       1.0  T
   8    -12.2889725 -0.115375E-01  0.949E+00    0.00       1.0  T
   9    -12.4819367 -0.192964E+00  0.102E+01    0.00       1.0  T
  10    -12.4878403 -0.590358E-02  0.103E+01    0.00       1.0  T
  11    -13.0413712 -0.553531E+00  0.362E+00    0.18       1.0  T
  12    -12.7573662  0.284005E+00  0.737E+00    0.04       1.0  T
  13    -12.9401461 -0.182780E+00  0.572E+00    0.39       1.0  T
  14    -12.5501141  0.390032E+00  0.939E+00    0.01       1.0  T
  15    -12.9970565 -0.446942E+00  0.437E+00    0.25       1.0  T
  16    -13.0276673 -0.306108E-01  0.347E+00    0.21       1.0  T
  17    -12.9805351  0.471321E-01  0.462E+00    0.30       1.0  T
  18    -13.0334796 -0.529445E-01  0.331E+00    0.20       1.0  T
  19    -13.0229897  0.104900E-01  0.360E+00    0.21       1.0  T
  20    -13.0459188 -0.229291E-01  0.298E+00    0.18       1.0  T
  21    -13.0887638 -0.428450E-01  0.198E+00    0.16       1.0  T
  22    -13.0673612  0.214027E-01  0.233E+00    0.07       1.0  T
  23    -13.0562338  0.111274E-01  0.273E+00    0.17       1.0  T
  24    -13.0806489 -0.244151E-01  0.202E+00    0.07       1.0  T
  25    -13.0670609  0.135881E-01  0.254E+00    0.18       1.0  T
  26    -13.0632440  0.381690E-02  0.245E+00    0.07       1.0  T
  27    -13.0648942 -0.165021E-02  0.260E+00    0.18       1.0  T
  28    -13.0901446 -0.252504E-01  0.178E+00    0.08       1.0  T
  29    -13.0814861  0.865852E-02  0.220E+00    0.17       1.0  T
  30    -13.0977636 -0.162776E-01  0.151E+00    0.08       1.0  T
  31    -13.0898486  0.791508E-02  0.196E+00    0.16       1.0  T
  32    -13.1055450 -0.156964E-01  0.121E+00    0.09       1.0  T
  33    -13.0985023  0.704270E-02  0.166E+00    0.15       1.0  T
  34    -13.1117277 -0.132254E-01  0.896E-01    0.09       1.0  T
  35    -13.1059255  0.580223E-02  0.135E+00    0.14       1.0  T
  36    -13.1158158 -0.989031E-02  0.619E-01    0.10       1.0  T
  37    -13.1114949  0.432087E-02  0.106E+00    0.13       1.0  T
  38    -13.1180963 -0.660136E-02  0.398E-01    0.10       1.0  T
  39    -13.1151960  0.290031E-02  0.804E-01    0.12       1.0  T
  40    -13.1191254 -0.392943E-02  0.257E-01    0.11       1.0  T
  41    -13.1173783  0.174705E-02  0.595E-01    0.12       1.0  T
  42    -13.1194679 -0.208955E-02  0.204E-01    0.11       1.0  T
  43    -13.1185333  0.934557E-03  0.439E-01    0.12       1.0  T
  44    -13.1195354 -0.100203E-02  0.202E-01    0.11       1.0  T
  45    -13.1190998  0.435527E-03  0.331E-01    0.11       1.0  T
  46    -13.1195425 -0.442696E-03  0.202E-01    0.11       1.0  T
  47    -13.1193725  0.170082E-03  0.259E-01    0.11       1.0  T
  48    -13.1195620 -0.189525E-03  0.192E-01    0.11       1.0  T
  49    -13.1195132  0.487943E-04  0.210E-01    0.11       1.0  T
  50    -13.1196081 -0.949166E-04  0.168E-01    0.11       1.0  T
  51    -13.1196087 -0.635353E-06  0.165E-01    0.11       1.0  T
  52    -13.1196968 -0.880855E-04  0.105E-01    0.11       1.0  T
  53    -13.1197190 -0.221284E-04  0.830E-02    0.11       1.0  T
  54    -13.1197338 -0.148460E-04  0.479E-02    0.11       1.0  T
  55    -13.1197428 -0.905102E-05  0.338E-02    0.11       1.2  T
  56    -13.1197252  0.176407E-04  0.557E-02    0.11       1.0  T
  57    -13.1197326 -0.736287E-05  0.500E-02    0.11       1.0  T
  58    -13.1197284  0.418427E-05  0.547E-02    0.11       1.0  T
  59    -13.1197371 -0.867399E-05  0.447E-02    0.11       1.0  T
  60    -13.1197402 -0.310488E-05  0.390E-02    0.11       1.0  T
  61    -13.1197453 -0.516924E-05  0.294E-02    0.11       1.4  T
  62    -13.1197487 -0.332440E-05  0.199E-02    0.11       2.0  T
  63    -13.1197503 -0.163922E-05  0.135E-02    0.11       3.0  T
  64    -13.1197516 -0.127832E-05  0.360E-03    0.11      11.4  T
  65    -13.1197516 -0.486432E-07  0.269E-03    0.11      15.2  T
  66    -13.1197516  0.607375E-07  0.409E-03    0.11      10.0  T
  67    -13.1197517 -0.122189E-06  0.278E-04    0.11     147.0  T
  68    -13.1197517  0.124546E-08  0.510E-04    0.11      80.1  T
     SCC iter.                  ...        0 min,  0.006 sec
     gradient                   ...        0 min,  0.001 sec
 * total energy  :     2.9116373 Eh     change       -0.8844951E+00 Eh
   gradient norm :    43.7219128 Eh/α   predicted     0.0000000E+00 (-100.00%)
   displ. norm   :     0.9444539 α      lambda       -0.4129333E+02
   maximum displ.:     0.9438996 α      in ANC's #11, #12, #9, ...

........................................................................
.............................. CYCLE    2 ..............................
........................................................................
   1    -12.7442718 -0.127443E+02  0.683E+00    0.12       0.0  T
   2    -12.7369423  0.732955E-02  0.833E+00    1.12       1.0  T
   3    -12.3583624  0.378580E+00  0.105E+01    0.00       1.0  T
   4    -12.4328088 -0.744464E-01  0.910E+00    0.00       1.0  T
   5    -12.8214490 -0.388640E+00  0.696E+00    1.08       1.0  T
   6    -12.4442907  0.377158E+00  0.868E+00    0.08       1.0  T
   7    -12.8354354 -0.391145E+00  0.658E+00    1.37       1.0  T
   8    -13.0287817 -0.193346E+00  0.331E+00    0.33       1.0  T
   9    -13.0252663  0.351544E-02  0.339E+00    0.34       1.0  T
  10    -13.0122520  0.130142E-01  0.368E+00    0.38       1.0  T
  11    -12.9582046  0.540474E-01  0.470E+00    0.52       1.0  T
  12    -12.9816797 -0.234751E-01  0.426E+00    0.47       1.0  T
  13    -12.9503140  0.313657E-01  0.481E+00    0.58       1.0  T
  14    -12.9475619  0.275205E-02  0.485E+00    0.59       1.0  T
  15    -12.9401471  0.741479E-02  0.492E+00    0.62       1.0  T
  16    -12.9426468 -0.249966E-02  0.480E+00    0.62       1.0  T
  17    -13.0556877 -0.113041E+00  0.187E+00    0.16       1.0  T
  18    -12.3717750  0.683913E+00  0.918E+00    0.00       1.0  T
  19    -13.0403462 -0.668571E+00  0.223E+00    0.33       1.0  T
  20    -13.0121473  0.281989E-01  0.331E+00    0.42       1.0  T
  21    -13.0430688 -0.309215E-01  0.216E+00    0.31       1.0  T
  22    -12.8677322  0.175337E+00  0.508E+00    0.03       1.0  T
  23    -13.0400829 -0.172351E+00  0.225E+00    0.29       1.0  T
  24    -13.0462876 -0.620469E-02  0.203E+00    0.27       1.0  T
  25    -13.0698303 -0.235427E-01  0.947E-01    0.13       1.0  T
  26    -13.0524446  0.173857E-01  0.184E+00    0.07       1.0  T
  27    -13.0322829  0.201617E-01  0.236E+00    0.27       1.0  T
  28    -13.0272491  0.503384E-02  0.251E+00    0.06       1.0  T
  29    -13.0445823 -0.173333E-01  0.210E+00    0.31       1.0  T
  30    -13.0701928 -0.256105E-01  0.901E-01    0.13       1.0  T
  31    -13.0739288 -0.373599E-02  0.663E-01    0.10       1.0  T
  32    -13.0576576  0.162712E-01  0.153E+00    0.18       1.0  T
  33    -13.0665558 -0.889822E-02  0.118E+00    0.09       1.0  T
  34    -13.0605122  0.604357E-02  0.141E+00    0.18       1.0  T
  35    -13.0678877 -0.737544E-02  0.108E+00    0.09       1.0  T
  36    -13.0655215  0.236613E-02  0.116E+00    0.16       1.0  T
  37    -13.0703565 -0.483502E-02  0.905E-01    0.09       1.0  T
  38    -13.0693947  0.961806E-03  0.931E-01    0.15       1.0  T
  39    -13.0718510 -0.245625E-02  0.779E-01    0.09       1.0  T
  40    -13.0719389 -0.879438E-04  0.738E-01    0.14       1.0  T
  41    -13.0735842 -0.164524E-02  0.607E-01    0.10       1.0  T
  42    -13.0739915 -0.407289E-03  0.536E-01    0.13       1.0  T
  43    -13.0748146 -0.823178E-03  0.448E-01    0.10       1.0  T
  44    -13.0752707 -0.456017E-03  0.356E-01    0.12       1.0  T
  45    -13.0756618 -0.391111E-03  0.293E-01    0.10       1.0  T
  46    -13.0759426 -0.280877E-03  0.207E-01    0.12       1.0  T
  47    -13.0760618 -0.119121E-03  0.178E-01    0.11       1.0  T
  48    -13.0762031 -0.141355E-03  0.103E-01    0.11       1.0  T
  49    -13.0762227 -0.195448E-04  0.976E-02    0.11       1.0  T
  50    -13.0762755 -0.528031E-04  0.420E-02    0.11       1.0  T
  51    -13.0762718  0.365699E-05  0.513E-02    0.11       1.0  T
  52    -13.0762886 -0.168113E-04  0.139E-02    0.11       2.9  T
  53    -13.0762845  0.412847E-05  0.285E-02    0.11       1.4  T
  54    -13.0762896 -0.511443E-05  0.914E-03    0.11       4.5  T
  55    -13.0762880  0.156832E-05  0.168E-02    0.11       2.4  T
  56    -13.0762898 -0.177308E-05  0.621E-03    0.11       6.6  T
  57    -13.0762898  0.357118E-07  0.641E-03    0.11       6.4  T
  58    -13.0762901 -0.293795E-06  0.207E-03    0.11      19.8  T
  59    -13.0762901 -0.118809E-07  0.155E-03    0.11      26.4  T
     SCC iter.                  ...        0 min,  0.005 sec
     gradient                   ...        0 min,  0.000 sec
 * total energy  :   -11.6316146 Eh     change       -0.1454325E+02 Eh
   gradient norm :    13.0065763 Eh/α   predicted    -0.3906335E+02 ( 168.60%)
   displ. norm   :     0.2418615 α      lambda       -0.2800131E+01
   maximum displ.:     0.2075531 α      in ANC's #11, #12, #3, ...

........................................................................
.............................. CYCLE    3 ..............................
........................................................................
   1    -13.0616245 -0.130616E+02  0.230E+00    0.15       0.0  T
   2    -12.2477371  0.813887E+00  0.997E+00    0.03       1.0  T
   3    -12.3724561 -0.124719E+00  0.994E+00    0.00       1.0  T
   4    -12.6729752 -0.300519E+00  0.757E+00    0.01       1.0  T
   5    -13.0589610 -0.385986E+00  0.264E+00    0.11       1.0  T
   6    -12.9692180  0.897430E-01  0.439E+00    0.05       1.0  T
   7    -12.9225776  0.466404E-01  0.476E+00    0.04       1.0  T
   8    -13.0581901 -0.135613E+00  0.264E+00    0.12       1.0  T
   9    -13.0911903 -0.330003E-01  0.837E-01    0.14       1.0  T
  10    -13.0935035 -0.231316E-02  0.524E-01    0.14       1.0  T
  11    -13.0763049  0.171986E-01  0.183E+00    0.16       1.0  T
  12    -13.0818706 -0.556573E-02  0.145E+00    0.18       1.0  T
  13    -13.0788254  0.304517E-02  0.163E+00    0.19       1.0  T
  14    -13.0837875 -0.496214E-02  0.135E+00    0.18       1.0  T
  15    -13.0933680 -0.958045E-02  0.652E-01    0.13       1.0  T
  16    -13.0953043 -0.193635E-02  0.280E-01    0.12       1.0  T
  17    -13.0954370 -0.132683E-03  0.231E-01    0.12       1.0  T
  18    -13.0954618 -0.248094E-04  0.204E-01    0.12       1.0  T
  19    -13.0954836 -0.217709E-04  0.183E-01    0.12       1.0  T
  20    -13.0956147 -0.131085E-03  0.122E-01    0.12       1.0  T
  21    -13.0957110 -0.962841E-04  0.437E-02    0.12       1.0  T
  22    -13.0957245 -0.135386E-04  0.969E-03    0.12       4.2  T
  23    -13.0957250 -0.448021E-06  0.611E-03    0.12       6.7  T
  24    -13.0957252 -0.261377E-06  0.847E-04    0.12      48.2  T
  25    -13.0957252 -0.712435E-09  0.687E-04    0.12      59.4  T
     SCC iter.                  ...        0 min,  0.002 sec
     gradient                   ...        0 min,  0.000 sec
 * total energy  :   -12.9853526 Eh     change       -0.1353738E+01 Eh
   gradient norm :     1.6861356 Eh/α   predicted    -0.1481965E+01 (   9.47%)
   displ. norm   :     0.2692374 α      lambda       -0.4472871E+00
   maximum displ.:     0.2628417 α      in ANC's #12, #11, #3, ...

........................................................................
.............................. CYCLE    4 ..............................
........................................................................
   1    -12.7240546 -0.127241E+02  0.715E+00    0.01       0.0  T
   2    -12.6905480  0.335066E-01  0.875E+00    1.86       1.0  T
   3    -12.3191187  0.371429E+00  0.951E+00    0.04       1.0  T
   4    -12.8870096 -0.567891E+00  0.638E+00    0.52       1.0  T
   5    -13.0361545 -0.149145E+00  0.323E+00    0.16       1.0  T
   6    -13.0565798 -0.204252E-01  0.273E+00    0.18       1.0  T
   7    -12.4189019  0.637678E+00  0.941E+00    0.00       1.0  T
   8    -13.0139270 -0.595025E+00  0.397E+00    0.30       1.0  T
   9    -13.0445073 -0.305803E-01  0.316E+00    0.26       1.0  T
  10    -13.0691012 -0.245939E-01  0.219E+00    0.20       1.0  T
  11    -13.0478206  0.212806E-01  0.303E+00    0.25       1.0  T
  12    -13.0663911 -0.185705E-01  0.238E+00    0.22       1.0  T
  13    -13.0637908  0.260023E-02  0.248E+00    0.23       1.0  T
  14    -13.0634443  0.346547E-03  0.249E+00    0.23       1.0  T
  15    -13.0633245  0.119791E-03  0.251E+00    0.23       1.0  T
  16    -13.0662011 -0.287663E-02  0.238E+00    0.23       1.0  T
  17    -13.0846438 -0.184427E-01  0.164E+00    0.17       1.0  T
  18    -13.0723273  0.123165E-01  0.196E+00    0.19       1.0  T
  19    -12.4459875  0.626340E+00  0.925E+00    0.00       1.0  T
  20    -12.4225469  0.234406E-01  0.940E+00    0.00       1.0  T
  21    -12.9630567 -0.540510E+00  0.411E+00    0.13       1.0  T
  22    -12.7519633  0.211093E+00  0.666E+00    0.02       1.0  T
  23    -12.9418061 -0.189843E+00  0.550E+00    0.40       1.0  T
  24    -13.0049454 -0.631393E-01  0.444E+00    0.29       1.0  T
  25    -13.0195696 -0.146241E-01  0.420E+00    0.26       1.0  T
  26    -13.0209014 -0.133182E-02  0.416E+00    0.26       1.0  T
  27    -13.0513342 -0.304328E-01  0.313E+00    0.23       1.0  T
  28    -12.4405568  0.610777E+00  0.929E+00    0.00       1.0  T
  29    -13.0482483 -0.607691E+00  0.316E+00    0.23       1.0  T
  30    -12.3917333  0.656515E+00  0.987E+00    0.00       1.0  T
  31    -12.3980836 -0.635034E-02  0.988E+00    0.01       1.0  T
  32    -12.3976253  0.458314E-03  0.989E+00    0.01       1.0  T
  33    -13.0411691 -0.643544E+00  0.304E+00    0.16       1.0  T
  34    -13.0635049 -0.223358E-01  0.261E+00    0.22       1.0  T
  35    -13.0949309 -0.314260E-01  0.105E+00    0.15       1.0  T
  36    -12.5497417  0.545189E+00  0.848E+00    0.01       1.0  T
  37    -13.0611934 -0.511452E+00  0.300E+00    0.21       1.0  T
  38    -13.0666023 -0.540892E-02  0.244E+00    0.20       1.0  T
  39    -13.0554014  0.112009E-01  0.281E+00    0.24       1.0  T
  40    -12.4830958  0.572306E+00  0.895E+00    0.00       1.0  T
  41    -13.0628908 -0.579795E+00  0.299E+00    0.20       1.0  T
  42    -13.0632248 -0.334035E-03  0.272E+00    0.22       1.0  T
  43    -13.0642352 -0.101042E-02  0.254E+00    0.22       1.0  T
  44    -12.6330030  0.431232E+00  0.782E+00    0.01       1.0  T
  45    -13.0618237 -0.428821E+00  0.309E+00    0.19       1.0  T
  46    -13.0584142  0.340949E-02  0.287E+00    0.23       1.0  T
  47    -13.0707174 -0.123032E-01  0.217E+00    0.21       1.0  T
  48    -12.4000353  0.670682E+00  0.965E+00    0.00       1.0  T
  49    -13.0565626 -0.656527E+00  0.356E+00    0.19       1.0  T
  50    -13.0421045  0.144581E-01  0.352E+00    0.25       1.0  T
  51    -13.0679690 -0.258646E-01  0.234E+00    0.20       1.0  T
  52    -12.9657921  0.102177E+00  0.425E+00    0.04       1.0  T
  53    -13.0653036 -0.995115E-01  0.267E+00    0.20       1.0  T
  54    -13.0656143 -0.310686E-03  0.242E+00    0.22       1.0  T
  55    -12.4108768  0.654738E+00  0.951E+00    0.00       1.0  T
  56    -13.0559924 -0.645116E+00  0.359E+00    0.21       1.0  T
  57    -13.0651702 -0.917786E-02  0.268E+00    0.21       1.0  T
  58    -13.0620962  0.307402E-02  0.260E+00    0.23       1.0  T
  59    -12.8280150  0.234081E+00  0.602E+00    0.02       1.0  T
  60    -13.0631815 -0.235167E+00  0.292E+00    0.20       1.0  T
  61    -13.0645147 -0.133322E-02  0.253E+00    0.22       1.0  T
  62    -12.9321293  0.132385E+00  0.476E+00    0.04       1.0  T
  63    -13.0649408 -0.132812E+00  0.272E+00    0.20       1.0  T
  64    -13.0651249 -0.184086E-03  0.245E+00    0.22       1.0  T
  65    -12.4814529  0.583672E+00  0.898E+00    0.00       1.0  T
  66    -13.0559574 -0.574505E+00  0.353E+00    0.21       1.0  T
  67    -13.0658952 -0.993776E-02  0.259E+00    0.21       1.0  T
  68    -13.0662763 -0.381125E-03  0.240E+00    0.22       1.0  T
  69    -12.5053554  0.560921E+00  0.880E+00    0.00       1.0  T
  70    -13.0554680 -0.550113E+00  0.357E+00    0.21       1.0  T
  71    -13.0656404 -0.101724E-01  0.260E+00    0.21       1.0  T
  72    -13.0674415 -0.180112E-02  0.234E+00    0.22       1.0  T
  73    -12.4470781  0.620363E+00  0.923E+00    0.00       1.0  T
  74    -13.0526684 -0.605590E+00  0.379E+00    0.21       1.0  T
  75    -13.0654340 -0.127656E-01  0.264E+00    0.21       1.0  T
  76    -13.0665825 -0.114850E-02  0.238E+00    0.22       1.0  T
  77    -12.5858822  0.480700E+00  0.820E+00    0.00       1.0  T
  78    -13.0537753 -0.467893E+00  0.363E+00    0.21       1.0  T
  79    -13.0662749 -0.124995E-01  0.254E+00    0.21       1.0  T
  80    -13.0784909 -0.122160E-01  0.190E+00    0.20       1.0  T
  81    -12.4220816  0.656409E+00  0.943E+00    0.00       1.0  T
  82    -13.0521799 -0.630098E+00  0.398E+00    0.20       1.0  T
  83    -13.0593407 -0.716085E-02  0.293E+00    0.22       1.0  T
  84    -13.0672233 -0.788256E-02  0.240E+00    0.21       1.0  T
  85    -12.9940656  0.731577E-01  0.381E+00    0.05       1.0  T
  86    -13.0636235 -0.695580E-01  0.283E+00    0.21       1.0  T
  87    -13.0675910 -0.396747E-02  0.233E+00    0.22       1.0  T
  88    -12.4197471  0.647844E+00  0.943E+00    0.00       1.0  T
  89    -13.0472163 -0.627469E+00  0.407E+00    0.22       1.0  T
  90    -13.0664680 -0.192517E-01  0.252E+00    0.20       1.0  T
  91    -13.0673140 -0.845963E-03  0.234E+00    0.22       1.0  T
  92    -12.7349239  0.332390E+00  0.695E+00    0.01       1.0  T
  93    -13.0539465 -0.319023E+00  0.350E+00    0.22       1.0  T
  94    -13.0673747 -0.134282E-01  0.242E+00    0.21       1.0  T
  95    -12.9966698  0.707049E-01  0.376E+00    0.05       1.0  T
  96    -13.0631110 -0.664412E-01  0.287E+00    0.21       1.0  T
  97    -13.0683115 -0.520052E-02  0.229E+00    0.22       1.0  T
  98    -12.4195775  0.648734E+00  0.944E+00    0.00       1.0  T
  99    -13.0487652 -0.629188E+00  0.403E+00    0.21       1.0  T
 100    -13.0662718 -0.175066E-01  0.255E+00    0.20       1.0  T
 101    -13.0675336 -0.126184E-02  0.233E+00    0.22       1.0  T
 102    -12.9170140  0.150520E+00  0.497E+00    0.03       1.0  T
 103    -13.0596158 -0.142602E+00  0.312E+00    0.21       1.0  T
 104    -13.0675484 -0.793265E-02  0.236E+00    0.21       1.0  T
 105    -12.5175336  0.550015E+00  0.872E+00    0.00       1.0  T
 106    -13.0503047 -0.532771E+00  0.379E+00    0.22       1.0  T
 107    -13.0673921 -0.170874E-01  0.241E+00    0.20       1.0  T
 108    -13.0989670 -0.315749E-01  0.642E-01    0.13       1.0  T
 109    -13.0734276  0.255394E-01  0.199E+00    0.20       1.0  T
 110    -12.3987835  0.674644E+00  0.968E+00    0.00       1.0  T
 111    -13.0484871 -0.649704E+00  0.429E+00    0.20       1.0  T
 112    -13.0520982 -0.361108E-02  0.320E+00    0.24       1.0  T
 113    -13.0656165 -0.135183E-01  0.255E+00    0.21       1.0  T
 114    -13.0706052 -0.498873E-02  0.219E+00    0.21       1.0  T
 115    -12.5727301  0.497875E+00  0.830E+00    0.00       1.0  T
 116    -13.0488624 -0.476132E+00  0.372E+00    0.22       1.0  T
 117    -13.0677437 -0.188812E-01  0.236E+00    0.20       1.0  T
 118    -13.0205382  0.472055E-01  0.330E+00    0.05       1.0  T
 119    -13.0623632 -0.418250E-01  0.285E+00    0.21       1.0  T
 120    -13.0711067 -0.874350E-02  0.217E+00    0.21       1.0  T
 121    -12.4138520  0.657255E+00  0.948E+00    0.00       1.0  T
 122    -13.0499465 -0.636095E+00  0.399E+00    0.21       1.0  T
 123    -13.0658106 -0.158641E-01  0.258E+00    0.21       1.0  T
 124    -13.0678576 -0.204698E-02  0.232E+00    0.22       1.0  T
 125    -13.0264586  0.413990E-01  0.318E+00    0.06       1.0  T
 126    -13.0635897 -0.371311E-01  0.277E+00    0.21       1.0  T
 127    -13.0815825 -0.179928E-01  0.175E+00    0.19       1.0  T
 128    -12.4153386  0.666244E+00  0.948E+00    0.00       1.0  T
 129    -13.0522600 -0.636921E+00  0.395E+00    0.20       1.0  T
 130    -13.0621899 -0.992993E-02  0.277E+00    0.22       1.0  T
 131    -13.0680489 -0.585898E-02  0.232E+00    0.21       1.0  T
 132    -12.9780583  0.899906E-01  0.408E+00    0.04       1.0  T
 133    -13.0618363 -0.837779E-01  0.291E+00    0.21       1.0  T
 134    -13.0708501 -0.901380E-02  0.217E+00    0.21       1.0  T
 135    -12.4153314  0.655519E+00  0.947E+00    0.00       1.0  T
 136    -13.0495105 -0.634179E+00  0.396E+00    0.21       1.0  T
 137    -13.0669108 -0.174002E-01  0.248E+00    0.20       1.0  T
 138    -13.0716281 -0.471736E-02  0.216E+00    0.22       1.0  T
 139    -12.8720827  0.199545E+00  0.553E+00    0.03       1.0  T
 140    -13.0576378 -0.185555E+00  0.321E+00    0.22       1.0  T
 141    -13.0686356 -0.109978E-01  0.228E+00    0.21       1.0  T
 142    -12.4743031  0.594333E+00  0.903E+00    0.00       1.0  T
 143    -13.0503076 -0.576004E+00  0.375E+00    0.22       1.0  T
 144    -13.0677357 -0.174282E-01  0.236E+00    0.20       1.0  T
 145    -13.1009803 -0.332446E-01  0.243E-01    0.11       1.0  T
 146    -13.0693040  0.316763E-01  0.222E+00    0.20       1.0  T
 147    -12.4198205  0.649483E+00  0.943E+00    0.00       1.0  T
 148    -13.0479294 -0.628109E+00  0.398E+00    0.22       1.0  T
 149    -13.0668254 -0.188959E-01  0.249E+00    0.20       1.0  T
 150    -13.0668615 -0.361537E-04  0.236E+00    0.22       1.0  T
 151    -13.0867765 -0.199149E-01  0.152E+00    0.17       1.0  T
 152    -13.0869643 -0.187828E-03  0.143E+00    0.08       1.0  T
 153    -13.0680959  0.188684E-01  0.232E+00    0.20       1.0  T
 154    -12.4421813  0.625915E+00  0.926E+00    0.00       1.0  T
 155    -13.0462527 -0.604071E+00  0.386E+00    0.23       1.0  T
 156    -13.0675123 -0.212596E-01  0.239E+00    0.20       1.0  T
 157    -13.0772434 -0.973107E-02  0.195E+00    0.20       1.0  T
 158    -13.0921305 -0.148871E-01  0.113E+00    0.09       1.0  T
 159    -13.0679964  0.241341E-01  0.235E+00    0.21       1.0  T
 160    -12.5360808  0.531916E+00  0.858E+00    0.00       1.0  T
 161    -13.0491502 -0.513069E+00  0.363E+00    0.23       1.0  T
 162    -13.0679382 -0.187880E-01  0.235E+00    0.20       1.0  T
 163    -13.1010661 -0.331279E-01  0.244E-01    0.11       1.0  T
 164    -13.0700799  0.309862E-01  0.218E+00    0.21       1.0  T
 165    -12.4262463  0.643834E+00  0.938E+00    0.00       1.0  T
 166    -13.0494236 -0.623177E+00  0.385E+00    0.22       1.0  T
 167    -13.0667254 -0.173017E-01  0.249E+00    0.20       1.0  T
 168    -13.0676292 -0.903794E-03  0.233E+00    0.22       1.0  T
 169    -13.0923203 -0.246912E-01  0.120E+00    0.15       1.0  T
 170    -13.0996914 -0.737104E-02  0.523E-01    0.10       1.0  T
 171    -13.0708942  0.287972E-01  0.208E+00    0.20       1.0  T
 172    -12.4005697  0.670324E+00  0.964E+00    0.00       1.0  T
 173    -13.0489988 -0.648429E+00  0.410E+00    0.21       1.0  T
 174    -13.0613859 -0.123871E-01  0.284E+00    0.22       1.0  T
 175    -13.0648702 -0.348427E-02  0.253E+00    0.22       1.0  T
 176    -13.0713287 -0.645853E-02  0.217E+00    0.22       1.0  T
 177    -12.8888313  0.182497E+00  0.533E+00    0.03       1.0  T
 178    -13.0585107 -0.169679E+00  0.300E+00    0.22       1.0  T
 179    -13.0702801 -0.117694E-01  0.219E+00    0.21       1.0  T
 180    -12.4237250  0.646555E+00  0.940E+00    0.00       1.0  T
 181    -13.0532361 -0.629511E+00  0.364E+00    0.21       1.0  T
 182    -13.0669723 -0.137362E-01  0.246E+00    0.21       1.0  T
 183    -13.0785963 -0.116239E-01  0.187E+00    0.21       1.0  T
 184    -12.5948983  0.483698E+00  0.814E+00    0.01       1.0  T
 185    -13.0556914 -0.460793E+00  0.339E+00    0.22       1.0  T
 186    -13.0676398 -0.119484E-01  0.238E+00    0.21       1.0  T
 187    -13.1002836 -0.326438E-01  0.398E-01    0.10       1.0  T
 188    -13.0704305  0.298531E-01  0.214E+00    0.20       1.0  T
 189    -12.4105386  0.659892E+00  0.951E+00    0.00       1.0  T
 190    -13.0504099 -0.639871E+00  0.391E+00    0.21       1.0  T
 191    -13.0653906 -0.149808E-01  0.260E+00    0.21       1.0  T
 192    -13.0672748 -0.188422E-02  0.236E+00    0.21       1.0  T
 193    -13.0910506 -0.237757E-01  0.128E+00    0.16       1.0  T
 194    -13.0016051  0.894455E-01  0.371E+00    0.05       1.0  T
 195    -13.0650189 -0.634138E-01  0.267E+00    0.21       1.0  T
 196    -13.0842255 -0.192066E-01  0.164E+00    0.18       1.0  T
 197    -12.4908179  0.593408E+00  0.892E+00    0.00       1.0  T
 198    -13.0542296 -0.563412E+00  0.355E+00    0.22       1.0  T
 199    -13.0670798 -0.128502E-01  0.244E+00    0.21       1.0  T
 200    -13.0867601 -0.196803E-01  0.150E+00    0.17       1.0  T
 201    -12.8486510  0.238109E+00  0.582E+00    0.02       1.0  T
 202    -13.0608668 -0.212216E+00  0.304E+00    0.21       1.0  T
 203    -13.0676376 -0.677081E-02  0.234E+00    0.21       1.0  T
 204    -13.0008442  0.667934E-01  0.369E+00    0.05       1.0  T
 205    -13.0633666 -0.625224E-01  0.273E+00    0.21       1.0  T
 206    -13.0801413 -0.167747E-01  0.180E+00    0.20       1.0  T
 207    -12.4316555  0.648486E+00  0.934E+00    0.00       1.0  T
 208    -13.0542927 -0.622637E+00  0.370E+00    0.21       1.0  T
 209    -13.0649999 -0.107072E-01  0.261E+00    0.21       1.0  T
 210    -13.0694034 -0.440350E-02  0.223E+00    0.21       1.0  T
 211    -13.0478597  0.215437E-01  0.271E+00    0.06       1.0  T
 212    -13.0650828 -0.172230E-01  0.259E+00    0.21       1.0  T
 213    -13.0983964 -0.333137E-01  0.703E-01    0.13       1.0  T
 214    -13.0691088  0.292876E-01  0.215E+00    0.07       1.0  T
 215    -13.0677440  0.136482E-02  0.237E+00    0.20       1.0  T
 216    -12.5486558  0.519088E+00  0.849E+00    0.00       1.0  T
 217    -13.0504161 -0.501760E+00  0.353E+00    0.23       1.0  T
 218    -13.0683716 -0.179554E-01  0.231E+00    0.20       1.0  T
 219    -13.1008337 -0.324622E-01  0.287E-01    0.11       1.0  T
 220    -13.0697338  0.310999E-01  0.220E+00    0.21       1.0  T
 221    -12.4975999  0.572134E+00  0.886E+00    0.00       1.0  T
 222    -13.0507533 -0.553153E+00  0.359E+00    0.22       1.0  T
 223    -13.0679344 -0.171811E-01  0.236E+00    0.20       1.0  T
 224    -13.0818949 -0.139605E-01  0.173E+00    0.19       1.0  T
 225    -13.0677694  0.141255E-01  0.217E+00    0.07       1.0  T
 226    -13.0668071  0.962219E-03  0.247E+00    0.21       1.0  T
 227    -13.1012126 -0.344054E-01  0.195E-01    0.11       1.0  T
 228    -13.0722144  0.289982E-01  0.209E+00    0.21       1.0  T
 229    -12.4150007  0.657214E+00  0.947E+00    0.00       1.0  T
 230    -13.0499149 -0.634914E+00  0.387E+00    0.22       1.0  T
 231    -13.0662465 -0.163317E-01  0.253E+00    0.21       1.0  T
 232    -13.0674445 -0.119802E-02  0.234E+00    0.22       1.0  T
 233    -13.0805198 -0.130753E-01  0.180E+00    0.20       1.0  T
 234    -13.0068888  0.736310E-01  0.359E+00    0.05       1.0  T
 235    -13.0643686 -0.574799E-01  0.265E+00    0.21       1.0  T
 236    -13.0850905 -0.207218E-01  0.159E+00    0.18       1.0  T
 237    -12.5087052  0.576385E+00  0.879E+00    0.00       1.0  T
 238    -13.0566205 -0.547915E+00  0.338E+00    0.21       1.0  T
 239    -13.0671340 -0.105135E-01  0.242E+00    0.21       1.0  T
 240    -13.0860103 -0.188762E-01  0.153E+00    0.18       1.0  T
 241    -12.8619387  0.224072E+00  0.567E+00    0.03       1.0  T
 242    -13.0617815 -0.199843E+00  0.294E+00    0.21       1.0  T
 243    -13.0683477 -0.656621E-02  0.230E+00    0.21       1.0  T
 244    -13.0046791  0.636686E-01  0.363E+00    0.05       1.0  T
 245    -13.0638357 -0.591566E-01  0.268E+00    0.21       1.0  T
 246    -13.0814864 -0.176507E-01  0.174E+00    0.19       1.0  T
 247    -12.4680273  0.613459E+00  0.908E+00    0.00       1.0  T
 248    -13.0563958 -0.588369E+00  0.347E+00    0.21       1.0  T
 249    -13.0663200 -0.992418E-02  0.250E+00    0.21       1.0  T
 250    -13.0718758 -0.555588E-02  0.212E+00    0.21       1.0  T
     SCC iter.                  ...        0 min,  0.114 sec
     gradient                   ...        0 min,  0.001 sec
 * total energy  :   -12.6508186 Eh     change        0.3345340E+00 Eh
   gradient norm :     4.2642488 Eh/α   predicted    -0.2398552E+00 (-171.70%)
   displ. norm   :     0.1801680 α      lambda       -0.7223745E+00
   maximum displ.:     0.1758447 α      in ANC's #12, #11, #3, ...

........................................................................
.............................. CYCLE    5 ..............................
........................................................................
   1    -13.0724252 -0.130724E+02  0.238E+00    0.08       0.0  T
   2    -12.8488102  0.223615E+00  0.594E+00    0.14       1.0  T
   3    -12.8725330 -0.237228E-01  0.605E+00    0.98       1.0  T
   4    -12.8079813  0.645517E-01  0.608E+00    0.13       1.0  T
   5    -12.3906502  0.417331E+00  0.986E+00    0.00       1.0  T
   6    -12.5139346 -0.123284E+00  0.880E+00    0.01       1.0  T
   7    -12.9231427 -0.409208E+00  0.544E+00    0.54       1.0  T
   8    -12.9724212 -0.492786E-01  0.463E+00    0.48       1.0  T
   9    -13.0515556 -0.791344E-01  0.294E+00    0.30       1.0  T
  10    -13.0584308 -0.687515E-02  0.273E+00    0.28       1.0  T
  11    -13.0693140 -0.108833E-01  0.227E+00    0.23       1.0  T
  12    -13.0690706  0.243424E-03  0.232E+00    0.25       1.0  T
  13    -13.0650965  0.397415E-02  0.219E+00    0.22       1.0  T
  14    -13.0898409 -0.247444E-01  0.136E+00    0.18       1.0  T
  15    -13.0927930 -0.295209E-02  0.114E+00    0.14       1.0  T
  16    -13.0902435  0.254948E-02  0.142E+00    0.11       1.0  T
  17    -13.0954339 -0.519040E-02  0.959E-01    0.14       1.0  T
  18    -13.0847025  0.107314E-01  0.162E+00    0.08       1.0  T
  19    -13.0787525  0.594994E-02  0.191E+00    0.21       1.0  T
  20    -13.0898008 -0.110483E-01  0.135E+00    0.17       1.0  T
  21    -13.0974755 -0.767472E-02  0.832E-01    0.15       1.0  T
  22    -13.0997609 -0.228536E-02  0.600E-01    0.14       1.0  T
  23    -13.1021962 -0.243533E-02  0.525E-02    0.12       1.0  T
  24    -13.1020861  0.110118E-03  0.145E-01    0.11       1.0  T
  25    -13.1017453  0.340791E-03  0.273E-01    0.11       1.0  T
  26    -13.1020793 -0.333967E-03  0.143E-01    0.11       1.0  T
  27    -13.1020236  0.556332E-04  0.168E-01    0.11       1.0  T
  28    -13.1021919 -0.168275E-03  0.294E-02    0.12       1.4  T
  29    -13.1021775  0.143963E-04  0.564E-02    0.12       1.0  T
  30    -13.1021939 -0.164027E-04  0.228E-02    0.12       1.8  T
  31    -13.1021926  0.130587E-05  0.267E-02    0.12       1.5  T
  32    -13.1021959 -0.330891E-05  0.125E-02    0.12       3.3  T
  33    -13.1021964 -0.489315E-06  0.794E-03    0.12       5.1  T
  34    -13.1021967 -0.346034E-06  0.152E-03    0.12      26.8  T
  35    -13.1021968 -0.124384E-07  0.623E-04    0.12      65.5  T
     SCC iter.                  ...        0 min,  0.002 sec
     gradient                   ...        0 min,  0.000 sec
 * total energy  :   -13.0538870 Eh     change       -0.4030684E+00 Eh
   gradient norm :     0.1392968 Eh/α   predicted    -0.3729115E+00 (  -7.48%)
   displ. norm   :     0.0426545 α      lambda       -0.2411474E-02
   maximum displ.:     0.0387986 α      in ANC's #3, #6, #12, ...

........................................................................
.............................. CYCLE    6 ..............................
........................................................................
   1    -13.1067458 -0.131067E+02  0.201E-01    0.12       0.0  T
   2    -12.9551499  0.151596E+00  0.465E+00    0.11       1.0  T
   3    -13.1052014 -0.150052E+00  0.548E-01    0.10       1.0  T
   4    -13.1068152 -0.161372E-02  0.200E-01    0.12       1.0  T
   5    -13.1043816  0.243356E-02  0.680E-01    0.11       1.0  T
   6    -13.1040377  0.343932E-03  0.696E-01    0.11       1.0  T
   7    -13.1067682 -0.273058E-02  0.169E-01    0.12       1.0  T
   8    -13.1069188 -0.150582E-03  0.112E-01    0.12       1.0  T
   9    -13.1070291 -0.110319E-03  0.197E-02    0.12       2.1  T
  10    -13.1070320 -0.285547E-05  0.278E-03    0.12      14.7  T
  11    -13.1070320 -0.449906E-07  0.222E-03    0.12      18.4  T
     SCC iter.                  ...        0 min,  0.001 sec
     gradient                   ...        0 min,  0.000 sec
 * total energy  :   -13.0557029 Eh     change       -0.1815859E-02 Eh
   gradient norm :     0.0292254 Eh/α   predicted    -0.1207932E-02 ( -33.48%)
   displ. norm   :     0.1023485 α      lambda       -0.2797826E-02
   maximum displ.:     0.0915307 α      in ANC's #3, #1, #6, ...

........................................................................
.............................. CYCLE    7 ..............................
........................................................................
   1    -13.1152456 -0.131152E+02  0.450E-01    0.12       0.0  T
   2    -12.4921148  0.623131E+00  0.849E+00    0.08       1.0  T
   3    -13.1028154 -0.610701E+00  0.143E+00    0.09       1.0  T
   4    -13.1163745 -0.135591E-01  0.254E-01    0.11       1.0  T
   5    -13.1063568  0.100177E-01  0.137E+00    0.10       1.0  T
   6    -13.1069309 -0.574104E-03  0.133E+00    0.10       1.0  T
   7    -13.1044229  0.250796E-02  0.153E+00    0.09       1.0  T
   8    -13.1091331 -0.471021E-02  0.107E+00    0.10       1.0  T
   9    -13.1166030 -0.746993E-02  0.131E-01    0.12       1.0  T
  10    -13.1166884 -0.853660E-04  0.174E-02    0.12       2.3  T
  11    -13.1166889 -0.536139E-06  0.207E-02    0.12       2.0  T
  12    -13.1166899 -0.953759E-06  0.111E-02    0.12       3.7  T
  13    -13.1166898  0.559426E-07  0.995E-03    0.12       4.1  T
  14    -13.1166905 -0.630605E-06  0.124E-03    0.12      33.1  T
  15    -13.1166905 -0.858636E-08  0.638E-04    0.12      63.9  T
     SCC iter.                  ...        0 min,  0.001 sec
     gradient                   ...        0 min,  0.000 sec
 * total energy  :   -13.0575887 Eh     change       -0.1885884E-02 Eh
   gradient norm :     0.0896482 Eh/α   predicted    -0.1413572E-02 ( -25.04%)
   displ. norm   :     0.2865887 α      lambda       -0.2647376E-02
   maximum displ.:     0.2504514 α      in ANC's #1, #3, #2, ...

........................................................................
.............................. CYCLE    8 ..............................
........................................................................
   1    -13.1212088 -0.131212E+02  0.867E-01    0.12       0.0  T
   2    -12.3513978  0.769811E+00  0.942E+00    0.06       1.0  T
   3    -12.4812770 -0.129879E+00  0.930E+00    0.00       1.0  T
   4    -13.1163165 -0.635039E+00  0.114E+00    0.09       1.0  T
   5    -13.1080434  0.827312E-02  0.180E+00    0.09       1.0  T
   6    -13.1088314 -0.788061E-03  0.176E+00    0.10       1.0  T
   7    -13.0511761  0.576554E-01  0.376E+00    0.07       1.0  T
   8    -13.1247014 -0.735254E-01  0.424E-01    0.13       1.0  T
   9    -13.1047465  0.199550E-01  0.213E+00    0.17       1.0  T
  10    -13.1079651 -0.321863E-02  0.200E+00    0.16       1.0  T
  11    -13.1198670 -0.119019E-01  0.946E-01    0.15       1.0  T
  12    -13.1247012 -0.483424E-02  0.382E-01    0.13       1.0  T
  13    -13.1254260 -0.724766E-03  0.121E-01    0.12       1.0  T
  14    -13.1254825 -0.565289E-04  0.209E-02    0.12       2.0  T
  15    -13.1254839 -0.134198E-05  0.154E-02    0.12       2.6  T
  16    -13.1254853 -0.141912E-05  0.283E-03    0.12      14.4  T
  17    -13.1254853 -0.199806E-07  0.157E-03    0.12      26.0  T
     SCC iter.                  ...        0 min,  0.001 sec
     gradient                   ...        0 min,  0.000 sec
 * total energy  :   -13.0569634 Eh     change        0.6253622E-03 Eh
   gradient norm :     0.0960570 Eh/α   predicted    -0.1432368E-02 (-329.05%)
   displ. norm   :     0.2374518 α      lambda       -0.4753324E-02
   maximum displ.:     0.2168152 α      in ANC's #1, #3, #2, ...

........................................................................
.............................. CYCLE    9 ..............................
........................................................................
   1    -13.1282160 -0.131282E+02  0.633E-01    0.12       0.0  T
   2    -12.4276104  0.700606E+00  0.903E+00    0.07       1.0  T
   3    -12.8055453 -0.377935E+00  0.667E+00    0.02       1.0  T
   4    -13.1280643 -0.322519E+00  0.539E-01    0.11       1.0  T
   5    -13.1240641  0.400022E-02  0.100E+00    0.10       1.0  T
   6    -13.1230756  0.988452E-03  0.117E+00    0.10       1.0  T
   7    -13.1157204  0.735517E-02  0.159E+00    0.09       1.0  T
   8    -13.1065435  0.917696E-02  0.201E+00    0.08       1.0  T
   9    -13.1300835 -0.235400E-01  0.282E-01    0.12       1.0  T
  10    -13.1285197  0.156380E-02  0.589E-01    0.14       1.0  T
  11    -13.1289578 -0.438120E-03  0.469E-01    0.13       1.0  T
  12    -13.1301296 -0.117186E-02  0.192E-01    0.12       1.0  T
  13    -13.1303287 -0.199028E-03  0.851E-02    0.12       1.0  T
  14    -13.1303767 -0.480515E-04  0.394E-03    0.12      10.4  T
  15    -13.1303762  0.495721E-06  0.930E-03    0.12       4.4  T
  16    -13.1303768 -0.589149E-06  0.687E-04    0.12      59.4  T
  17    -13.1303768  0.188585E-07  0.192E-03    0.12      21.3  T
     SCC iter.                  ...        0 min,  0.001 sec
     gradient                   ...        0 min,  0.000 sec
 * total energy  :   -13.0595851 Eh     change       -0.2621711E-02 Eh
   gradient norm :     0.0672424 Eh/α   predicted    -0.2510664E-02 (  -4.24%)
   displ. norm   :     0.1353693 α      lambda       -0.1413069E-02
   maximum displ.:     0.1260569 α      in ANC's #2, #3, #6, ...

........................................................................
.............................. CYCLE   10 ..............................
........................................................................
   1    -13.1229872 -0.131230E+02  0.907E-01    0.14       0.0  T
   2    -12.4119217  0.711066E+00  0.100E+01    0.00       1.0  T
   3    -12.5000481 -0.881263E-01  0.856E+00    0.08       1.0  T
   4    -13.1262370 -0.626189E+00  0.414E-01    0.11       1.0  T
   5    -13.1248948  0.134214E-02  0.655E-01    0.13       1.0  T
   6    -13.1273747 -0.247991E-02  0.135E-01    0.11       1.0  T
   7    -13.1268992  0.475501E-03  0.360E-01    0.12       1.0  T
   8    -13.1272743 -0.375004E-03  0.266E-01    0.12       1.0  T
   9    -13.1272663  0.798796E-05  0.274E-01    0.12       1.0  T
  10    -13.1275021 -0.235822E-03  0.412E-02    0.12       1.0  T
  11    -13.1275030 -0.942769E-06  0.149E-02    0.12       2.7  T
  12    -13.1275038 -0.818065E-06  0.584E-03    0.12       7.0  T
  13    -13.1275041 -0.205098E-06  0.231E-03    0.12      17.7  T
     SCC iter.                  ...        0 min,  0.001 sec
     gradient                   ...        0 min,  0.000 sec
 * total energy  :   -13.0602264 Eh     change       -0.6413349E-03 Eh
   gradient norm :     0.0374715 Eh/α   predicted    -0.7194793E-03 (  12.18%)
   displ. norm   :     0.2228346 α      lambda       -0.3377891E-02
   maximum displ.:     0.1461530 α      in ANC's #2, #3, #1, ...

........................................................................
.............................. CYCLE   11 ..............................
........................................................................
   1    -13.0911362 -0.130911E+02  0.226E+00    0.17       0.0  T
   2    -12.5753266  0.515810E+00  0.974E+00    0.00       1.0  T
   3    -12.3286569  0.246670E+00  0.955E+00    0.05       1.0  T
   4    -12.9219219 -0.593265E+00  0.537E+00    0.03       1.0  T
   5    -13.0756133 -0.153691E+00  0.273E+00    0.19       1.0  T
   6    -13.1063671 -0.307538E-01  0.144E+00    0.17       1.0  T
   7    -13.1125327 -0.616559E-02  0.112E+00    0.13       1.0  T
   8    -13.0833372  0.291954E-01  0.247E+00    0.13       1.0  T
   9    -13.0781538  0.518344E-02  0.266E+00    0.12       1.0  T
  10    -13.1179126 -0.397587E-01  0.469E-01    0.14       1.0  T
  11    -13.1194566 -0.154403E-02  0.198E-01    0.12       1.0  T
  12    -13.1192614  0.195178E-03  0.217E-01    0.11       1.0  T
  13    -13.1194516 -0.190218E-03  0.136E-01    0.11       1.0  T
  14    -13.1195702 -0.118569E-03  0.490E-02    0.12       1.0  T
  15    -13.1195736 -0.345255E-05  0.404E-02    0.12       1.0  T
  16    -13.1195797 -0.605828E-05  0.260E-02    0.12       1.6  T
  17    -13.1195830 -0.334188E-05  0.134E-02    0.12       3.1  T
  18    -13.1195841 -0.100455E-05  0.341E-03    0.12      12.0  T
  19    -13.1195841 -0.243789E-07  0.250E-03    0.12      16.3  T
     SCC iter.                  ...        0 min,  0.001 sec
     gradient                   ...        0 min,  0.000 sec
 * total energy  :   -13.0612344 Eh     change       -0.1008008E-02 Eh
   gradient norm :     0.1200916 Eh/α   predicted    -0.1772819E-02 (  75.87%)
   displ. norm   :     0.1345756 α      lambda       -0.1797812E-02
   maximum displ.:     0.0913907 α      in ANC's #3, #1, #2, ...

........................................................................
.............................. CYCLE   12 ..............................
........................................................................
   1    -13.1203321 -0.131203E+02  0.395E-01    0.11       0.0  T
   2    -12.6476663  0.472666E+00  0.752E+00    0.10       1.0  T
   3    -13.0916866 -0.444020E+00  0.224E+00    0.22       1.0  T
   4    -13.1196186 -0.279321E-01  0.493E-01    0.11       1.0  T
   5    -13.1191689  0.449751E-03  0.577E-01    0.12       1.0  T
   6    -13.1206053 -0.143636E-02  0.297E-01    0.11       1.0  T
   7    -13.1210074 -0.402143E-03  0.204E-01    0.11       1.0  T
   8    -13.1211028 -0.953578E-04  0.156E-01    0.11       1.0  T
   9    -13.1210457  0.570456E-04  0.170E-01    0.12       1.0  T
  10    -13.1213350 -0.289254E-03  0.526E-02    0.12       1.0  T
  11    -13.1213392 -0.422935E-05  0.335E-02    0.12       1.2  T
  12    -13.1213498 -0.105579E-04  0.961E-03    0.12       4.2  T
  13    -13.1213502 -0.454511E-06  0.550E-03    0.12       7.4  T
  14    -13.1213503 -0.498890E-07  0.405E-03    0.12      10.1  T
     SCC iter.                  ...        0 min,  0.001 sec
     gradient                   ...        0 min,  0.000 sec
 * total energy  :   -13.0623544 Eh     change       -0.1119928E-02 Eh
   gradient norm :     0.0368737 Eh/α   predicted    -0.9151872E-03 ( -18.28%)
   displ. norm   :     0.0820476 α      lambda       -0.3220052E-03
   maximum displ.:     0.0783873 α      in ANC's #3, #1, #2, ...

........................................................................
.............................. CYCLE   13 ..............................
........................................................................
   1    -13.1207128 -0.131207E+02  0.338E-01    0.11       0.0  T
   2    -12.8561274  0.264585E+00  0.564E+00    0.14       1.0  T
   3    -13.0790915 -0.222964E+00  0.272E+00    0.27       1.0  T
   4    -13.1183517 -0.392603E-01  0.749E-01    0.13       1.0  T
   5    -13.1165885  0.176322E-02  0.801E-01    0.10       1.0  T
   6    -13.1192179 -0.262945E-02  0.628E-01    0.13       1.0  T
   7    -13.1214904 -0.227246E-02  0.678E-02    0.12       1.0  T
   8    -13.1214823  0.809920E-05  0.737E-02    0.12       1.0  T
   9    -13.1212887  0.193551E-03  0.169E-01    0.12       1.0  T
  10    -13.1215298 -0.241027E-03  0.312E-02    0.12       1.3  T
  11    -13.1215324 -0.261634E-05  0.203E-02    0.12       2.0  T
  12    -13.1215360 -0.362290E-05  0.228E-03    0.12      17.9  T
  13    -13.1215358  0.189279E-06  0.633E-03    0.12       6.5  T
  14    -13.1215360 -0.228765E-06  0.911E-04    0.12      44.8  T
     SCC iter.                  ...        0 min,  0.001 sec
     gradient                   ...        0 min,  0.000 sec
 * total energy  :   -13.0625520 Eh     change       -0.1976301E-03 Eh
   gradient norm :     0.0054645 Eh/α   predicted    -0.1620857E-03 ( -17.99%)
   displ. norm   :     0.0269899 α      lambda       -0.3514538E-04
   maximum displ.:     0.0256256 α      in ANC's #3, #1, #6, ...

........................................................................
.............................. CYCLE   14 ..............................
........................................................................
   1    -13.1217810 -0.131218E+02  0.216E-01    0.11       0.0  T
   2    -13.0889287  0.328524E-01  0.237E+00    0.28       1.0  T
   3    -13.1112968 -0.223681E-01  0.116E+00    0.15       1.0  T
   4    -13.1216093 -0.103126E-01  0.284E-01    0.13       1.0  T
   5    -13.1208020  0.807333E-03  0.444E-01    0.11       1.0  T
   6    -13.1220386 -0.123663E-02  0.952E-02    0.12       1.0  T
   7    -13.1220948 -0.561924E-04  0.114E-02    0.12       3.6  T
   8    -13.1220951 -0.249580E-06  0.923E-03    0.12       4.4  T
   9    -13.1220955 -0.437546E-06  0.323E-03    0.12      12.6  T
  10    -13.1220955 -0.370723E-07  0.226E-03    0.12      18.1  T
  11    -13.1220954  0.150924E-06  0.529E-03    0.12       7.7  T
  12    -13.1220955 -0.141889E-06  0.231E-03    0.12      17.7  T
     SCC iter.                  ...        0 min,  0.001 sec
     gradient                   ...        0 min,  0.000 sec
 * total energy  :   -13.0625723 Eh     change       -0.2033457E-04 Eh
   gradient norm :     0.0043629 Eh/α   predicted    -0.1758427E-04 ( -13.53%)
   displ. norm   :     0.0066429 α      lambda       -0.2357748E-05
   maximum displ.:     0.0065083 α      in ANC's #3, #6, #2, ...

........................................................................
.............................. CYCLE   15 ..............................
........................................................................
   1    -13.1222181 -0.131222E+02  0.630E-02    0.12       0.0  T
   2    -13.1108847  0.113334E-01  0.136E+00    0.17       1.0  T
   3    -13.1219566 -0.110719E-01  0.193E-01    0.12       1.0  T
   4    -13.1222388 -0.282138E-03  0.270E-02    0.12       1.5  T
   5    -13.1222430 -0.427661E-05  0.116E-02    0.12       3.5  T
   6    -13.1222435 -0.475229E-06  0.648E-03    0.12       6.3  T
   7    -13.1222438 -0.284523E-06  0.287E-03    0.12      14.2  T
   8    -13.1222438 -0.357196E-07  0.138E-03    0.12      29.7  T
     SCC iter.                  ...        0 min,  0.001 sec
     gradient                   ...        0 min,  0.000 sec
 * total energy  :   -13.0625738 Eh     change       -0.1436520E-05 Eh
   gradient norm :     0.0017081 Eh/α   predicted    -0.1178038E-05 ( -17.99%)
   displ. norm   :     0.0021163 α      lambda       -0.3042009E-06
   maximum displ.:     0.0015056 α      in ANC's #3, #1, #6, ...

........................................................................
.............................. CYCLE   16 ..............................
........................................................................
   1    -13.1223361 -0.131223E+02  0.294E-02    0.12       0.0  T
   2    -13.1187244  0.361168E-02  0.777E-01    0.14       1.0  T
   3    -13.1223326 -0.360822E-02  0.354E-02    0.12       1.2  T
   4    -13.1223254  0.722603E-05  0.442E-02    0.12       1.0  T
   5    -13.1223406 -0.152127E-04  0.101E-02    0.12       4.1  T
   6    -13.1223410 -0.444533E-06  0.405E-03    0.12      10.1  T
   7    -13.1223411 -0.884262E-07  0.336E-04    0.12     121.5  T
   8    -13.1223411 -0.233578E-09  0.233E-04    0.12     175.2  T
     SCC iter.                  ...        0 min,  0.001 sec
     gradient                   ...        0 min,  0.000 sec
 * total energy  :   -13.0625739 Eh     change       -0.1288291E-06 Eh
   gradient norm :     0.0005604 Eh/α   predicted    -0.1521014E-06 (  18.06%)
   displ. norm   :     0.0007264 α      lambda       -0.4126524E-07
   maximum displ.:     0.0005553 α      in ANC's #3, #1, #6, ...

   *** GEOMETRY OPTIMIZATION CONVERGED AFTER 16 ITERATIONS ***

------------------------------------------------------------------------
 total energy gain   :       -16.8587063 Eh   -10578.9979 kcal/mol
 total RMSD          :         0.4306059 a0        0.2279 Å
 total power (kW/mol):     -2766.4079547 (step)********** (real)
------------------------------------------------------------------------

 ANCopt (total)                0 d,  0 h,  0 min,  0.159 sec
 optimizer setup                ...        0 min,  0.000 sec (  0.042%)
 model hessian                  ...        0 min,  0.000 sec (  0.042%)
 ANC generation                 ...        0 min,  0.000 sec (  0.048%)
 coordinate transformation      ...        0 min,  0.000 sec (  0.042%)
 single point calculation       ...        0 min,  0.157 sec ( 99.038%)
 optimization log               ...        0 min,  0.000 sec (  0.223%)
 hessian update                 ...        0 min,  0.000 sec (  0.032%)
 rational function              ...        0 min,  0.000 sec (  0.255%)

================
 final structure:
================
6
 xtb: 6.2.3 (830e466)
F        -3.84567777623452   -0.22893586082097    0.07499209654211
Cl        3.14148511031518    0.17135302776960   -0.04447625726020
C        -0.85222951879487   -0.04538540473696    0.01192130625694
H        -0.84476905836596   -0.62782200261206   -0.88312249697286
H        -0.81182262170096   -0.52742862235965    0.96393299795529
H        -0.92991613520722    1.01813886276112   -0.04453764652046
 
 Bond Distances (Angstroems)
 ---------------------------
C3-H4=1.0679         C3-H5=1.0679         C3-H6=1.0679         H4-C3=1.0679         H5-C3=1.0679         H6-C3=1.0679         
 C  H  Rav=1.0679 sigma=0.0000  Rmin=1.0679  Rmax=1.0679     3
 
 selected bond angles (degree)
 --------------------
H5-C3-H4=120.05                H6-C3-H4=119.96                H6-C3-H5=119.96                
 
 selected dihedral angles (degree)
 ---------------------------------

 
 CMA Distance (Angstroems)
 ---------------------------
R(CMA):  5.8079
           -------------------------------------------------
          |                Final Singlepoint                |
           -------------------------------------------------

          ...................................................
          :                      SETUP                      :
          :.................................................:
          :  # basis functions                  21          :
          :  # atomic orbitals                  20          :
          :  # shells                           10          :
          :  # electrons                        22          :
          :  max. iterations                   250          :
          :  Hamiltonian                  GFN2-xTB          :
          :  restarted?                      false          :
          :  GBSA solvation                  false          :
          :  PC potential                    false          :
          :  electronic temp.          300.0000000     K    :
          :  accuracy                    1.0000000          :
          :  -> integral cutoff          0.2500000E+02      :
          :  -> integral neglect         0.1000000E-07      :
          :  -> SCF convergence          0.1000000E-05 Eh   :
          :  -> wf. convergence          0.1000000E-03 e    :
          :  Broyden damping             0.4000000          :
          ...................................................

 iter      E             dE          RMSdq      gap      omega  full diag
   1    -13.1223411 -0.131223E+02  0.191E-04    0.12       0.0  T
   2    -13.1223411  0.500833E-07  0.291E-03    0.12      14.0  T
   3    -13.1223411 -0.258239E-07  0.204E-03    0.12      20.0  T
   4    -13.1223411 -0.806887E-08  0.173E-03    0.12      23.6  T
   5    -13.1223411 -0.162507E-07  0.147E-05    0.12    2779.0  T
   6    -13.1223411  0.365041E-11  0.289E-05    0.12    1414.0  T

   *** convergence criteria satisfied after 6 iterations ***

         #    Occupation            Energy/Eh            Energy/eV
      -------------------------------------------------------------
         1        2.0000           -0.8579696             -23.3465
       ...           ...                  ...                  ...
         5        2.0000           -0.3765153             -10.2455
         6        2.0000           -0.2465256              -6.7083
         7        1.9996           -0.2442357              -6.6460
         8        1.9996           -0.2442356              -6.6460
         9        1.9271           -0.2393136              -6.5121
        10        1.8893           -0.2388984              -6.5008
        11        1.8893           -0.2388981              -6.5007 (HOMO)
        12        0.2952           -0.2345367              -6.3821 (LUMO)
        13                          0.2291364               6.2351
        14                          0.2484983               6.7620
        15                          0.2485309               6.7629
        16                          0.2485311               6.7629
       ...                                ...                  ...
        20                          0.3975549              10.8180
      -------------------------------------------------------------
                  HL-Gap            0.0043614 Eh            0.1187 eV
             Fermi-level           -0.2362027 Eh           -6.4274 eV

 SCC (total)                   0 d,  0 h,  0 min,  0.002 sec
 SCC setup                      ...        0 min,  0.000 sec (  2.700%)
 Dispersion                     ...        0 min,  0.000 sec (  0.488%)
 integral evaluation            ...        0 min,  0.001 sec ( 36.986%)
 zeroth order Hamiltonian       ...        0 min,  0.000 sec (  0.661%)
 iterations                     ...        0 min,  0.000 sec ( 25.007%)
 molecular gradient             ...        0 min,  0.000 sec ( 30.121%)
 printout                       ...        0 min,  0.000 sec (  2.959%)

         :::::::::::::::::::::::::::::::::::::::::::::::::::::
         ::                     SUMMARY                     ::
         :::::::::::::::::::::::::::::::::::::::::::::::::::::
         :: total energy             -13.062573902558 Eh    ::
         :: gradient norm              0.000560677751 Eh/a0 ::
         :: HOMO-LUMO gap              0.118680037547 eV    ::
         ::.................................................::
         :: SCC energy               -13.122341124326 Eh    ::
         :: -> isotropic ES            0.157872069856 Eh    ::
         :: -> anisotropic ES         -0.000854084244 Eh    ::
         :: -> anisotropic XC          0.006290877186 Eh    ::
         :: -> dispersion             -0.001360960420 Eh    ::
         :: repulsion energy           0.059769312343 Eh    ::
         :: add. restraining           0.000002540199 Eh    ::
         :::::::::::::::::::::::::::::::::::::::::::::::::::::

           -------------------------------------------------
          |                Property Printout                |
           -------------------------------------------------

    * Orbital Energies and Occupations

         #    Occupation            Energy/Eh            Energy/eV
      -------------------------------------------------------------
         1        2.0000           -0.8579696             -23.3465
         2        2.0000           -0.5304431             -14.4341
         3        2.0000           -0.4743309             -12.9072
         4        2.0000           -0.3765615             -10.2468
         5        2.0000           -0.3765153             -10.2455
         6        2.0000           -0.2465256              -6.7083
         7        1.9996           -0.2442357              -6.6460
         8        1.9996           -0.2442356              -6.6460
         9        1.9271           -0.2393136              -6.5121
        10        1.8893           -0.2388984              -6.5008
        11        1.8893           -0.2388981              -6.5007 (HOMO)
        12        0.2952           -0.2345367              -6.3821 (LUMO)
        13                          0.2291364               6.2351
        14                          0.2484983               6.7620
        15                          0.2485309               6.7629
        16                          0.2485311               6.7629
        17                          0.2486819               6.7670
        18                          0.2486819               6.7670
        19                          0.3969901              10.8027
        20                          0.3975549              10.8180
      -------------------------------------------------------------
                  HL-Gap            0.0043614 Eh            0.1187 eV
             Fermi-level           -0.2362027 Eh           -6.4274 eV

     #   Z        covCN         q      C6AA      α(0)
     1   9 F      0.000    -0.540    15.904     4.645
     2  17 Cl     0.000    -0.639   113.104    16.185
     3   6 C      2.780    -0.077    29.905     8.957
     4   1 H      0.927     0.085     1.925     2.169
     5   1 H      0.927     0.086     1.922     2.168
     6   1 H      0.927     0.085     1.926     2.170

 Mol. C6AA /au·bohr⁶  :        581.524429
 Mol. C8AA /au·bohr⁸  :      16507.672277
 Mol. α(0) /au        :         36.295304


Wiberg/Mayer (AO) data.
largest (>0.10) Wiberg bond orders for each atom
          total WBO             WBO to atom ...
     1  F   0.541        C    3 0.541
     2  Cl  0.077
     3  C   3.591        H    6 0.991    H    4 0.991    H    5 0.991    F    1 0.541
     4  H   0.993        C    3 0.991
     5  H   0.993        C    3 0.991
     6  H   0.993        C    3 0.991

molecular dipole:
                 x           y           z       tot (Debye)
 q only:       -0.167       0.010      -0.018
   full:       -0.188       0.009      -0.018       0.481
molecular quadrupole (traceless):
                xx          xy          yy          xz          yz          zz
 q only:      -50.979      -4.398      25.373       1.318       0.076      25.606
  q+dip:      -52.139      -4.504      25.948       1.352       0.078      26.191
   full:      -51.223      -4.419      25.494       1.323       0.076      25.729

           -------------------------------------------------
          |                Geometry Summary                 |
           -------------------------------------------------

      molecular mass/u    :       69.4858989
   center of mass at/Å    :        0.3665519       0.0149993       0.0003981
  moments of inertia/u·Å² :        0.3451031E+01   0.6364411E+03   0.6364447E+03
rotational constants/cm⁻¹ :        0.4884810E+01   0.2648734E-01   0.2648719E-01

 * 3 selected distances

     #   Z        #   Z                                     value/Å
     3   6 C      4   1 H                                 1.0678911 (max)
     3   6 C      5   1 H                                 1.0678598
     3   6 C      6   1 H                                 1.0678514 (min)

 * 1 distinct bonds (by element types)

   Z      Z             #   av. dist./Å        max./Å        min./Å
   1 H    6 C           3     1.0678675     1.0678911     1.0678514


optimized geometry written to: xtbopt.xyz


           -------------------------------------------------
          | TOTAL ENERGY              -13.062573902558 Eh   |
          | GRADIENT NORM               0.000560677751 Eh/α |
          | HOMO-LUMO GAP               0.118680037547 eV   |
           -------------------------------------------------
########################################################################
[WARNING] Runtime exception occurred
-2- scf: Self consistent charge iterator did not converge
-1- scf: Self consistent charge iterator did not converge
########################################################################

------------------------------------------------------------------------
 * finished run on 2020/04/08 at 23:04:05.998     
------------------------------------------------------------------------
 total:
 * wall-time:     0 d,  0 h,  0 min,  0.303 sec
 *  cpu-time:     0 d,  0 h,  0 min,  0.288 sec
 * ratio c/w:     0.950 speedup
 SCF:
 * wall-time:     0 d,  0 h,  0 min,  0.121 sec
 *  cpu-time:     0 d,  0 h,  0 min,  0.120 sec
 * ratio c/w:     0.995 speedup
 ANC optimizer:
 * wall-time:     0 d,  0 h,  0 min,  0.161 sec
 *  cpu-time:     0 d,  0 h,  0 min,  0.161 sec
 * ratio c/w:     1.000 speedup

