      -----------------------------------------------------------      
     |                   =====================                   |     
     |                           x T B                           |     
     |                   =====================                   |     
     |                         S. Grimme                         |     
     |          Mulliken Center for Theoretical Chemistry        |     
     |                    University of Bonn                     |     
      -----------------------------------------------------------      

   * xtb version 6.2.3 (830e466) compiled by 'ehlert@majestix' on 2020-03-16

   xtb is free software: you can redistribute it and/or modify it under
   the terms of the GNU Lesser General Public License as published by
   the Free Software Foundation, either version 3 of the License, or
   (at your option) any later version.
   
   xtb is distributed in the hope that it will be useful,
   but WITHOUT ANY WARRANTY; without even the implied warranty of
   MERCHANTABILITY or FITNESS FOR A PARTICULAR PURPOSE.  See the
   GNU Lesser General Public License for more details.
   
   Cite this work as:
   * S. Grimme, C. Bannwarth, P. Shushkov, J. Chem. Theory Comput., 2017,
     13, 1989-2009. DOI: 10.1021/acs.jctc.7b00118
   * C. Bannwarth, S. Ehlert and S. Grimme., J. Chem. Theory Comput., 2019,
     15, 1652-1671. DOI: 10.1021/acs.jctc.8b01176
   * P. Pracht, E. Caldeweyher, S. Ehlert, S. Grimme, ChemRxiv, 2019, preprint.
     DOI: 10.26434/chemrxiv.8326202.v1
   
   for DFT-D4:
   * E. Caldeweyher, C. Bannwarth and S. Grimme, J. Chem. Phys., 2017,
     147, 034112. DOI: 10.1063/1.4993215
   * E. Caldeweyher, S. Ehlert, A. Hansen, H. Neugebauer, S. Spicher,
     C. Bannwarth and S. Grimme, J. Chem. Phys., 2019, 150, 154122.
     DOI: 10.1063/1.5090222
   
   for sTDA-xTB:
   * S. Grimme and C. Bannwarth, J. Chem. Phys., 2016, 145, 054103.
     DOI: 10.1063/1.4959605
   
   in the mass-spec context:
   * V. Asgeirsson, C. Bauer and S. Grimme, Chem. Sci., 2017, 8, 4879.
     DOI: 10.1039/c7sc00601b
   
   for metadynamics refer to:
   * S. Grimme, J. Chem. Theory Comput., 2019, 155, 2847-2862
     DOI: 10.1021/acs.jctc.9b00143
   
   with help from (in alphabetical order)
   C. Bannwarth, F. Bohle, G. Brandenburg, E. Caldeweyher, M. Checinski,
   S. Dohm, S. Ehlert, S. Ehrlich, F. März, H. Neugebauer, J. Pisarek,
   P. Pracht, P. Shushkov, and S. Spicher.
   
 * started run on 2020/04/08 at 23:04:01.440     

           -------------------------------------------------
          |                Calculation Setup                |
           -------------------------------------------------

          program call               : /home/tom/.local/bin/xtb SN2_PES_scan_2-2_xtb.xyz --chrg -1 --opt --input xcontrol_SN2_PES_scan_2-2
          coordinate file            : SN2_PES_scan_2-2_xtb.xyz
          omp threads                :                     1
          number of atoms            :                     6
          number of electrons        :                    22
          charge                     :                    -1
          spin                       :                   0.0
          first test random number   :      0.50606322335795

constraining bond 1 3 to    3.0000000 Å, actual value:    3.4999712 Å
constraining bond 2 3 to    2.6680000 Å, actual value:    2.2231376 Å

molecular fragmentation (1/2 indicates fragments):
122222
# atoms in fragment 1/2:     1     5
 fragment masses (1/2) :       19.00       50.49
CMA distance (Bohr)    :   9.541
constraining FC (au)   : 10.0000
########################################################################
[WARNING] Please study the warnings concerning your input carefully
-2- prog_main: XTBPATH is not set, using XTBHOME instead
-1- prog_main: XTBHOME is not set, using HOME instead
########################################################################
           ------------------------------------------------- 
          |                 G F N 2 - x T B                 |
          | Geometry, Frequencies, Noncovalent interactions |
          |            JCTC 2019 parametrisation            |
           ------------------------------------------------- 
             k(s)              :                1.8500
             k(p)              :                2.2300
             k(d)              :                2.2300
             k(f)              :                2.0000
             kEN (H0ij)        :               -2.0000
             D4 a1             :                0.5200
             D4 a2             :                5.0000
             D4 s6             :                1.0000
             D4 s8             :                2.7000
             D4 s9             :                5.0000
             alphaj            :                2.0000

  Z AO/shell   Hii/eV     exponent
  1     Wed Apr 25 08:07:45 CEST 2018   EN: 2.200 GM2: 0.406  GM3: 0.0800  RAES: 1.40
     1s    -10.707211    1.230000
  6     Wed Apr 25 08:07:45 CEST 2018   EN: 2.550 GM2: 0.538  GM3: 0.1500  RAES: 3.00
     2s    -13.970922    2.096432
     2p    -10.063292    1.800000
  9     Mon Apr 23 13:58:50 CEST 2018   EN: 3.980 GM2: 0.532  GM3: 0.1426  RAES: 2.40
     2s    -23.458179    2.416361
     2p    -15.746583    2.308399
 17     Mon Apr 23 14:09:22 CEST 2018   EN: 3.160 GM2: 0.249  GM3: 0.1495  RAES: 2.50
     3s    -29.278781    2.485265
     3p    -12.673758    2.199650
     3d     -0.240338    2.476089

           ------------------------------------------------- 
          |        Self-Consistent Charge Iterations        |
           ------------------------------------------------- 

          ...................................................
          :                      SETUP                      :
          :.................................................:
          :  # basis functions                  21          :
          :  # atomic orbitals                  20          :
          :  # shells                           10          :
          :  # electrons                        22          :
          :  max. iterations                   250          :
          :  Hamiltonian                  GFN2-xTB          :
          :  restarted?                      false          :
          :  GBSA solvation                  false          :
          :  PC potential                    false          :
          :  electronic temp.          300.0000000     K    :
          :  accuracy                    1.0000000          :
          :  -> integral cutoff          0.2500000E+02      :
          :  -> integral neglect         0.1000000E-07      :
          :  -> SCF convergence          0.1000000E-05 Eh   :
          :  -> wf. convergence          0.1000000E-03 e    :
          :  Broyden damping             0.4000000          :
          ...................................................

 iter      E             dE          RMSdq      gap      omega  full diag
   1    -13.0253858 -0.130254E+02  0.726E+00    2.23       0.0  T
   2    -12.0386772  0.986709E+00  0.954E+00    0.00       1.0  T
   3    -13.1321800 -0.109350E+01  0.366E+00    3.55       1.0  T
   4    -13.1423361 -0.101561E-01  0.284E+00    3.09       1.0  T
   5    -13.1518584 -0.952225E-02  0.145E+00    0.39       1.0  T
   6    -12.0970313  0.105483E+01  0.926E+00    0.00       1.0  T
   7    -13.1496334 -0.105260E+01  0.159E+00    0.62       1.0  T
   8    -13.1550099 -0.537651E-02  0.132E+00    0.29       1.0  T
   9    -13.1696229 -0.146130E-01  0.683E-01    0.18       1.0  T
  10    -12.8323749  0.337248E+00  0.520E+00    0.04       1.0  T
  11    -13.1749865 -0.342612E+00  0.174E-01    0.14       1.0  T
  12    -13.1744440  0.542593E-03  0.299E-01    0.13       1.0  T
  13    -13.1680350  0.640895E-02  0.773E-01    0.19       1.0  T
  14    -13.1731974 -0.516238E-02  0.408E-01    0.16       1.0  T
  15    -13.1737963 -0.598942E-03  0.336E-01    0.16       1.0  T
  16    -13.1625585  0.112378E-01  0.102E+00    0.11       1.0  T
  17    -13.1738029 -0.112444E-01  0.330E-01    0.16       1.0  T
  18    -13.1713332  0.246974E-02  0.560E-01    0.12       1.0  T
  19    -13.1750788 -0.374568E-02  0.335E-02    0.14       1.2  T
  20    -13.1744653  0.613545E-03  0.229E-01    0.13       1.0  T
  21    -13.1748892 -0.423943E-03  0.130E-01    0.14       1.0  T
  22    -13.1749075 -0.182559E-04  0.124E-01    0.14       1.0  T
  23    -13.1750896 -0.182111E-03  0.147E-02    0.14       2.8  T
  24    -13.1750914 -0.175653E-05  0.757E-03    0.14       5.4  T
  25    -13.1750819  0.943058E-05  0.291E-02    0.14       1.4  T
  26    -13.1750904 -0.845982E-05  0.115E-02    0.14       3.5  T
  27    -13.1750920 -0.158334E-05  0.657E-04    0.14      62.1  T
  28    -13.1750920  0.813448E-08  0.105E-03    0.14      38.8  T
  29    -13.1750920 -0.127271E-07  0.205E-04    0.14     198.9  T
  30    -13.1750920 -0.458021E-09  0.524E-05    0.14     779.7  T

   *** convergence criteria satisfied after 30 iterations ***

         #    Occupation            Energy/Eh            Energy/eV
      -------------------------------------------------------------
         1        2.0000           -0.8971642             -24.4131
       ...           ...                  ...                  ...
         5        2.0000           -0.3558547              -9.6833
         6        2.0000           -0.3095401              -8.4230
         7        2.0000           -0.2697454              -7.3401
         8        2.0000           -0.2697449              -7.3401
         9        1.9394           -0.1521402              -4.1399
        10        1.9275           -0.1519649              -4.1352
        11        1.9275           -0.1519646              -4.1352 (HOMO)
        12        0.2057           -0.1467903              -3.9944 (LUMO)
        13                          0.1947457               5.2993
        14                          0.1947470               5.2993
        15                          0.1958605               5.3296
        16                          0.1958611               5.3297
       ...                                ...                  ...
        20                          0.3937874              10.7155
      -------------------------------------------------------------
                  HL-Gap            0.0051743 Eh            0.1408 eV
             Fermi-level           -0.1488483 Eh           -4.0504 eV

 SCC (total)                   0 d,  0 h,  0 min,  0.004 sec
 SCC setup                      ...        0 min,  0.000 sec (  1.453%)
 Dispersion                     ...        0 min,  0.000 sec (  0.289%)
 integral evaluation            ...        0 min,  0.001 sec ( 16.671%)
 zeroth order Hamiltonian       ...        0 min,  0.000 sec (  0.358%)
 iterations                     ...        0 min,  0.003 sec ( 63.425%)
 molecular gradient             ...        0 min,  0.001 sec ( 15.399%)
 printout                       ...        0 min,  0.000 sec (  1.790%)

         :::::::::::::::::::::::::::::::::::::::::::::::::::::
         ::                     SUMMARY                     ::
         :::::::::::::::::::::::::::::::::::::::::::::::::::::
         :: total energy               2.876829779650 Eh    ::
         :: gradient norm             43.721794803490 Eh/a0 ::
         :: HOMO-LUMO gap              0.140799933180 eV    ::
         ::.................................................::
         :: SCC energy               -13.175091971735 Eh    ::
         :: -> isotropic ES            0.191260403796 Eh    ::
         :: -> anisotropic ES          0.001023044470 Eh    ::
         :: -> anisotropic XC          0.005069167441 Eh    ::
         :: -> dispersion             -0.001777277702 Eh    ::
         :: repulsion energy           0.058067171577 Eh    ::
         :: add. restraining          15.993856620378 Eh    ::
         :::::::::::::::::::::::::::::::::::::::::::::::::::::

      ----------------------------------------------------------- 
     |                   =====================                   |
     |                        A N C O P T                        |
     |                   =====================                   |
     |               Approximate Normal Coordinate               |
     |                Rational Function Optimizer                |
      ----------------------------------------------------------- 

          ...................................................
          :                      SETUP                      :
          :.................................................:
          :   optimization level            normal          :
          :   max. optcycles                   200          :
          :   ANC micro-cycles                  20          :
          :   degrees of freedom                12          :
          :.................................................:
          :   RF solver                   davidson          :
          :   write xtbopt.log                true          :
          :   linear?                        false          :
          :   energy convergence         0.5000000E-05 Eh   :
          :   grad. convergence          0.1000000E-02 Eh/α :
          :   maximium RF displ.         1.0000000          :
          :   Hlow (freq-cutoff)         0.1000000E-01      :
          :   Hmax (freq-cutoff)         5.0000000          :
          :   S6 in model hess.         20.0000000          :
          ...................................................

generating ANC from model Hessian ...
Using Lindh-Hessian (1995)
 Shifting diagonal of input Hessian by    3.69385957164260     
 Lowest  eigenvalues of input Hessian
    0.010000    0.010039   -0.000000   -0.000000   -0.000000    0.000000
    0.000000    0.000000    3.735003    3.820331    3.820335    4.084781
    4.084792    4.146371    5.114305    5.114354   23.729782   63.881723
 Highest eigenvalues
    4.084792    4.146371    5.114305    5.114354   23.729782   63.881723
 

........................................................................
.............................. CYCLE    1 ..............................
........................................................................
   1    -13.1750920 -0.131751E+02  0.170E-05    0.14       0.0  T
   2    -13.1750920  0.306539E-08  0.507E-04    0.14      80.5  T
   3    -13.1750920 -0.306884E-08  0.517E-07    0.14   79039.7  T
     SCC iter.                  ...        0 min,  0.000 sec
     gradient                   ...        0 min,  0.001 sec
 * total energy  :     2.8768298 Eh     change       -0.1347864E-08 Eh
   gradient norm :    43.7217936 Eh/α   predicted     0.0000000E+00 (-100.00%)
   displ. norm   :     0.9444538 α      lambda       -0.4129322E+02
   maximum displ.:     0.9438460 α      in ANC's #9, #12, #8, ...

........................................................................
.............................. CYCLE    2 ..............................
........................................................................
   1    -12.2877912 -0.122878E+02  0.102E+01    0.02       0.0  T
   2    -12.7504059 -0.462615E+00  0.956E+00    4.38       1.0  T
   3    -13.0174240 -0.267018E+00  0.531E+00    1.41       1.0  T
   4    -13.0845293 -0.671053E-01  0.332E+00    0.72       1.0  T
   5    -13.0382101  0.463192E-01  0.432E+00    1.40       1.0  T
   6    -12.2527235  0.785487E+00  0.104E+01    0.01       1.0  T
   7    -12.2822511 -0.295276E-01  0.984E+00    0.03       1.0  T
   8    -13.0678221 -0.785571E+00  0.346E+00    1.09       1.0  T
   9    -13.0840789 -0.162568E-01  0.272E+00    1.06       1.0  T
  10    -13.0939996 -0.992074E-02  0.238E+00    0.98       1.0  T
  11    -12.7384712  0.355528E+00  0.719E+00    0.12       1.0  T
  12    -12.2729584  0.465513E+00  0.971E+00    0.03       1.0  T
  13    -12.3330990 -0.601406E-01  0.938E+00    0.05       1.0  T
  14    -12.3343844 -0.128543E-02  0.937E+00    0.05       1.0  T
  15    -13.0807456 -0.746361E+00  0.317E+00    0.95       1.0  T
  16    -13.1047229 -0.239773E-01  0.199E+00    0.80       1.0  T
  17    -12.9711240  0.133599E+00  0.501E+00    0.17       1.0  T
  18    -13.1064127 -0.135289E+00  0.202E+00    0.80       1.0  T
  19    -12.4360319  0.670381E+00  0.898E+00    0.07       1.0  T
  20    -13.0821648 -0.646133E+00  0.283E+00    1.02       1.0  T
  21    -13.1193508 -0.371860E-01  0.148E+00    0.59       1.0  T
  22    -12.8221170  0.297234E+00  0.647E+00    0.14       1.0  T
  23    -13.1005046 -0.278388E+00  0.220E+00    0.90       1.0  T
  24    -12.9240353  0.176469E+00  0.548E+00    0.17       1.0  T
  25    -13.1202705 -0.196235E+00  0.148E+00    0.59       1.0  T
  26    -12.6245092  0.495761E+00  0.790E+00    0.11       1.0  T
  27    -13.0929016 -0.468392E+00  0.247E+00    1.01       1.0  T
  28    -13.1396654 -0.467638E-01  0.376E-01    0.39       1.0  T
  29    -12.8570256  0.282640E+00  0.607E+00    0.15       1.0  T
  30    -13.1166246 -0.259599E+00  0.166E+00    0.64       1.0  T
  31    -12.9336883  0.182936E+00  0.527E+00    0.17       1.0  T
  32    -13.1281108 -0.194423E+00  0.115E+00    0.52       1.0  T
  33    -12.8564544  0.271656E+00  0.604E+00    0.16       1.0  T
  34    -13.1183703 -0.261916E+00  0.162E+00    0.62       1.0  T
  35    -13.0464076  0.719627E-01  0.365E+00    0.22       1.0  T
  36    -13.1355774 -0.891698E-01  0.981E-01    0.32       1.0  T
  37    -12.8898039  0.245773E+00  0.565E+00    0.17       1.0  T
  38    -13.1255597 -0.235756E+00  0.134E+00    0.54       1.0  T
  39    -13.0727527  0.528069E-01  0.309E+00    0.23       1.0  T
  40    -13.1334724 -0.607197E-01  0.107E+00    0.31       1.0  T
  41    -13.0052921  0.128180E+00  0.421E+00    0.20       1.0  T
  42    -13.1397082 -0.134416E+00  0.265E-01    0.40       1.0  T
  43    -13.0658226  0.738857E-01  0.317E+00    0.23       1.0  T
  44    -13.1390441 -0.732215E-01  0.483E-01    0.34       1.0  T
  45    -13.0861161  0.529280E-01  0.270E+00    0.25       1.0  T
  46    -13.1375167 -0.514006E-01  0.653E-01    0.33       1.0  T
  47    -13.1120270  0.254897E-01  0.196E+00    0.27       1.0  T
  48    -13.1352352 -0.232082E-01  0.843E-01    0.32       1.0  T
  49    -13.1274611  0.777409E-02  0.132E+00    0.30       1.0  T
  50    -13.1357447 -0.828353E-02  0.786E-01    0.32       1.0  T
  51    -13.1354948  0.249917E-03  0.801E-01    0.32       1.0  T
  52    -13.1401136 -0.461883E-02  0.211E-01    0.39       1.0  T
  53    -13.1401306 -0.170550E-04  0.200E-01    0.39       1.0  T
  54    -13.1385490  0.158160E-02  0.525E-01    0.42       1.0  T
  55    -13.1388880 -0.338959E-03  0.462E-01    0.41       1.0  T
  56    -13.1401361 -0.124811E-02  0.169E-01    0.39       1.0  T
  57    -13.1403117 -0.175555E-03  0.408E-02    0.37       1.0  T
  58    -13.1403017  0.993464E-05  0.507E-02    0.37       1.0  T
  59    -13.1403197 -0.179363E-04  0.455E-02    0.38       1.0  T
  60    -13.1403077  0.119629E-04  0.621E-02    0.38       1.0  T
  61    -13.1403141 -0.636581E-05  0.499E-02    0.38       1.0  T
  62    -13.1403203 -0.625801E-05  0.350E-02    0.38       1.2  T
  63    -13.1403226 -0.226491E-05  0.262E-02    0.38       1.6  T
  64    -13.1403240 -0.139254E-05  0.172E-02    0.37       2.4  T
  65    -13.1403250 -0.995857E-06  0.644E-03    0.37       6.3  T
  66    -13.1403252 -0.195401E-06  0.627E-04    0.37      65.1  T
  67    -13.1403252 -0.249008E-08  0.272E-05    0.37    1502.4  T
     SCC iter.                  ...        0 min,  0.007 sec
     gradient                   ...        0 min,  0.001 sec
 * total energy  :   -11.6783670 Eh     change       -0.1455520E+02 Eh
   gradient norm :    12.9541924 Eh/α   predicted    -0.3906323E+02 ( 168.38%)
   displ. norm   :     0.2406958 α      lambda       -0.2780089E+01
   maximum displ.:     0.2071972 α      in ANC's #9, #12, #3, ...

........................................................................
.............................. CYCLE    3 ..............................
........................................................................
   1    -13.1240749 -0.131241E+02  0.221E+00    0.75       0.0  T
   2    -12.2252297  0.898845E+00  0.990E+00    0.03       1.0  T
   3    -13.1254911 -0.900261E+00  0.209E+00    0.53       1.0  T
   4    -13.1458166 -0.203255E-01  0.988E-01    0.42       1.0  T
   5    -13.1275000  0.183166E-01  0.208E+00    0.22       1.0  T
   6    -13.1114317  0.160683E-01  0.254E+00    0.20       1.0  T
   7    -13.0832974  0.281343E-01  0.313E+00    0.19       1.0  T
   8    -13.1491203 -0.658229E-01  0.871E-01    0.27       1.0  T
   9    -13.1552402 -0.611990E-02  0.310E-01    0.32       1.0  T
  10    -13.1550540  0.186248E-03  0.274E-01    0.33       1.0  T
  11    -13.1553293 -0.275321E-03  0.410E-02    0.31       1.0  T
  12    -13.1553272  0.206169E-05  0.303E-02    0.31       1.3  T
  13    -13.1553285 -0.130900E-05  0.102E-02    0.31       4.0  T
  14    -13.1553284  0.128114E-06  0.113E-02    0.31       3.6  T
  15    -13.1553289 -0.516014E-06  0.946E-03    0.31       4.3  T
  16    -13.1553294 -0.447879E-06  0.484E-03    0.31       8.4  T
  17    -13.1553295 -0.114577E-06  0.301E-03    0.31      13.5  T
     SCC iter.                  ...        0 min,  0.002 sec
     gradient                   ...        0 min,  0.001 sec
 * total energy  :   -13.0225145 Eh     change       -0.1344148E+01 Eh
   gradient norm :     1.6848526 Eh/α   predicted    -0.1470576E+01 (   9.41%)
   displ. norm   :     0.2664831 α      lambda       -0.4447933E+00
   maximum displ.:     0.2626160 α      in ANC's #12, #9, #8, ...

........................................................................
.............................. CYCLE    4 ..............................
........................................................................
   1    -12.9601624 -0.129602E+02  0.462E+00    0.12       0.0  T
   2    -12.9445307  0.156316E-01  0.687E+00    2.69       1.0  T
   3    -13.0931707 -0.148640E+00  0.349E+00    1.26       1.0  T
   4    -13.0905718  0.259893E-02  0.325E+00    1.35       1.0  T
   5    -13.0960107 -0.543887E-02  0.294E+00    1.30       1.0  T
   6    -12.2332185  0.862792E+00  0.975E+00    0.02       1.0  T
   7    -12.3027250 -0.695065E-01  0.924E+00    0.04       1.0  T
   8    -13.0955649 -0.792840E+00  0.293E+00    1.18       1.0  T
   9    -13.1123251 -0.167602E-01  0.228E+00    0.54       1.0  T
  10    -13.1173090 -0.498392E-02  0.212E+00    0.48       1.0  T
  11    -13.1083786  0.893037E-02  0.250E+00    0.64       1.0  T
  12    -13.1101707 -0.179209E-02  0.246E+00    0.60       1.0  T
  13    -13.1130433 -0.287260E-02  0.242E+00    0.55       1.0  T
  14    -13.1131861 -0.142764E-03  0.244E+00    0.54       1.0  T
  15    -13.1152809 -0.209477E-02  0.231E+00    0.51       1.0  T
  16    -13.1216348 -0.635391E-02  0.205E+00    0.44       1.0  T
  17    -13.1342718 -0.126370E-01  0.153E+00    0.34       1.0  T
  18    -13.1448631 -0.105913E-01  0.934E-01    0.29       1.0  T
  19    -13.1489474 -0.408428E-02  0.552E-01    0.26       1.0  T
  20    -13.1510619 -0.211449E-02  0.170E-01    0.24       1.0  T
  21    -13.1504297  0.632210E-03  0.315E-01    0.24       1.0  T
  22    -13.1485502  0.187952E-02  0.588E-01    0.21       1.0  T
  23    -13.1472305  0.131964E-02  0.694E-01    0.27       1.0  T
  24    -13.1436297  0.360081E-02  0.958E-01    0.19       1.0  T
  25    -13.1439503 -0.320554E-03  0.944E-01    0.29       1.0  T
  26    -13.1450617 -0.111144E-02  0.866E-01    0.20       1.0  T
  27    -13.1459453 -0.883622E-03  0.806E-01    0.28       1.0  T
  28    -13.1486129 -0.266759E-02  0.571E-01    0.21       1.0  T
  29    -13.1492251 -0.612217E-03  0.501E-01    0.26       1.0  T
  30    -13.1505271 -0.130202E-02  0.308E-01    0.22       1.0  T
  31    -13.1508404 -0.313276E-03  0.238E-01    0.24       1.0  T
  32    -13.1511668 -0.326429E-03  0.133E-01    0.22       1.0  T
  33    -13.1512485 -0.816740E-04  0.884E-02    0.23       1.0  T
  34    -13.1512963 -0.477859E-04  0.460E-02    0.23       1.0  T
  35    -13.1513080 -0.116815E-04  0.266E-02    0.23       1.5  T
  36    -13.1513127 -0.474208E-05  0.120E-02    0.23       3.4  T
  37    -13.1513138 -0.104517E-05  0.439E-03    0.23       9.3  T
  38    -13.1513139 -0.162020E-06  0.100E-04    0.23     406.6  T
     SCC iter.                  ...        0 min,  0.005 sec
     gradient                   ...        0 min,  0.001 sec
 * total energy  :   -12.7165340 Eh     change        0.3059805E+00 Eh
   gradient norm :     4.2615993 Eh/α   predicted    -0.2381897E+00 (-177.84%)
   displ. norm   :     0.1796073 α      lambda       -0.7213147E+00
   maximum displ.:     0.1759222 α      in ANC's #12, #9, #8, ...

........................................................................
.............................. CYCLE    5 ..............................
........................................................................
   1    -13.1447381 -0.131447E+02  0.110E+00    0.37       0.0  T
   2    -12.2441324  0.900606E+00  0.957E+00    0.03       1.0  T
   3    -13.1431729 -0.899041E+00  0.111E+00    0.38       1.0  T
   4    -13.1495062 -0.633324E-02  0.644E-01    0.33       1.0  T
   5    -13.1533073 -0.380110E-02  0.216E-01    0.28       1.0  T
   6    -13.1533202 -0.129299E-04  0.202E-01    0.28       1.0  T
   7    -13.1519759  0.134432E-02  0.776E-01    0.25       1.0  T
   8    -13.1521684 -0.192540E-03  0.440E-01    0.26       1.0  T
   9    -13.1533141 -0.114572E-02  0.824E-02    0.29       1.0  T
  10    -13.1533289 -0.147980E-04  0.447E-02    0.29       1.0  T
  11    -13.1533341 -0.520861E-05  0.114E-02    0.28       3.6  T
  12    -13.1533351 -0.966087E-06  0.384E-03    0.28      10.6  T
  13    -13.1533351  0.252327E-07  0.675E-03    0.28       6.0  T
  14    -13.1533352 -0.142253E-06  0.134E-03    0.28      30.4  T
     SCC iter.                  ...        0 min,  0.001 sec
     gradient                   ...        0 min,  0.001 sec
 * total energy  :   -13.0888639 Eh     change       -0.3723299E+00 Eh
   gradient norm :     0.1311714 Eh/α   predicted    -0.3722917E+00 (  -0.01%)
   displ. norm   :     0.0089304 α      lambda       -0.9100935E-03
   maximum displ.:     0.0063874 α      in ANC's #12, #1, #8, ...

........................................................................
.............................. CYCLE    6 ..............................
........................................................................
   1    -13.1530430 -0.131530E+02  0.119E-01    0.29       0.0  T
   2    -13.1093366  0.437064E-01  0.232E+00    0.20       1.0  T
   3    -13.1530916 -0.437551E-01  0.859E-02    0.29       1.0  T
   4    -13.1531363 -0.446383E-04  0.395E-02    0.29       1.0  T
   5    -13.1531474 -0.111495E-04  0.118E-02    0.29       3.4  T
   6    -13.1531468  0.567888E-06  0.163E-02    0.28       2.5  T
   7    -13.1531467  0.144450E-06  0.151E-02    0.28       2.7  T
   8    -13.1531483 -0.160025E-05  0.618E-03    0.28       6.6  T
   9    -13.1531486 -0.292628E-06  0.231E-03    0.28      17.6  T
  10    -13.1531486 -0.118715E-07  0.196E-03    0.29      20.8  T
     SCC iter.                  ...        0 min,  0.001 sec
     gradient                   ...        0 min,  0.001 sec
 * total energy  :   -13.0893582 Eh     change       -0.4942963E-03 Eh
   gradient norm :     0.0179643 Eh/α   predicted    -0.4550829E-03 (  -7.93%)
   displ. norm   :     0.0931722 α      lambda       -0.1844631E-03
   maximum displ.:     0.0929521 α      in ANC's #1, #8, #3, ...

........................................................................
.............................. CYCLE    7 ..............................
........................................................................
   1    -13.1524627 -0.131525E+02  0.156E-01    0.29       0.0  T
   2    -13.1455825  0.688020E-02  0.945E-01    0.24       1.0  T
   3    -13.1523602 -0.677770E-02  0.156E-01    0.29       1.0  T
   4    -13.1524842 -0.123963E-03  0.470E-02    0.29       1.0  T
   5    -13.1524824  0.180680E-05  0.393E-02    0.29       1.0  T
   6    -13.1524874 -0.509119E-05  0.290E-02    0.28       1.4  T
   7    -13.1524913 -0.389923E-05  0.173E-02    0.28       2.4  T
   8    -13.1524933 -0.199256E-05  0.559E-03    0.29       7.3  T
   9    -13.1524936 -0.223392E-06  0.547E-04    0.29      74.7  T
  10    -13.1524936  0.726768E-08  0.116E-03    0.29      35.3  T
     SCC iter.                  ...        0 min,  0.001 sec
     gradient                   ...        0 min,  0.001 sec
 * total energy  :   -13.0886343 Eh     change        0.7239017E-03 Eh
   gradient norm :     0.0459512 Eh/α   predicted    -0.9303793E-04 (-112.85%)
   displ. norm   :     0.0830163 α      lambda       -0.1640374E-02
   maximum displ.:     0.0825713 α      in ANC's #1, #2, #8, ...

........................................................................
.............................. CYCLE    8 ..............................
........................................................................
   1    -13.1523762 -0.131524E+02  0.156E-01    0.29       0.0  T
   2    -13.1321074  0.202687E-01  0.160E+00    0.22       1.0  T
   3    -13.1523743 -0.202669E-01  0.119E-01    0.29       1.0  T
   4    -13.1524346 -0.602434E-04  0.313E-02    0.29       1.3  T
   5    -13.1524387 -0.411234E-05  0.160E-02    0.28       2.5  T
   6    -13.1524332  0.546457E-05  0.298E-02    0.28       1.4  T
   7    -13.1524369 -0.371277E-05  0.197E-02    0.28       2.1  T
   8    -13.1524398 -0.288436E-05  0.310E-03    0.29      13.2  T
   9    -13.1524396  0.191218E-06  0.542E-03    0.29       7.5  T
     SCC iter.                  ...        0 min,  0.001 sec
     gradient                   ...        0 min,  0.001 sec
 * total energy  :   -13.0895275 Eh     change       -0.8932622E-03 Eh
   gradient norm :     0.0328649 Eh/α   predicted    -0.8258369E-03 (  -7.55%)
   displ. norm   :     0.1847909 α      lambda       -0.5353855E-03
   maximum displ.:     0.1815703 α      in ANC's #2, #1, #8, ...

........................................................................
.............................. CYCLE    9 ..............................
........................................................................
   1    -13.1505784 -0.131506E+02  0.335E-01    0.29       0.0  T
   2    -13.1487504  0.182805E-02  0.539E-01    0.26       1.0  T
   3    -13.1452372  0.351315E-02  0.873E-01    0.35       1.0  T
   4    -13.1501472 -0.491002E-02  0.263E-01    0.30       1.0  T
   5    -13.1504572 -0.309907E-03  0.143E-01    0.29       1.0  T
   6    -13.1501234  0.333746E-03  0.254E-01    0.27       1.0  T
   7    -13.1506068 -0.483364E-03  0.331E-02    0.29       1.2  T
   8    -13.1506149 -0.815778E-05  0.943E-03    0.29       4.3  T
   9    -13.1506156 -0.631578E-06  0.355E-03    0.28      11.5  T
  10    -13.1506156 -0.790193E-07  0.152E-03    0.28      26.8  T
     SCC iter.                  ...        0 min,  0.001 sec
     gradient                   ...        0 min,  0.001 sec
 * total energy  :   -13.0865502 Eh     change        0.2977306E-02 Eh
   gradient norm :     0.1256627 Eh/α   predicted    -0.2768227E-03 (-109.30%)
   displ. norm   :     0.1659041 α      lambda       -0.6428243E-02
   maximum displ.:     0.1648973 α      in ANC's #2, #1, #8, ...

........................................................................
.............................. CYCLE   10 ..............................
........................................................................
   1    -13.1513169 -0.131513E+02  0.340E-01    0.30       0.0  T
   2    -13.0573456  0.939713E-01  0.336E+00    0.17       1.0  T
   3    -13.1509723 -0.936267E-01  0.324E-01    0.30       1.0  T
   4    -13.1508609  0.111417E-03  0.290E-01    0.30       1.0  T
   5    -13.1514233 -0.562331E-03  0.115E-01    0.29       1.0  T
   6    -13.1515270 -0.103750E-03  0.253E-02    0.28       1.6  T
   7    -13.1513766  0.150437E-03  0.145E-01    0.28       1.0  T
   8    -13.1514241 -0.475245E-04  0.109E-01    0.28       1.0  T
   9    -13.1515152 -0.910955E-04  0.375E-02    0.28       1.1  T
  10    -13.1515268 -0.116450E-04  0.121E-02    0.28       3.4  T
  11    -13.1515260  0.860014E-06  0.158E-02    0.29       2.6  T
  12    -13.1515281 -0.214439E-05  0.318E-03    0.29      12.8  T
  13    -13.1515282 -0.599705E-07  0.191E-03    0.29      21.4  T
     SCC iter.                  ...        0 min,  0.001 sec
     gradient                   ...        0 min,  0.001 sec
 * total energy  :   -13.0897664 Eh     change       -0.3216172E-02 Eh
   gradient norm :     0.0307062 Eh/α   predicted    -0.3302582E-02 (   2.69%)
   displ. norm   :     0.0155777 α      lambda       -0.1980236E-03
   maximum displ.:     0.0104349 α      in ANC's #2, #8, #3, ...

........................................................................
.............................. CYCLE   11 ..............................
........................................................................
   1    -13.1508555 -0.131509E+02  0.105E-01    0.29       0.0  T
   2    -13.1215278  0.293277E-01  0.191E+00    0.21       1.0  T
   3    -13.1509009 -0.293731E-01  0.661E-02    0.29       1.0  T
   4    -13.1509320 -0.310942E-04  0.181E-02    0.29       2.3  T
   5    -13.1509336 -0.166208E-05  0.670E-03    0.29       6.1  T
   6    -13.1509284  0.523549E-05  0.266E-02    0.28       1.5  T
   7    -13.1509335 -0.510969E-05  0.489E-03    0.29       8.4  T
   8    -13.1509337 -0.187242E-06  0.138E-03    0.29      29.6  T
     SCC iter.                  ...        0 min,  0.001 sec
     gradient                   ...        0 min,  0.001 sec
 * total energy  :   -13.0899425 Eh     change       -0.1761040E-03 Eh
   gradient norm :     0.0209365 Eh/α   predicted    -0.9903495E-04 ( -43.76%)
   displ. norm   :     0.0852190 α      lambda       -0.1084953E-02
   maximum displ.:     0.0621306 α      in ANC's #8, #3, #2, ...

........................................................................
.............................. CYCLE   12 ..............................
........................................................................
   1    -13.1432834 -0.131433E+02  0.671E-01    0.33       0.0  T
   2    -12.2983335  0.844950E+00  0.923E+00    0.05       1.0  T
   3    -13.1413949 -0.843061E+00  0.799E-01    0.35       1.0  T
   4    -13.1422395 -0.844641E-03  0.708E-01    0.34       1.0  T
   5    -13.1450363 -0.279681E-02  0.387E-01    0.31       1.0  T
   6    -13.1464347 -0.139834E-02  0.134E-01    0.29       1.0  T
   7    -13.1463265  0.108191E-03  0.180E-01    0.29       1.0  T
   8    -13.1465604 -0.233877E-03  0.734E-02    0.28       1.0  T
   9    -13.1465641 -0.373596E-05  0.347E-02    0.29       1.2  T
  10    -13.1465607  0.339266E-05  0.184E-02    0.28       2.2  T
  11    -13.1465634 -0.269357E-05  0.112E-02    0.29       3.6  T
  12    -13.1465639 -0.498734E-06  0.678E-03    0.29       6.0  T
  13    -13.1465643 -0.432706E-06  0.118E-03    0.29      34.6  T
  14    -13.1465643 -0.176097E-09  0.610E-05    0.29     669.8  T
     SCC iter.                  ...        0 min,  0.001 sec
     gradient                   ...        0 min,  0.001 sec
 * total energy  :   -13.0906085 Eh     change       -0.6659749E-03 Eh
   gradient norm :     0.0185486 Eh/α   predicted    -0.5464101E-03 ( -17.95%)
   displ. norm   :     0.0365984 α      lambda       -0.2437136E-03
   maximum displ.:     0.0263361 α      in ANC's #3, #8, #2, ...

........................................................................
.............................. CYCLE   13 ..............................
........................................................................
   1    -13.1443807 -0.131444E+02  0.288E-01    0.30       0.0  T
   2    -12.7497695  0.394611E+00  0.657E+00    0.11       1.0  T
   3    -13.1441347 -0.394365E+00  0.331E-01    0.31       1.0  T
   4    -13.1442631 -0.128360E-03  0.300E-01    0.31       1.0  T
   5    -13.1448070 -0.543883E-03  0.144E-01    0.30       1.0  T
   6    -13.1449601 -0.153166E-03  0.648E-02    0.29       1.0  T
   7    -13.1448291  0.131011E-03  0.133E-01    0.29       1.0  T
   8    -13.1448189  0.101631E-04  0.137E-01    0.29       1.0  T
   9    -13.1450033 -0.184392E-03  0.155E-02    0.28       2.6  T
  10    -13.1450018  0.153769E-05  0.193E-02    0.28       2.1  T
  11    -13.1450053 -0.348745E-05  0.566E-03    0.29       7.2  T
  12    -13.1450051  0.167761E-06  0.718E-03    0.29       5.7  T
  13    -13.1450056 -0.465773E-06  0.107E-03    0.29      38.2  T
  14    -13.1450056 -0.112210E-07  0.940E-05    0.29     434.5  T
     SCC iter.                  ...        0 min,  0.001 sec
     gradient                   ...        0 min,  0.001 sec
 * total energy  :   -13.0907899 Eh     change       -0.1813688E-03 Eh
   gradient norm :     0.0196758 Eh/α   predicted    -0.1220205E-03 ( -32.72%)
   displ. norm   :     0.0422664 α      lambda       -0.2845706E-03
   maximum displ.:     0.0332210 α      in ANC's #3, #8, #2, ...

........................................................................
.............................. CYCLE   14 ..............................
........................................................................
   1    -13.1436554 -0.131437E+02  0.258E-01    0.30       0.0  T
   2    -12.8256527  0.318003E+00  0.594E+00    0.12       1.0  T
   3    -13.1437311 -0.318078E+00  0.232E-01    0.30       1.0  T
   4    -13.1439094 -0.178272E-03  0.171E-01    0.30       1.0  T
   5    -13.1441240 -0.214643E-03  0.606E-02    0.29       1.0  T
   6    -13.1441225  0.146407E-05  0.770E-02    0.28       1.0  T
   7    -13.1440831  0.394619E-04  0.843E-02    0.29       1.0  T
   8    -13.1441568 -0.737280E-04  0.176E-02    0.28       2.3  T
   9    -13.1441330  0.238579E-04  0.506E-02    0.28       1.0  T
  10    -13.1441576 -0.246012E-04  0.780E-03    0.28       5.2  T
  11    -13.1441578 -0.267824E-06  0.627E-03    0.28       6.5  T
  12    -13.1441580 -0.146477E-06  0.470E-03    0.29       8.7  T
  13    -13.1441582 -0.217180E-06  0.195E-04    0.29     208.9  T
  14    -13.1441582 -0.360529E-09  0.284E-05    0.29    1439.9  T
     SCC iter.                  ...        0 min,  0.001 sec
     gradient                   ...        0 min,  0.001 sec
 * total energy  :   -13.0910043 Eh     change       -0.2144297E-03 Eh
   gradient norm :     0.0225238 Eh/α   predicted    -0.1425386E-03 ( -33.53%)
   displ. norm   :     0.0528518 α      lambda       -0.3907293E-03
   maximum displ.:     0.0463404 α      in ANC's #3, #2, #8, ...

........................................................................
.............................. CYCLE   15 ..............................
........................................................................
   1    -13.1439556 -0.131440E+02  0.231E-01    0.30       0.0  T
   2    -12.8999477  0.244008E+00  0.524E+00    0.13       1.0  T
   3    -13.1442596 -0.244312E+00  0.119E-01    0.29       1.0  T
   4    -13.1443364 -0.768120E-04  0.588E-02    0.29       1.0  T
   5    -13.1443112  0.252027E-04  0.828E-02    0.28       1.0  T
   6    -13.1440087  0.302453E-03  0.211E-01    0.27       1.0  T
   7    -13.1440733 -0.646174E-04  0.175E-01    0.27       1.0  T
   8    -13.1443058 -0.232446E-03  0.718E-02    0.28       1.0  T
   9    -13.1443391 -0.333504E-04  0.415E-02    0.28       1.0  T
  10    -13.1443536 -0.144511E-04  0.158E-02    0.28       2.6  T
  11    -13.1443560 -0.245050E-05  0.967E-04    0.28      42.2  T
  12    -13.1443560  0.645115E-07  0.279E-03    0.28      14.6  T
     SCC iter.                  ...        0 min,  0.001 sec
     gradient                   ...        0 min,  0.001 sec
 * total energy  :   -13.0913063 Eh     change       -0.3020301E-03 Eh
   gradient norm :     0.0295439 Eh/α   predicted    -0.1959107E-03 ( -35.14%)
   displ. norm   :     0.0767042 α      lambda       -0.6296481E-03
   maximum displ.:     0.0736913 α      in ANC's #3, #2, #8, ...

........................................................................
.............................. CYCLE   16 ..............................
........................................................................
   1    -13.1456987 -0.131457E+02  0.231E-01    0.30       0.0  T
   2    -12.9539731  0.191726E+00  0.466E+00    0.14       1.0  T
   3    -13.1460220 -0.192049E+00  0.105E-01    0.28       1.0  T
   4    -13.1460099  0.120201E-04  0.969E-02    0.28       1.0  T
   5    -13.1455745  0.435429E-03  0.246E-01    0.27       1.0  T
   6    -13.1454287  0.145790E-03  0.273E-01    0.27       1.0  T
   7    -13.1459819 -0.553136E-03  0.815E-02    0.28       1.0  T
   8    -13.1460136 -0.317367E-04  0.580E-02    0.28       1.0  T
   9    -13.1460400 -0.263824E-04  0.253E-02    0.28       1.6  T
  10    -13.1460463 -0.631173E-05  0.204E-03    0.28      20.0  T
  11    -13.1460463 -0.798564E-08  0.184E-03    0.28      22.2  T
  12    -13.1460462  0.134813E-06  0.422E-03    0.28       9.7  T
     SCC iter.                  ...        0 min,  0.001 sec
     gradient                   ...        0 min,  0.001 sec
 * total energy  :   -13.0917798 Eh     change       -0.4735040E-03 Eh
   gradient norm :     0.0352215 Eh/α   predicted    -0.3166735E-03 ( -33.12%)
   displ. norm   :     0.0862586 α      lambda       -0.7278405E-03
   maximum displ.:     0.0862496 α      in ANC's #3, #8, #6, ...

........................................................................
.............................. CYCLE   17 ..............................
........................................................................
   1    -13.1490082 -0.131490E+02  0.191E-01    0.29       0.0  T
   2    -13.1254302  0.235781E-01  0.169E+00    0.21       1.0  T
   3    -13.1490742 -0.236441E-01  0.145E-01    0.28       1.0  T
   4    -13.1490656  0.861439E-05  0.112E-01    0.28       1.0  T
   5    -13.1490193  0.463194E-04  0.116E-01    0.28       1.0  T
   6    -13.1491234 -0.104038E-03  0.217E-02    0.28       1.9  T
   7    -13.1491274 -0.403175E-05  0.441E-03    0.28       9.3  T
   8    -13.1491267  0.664690E-06  0.100E-02    0.28       4.1  T
   9    -13.1491275 -0.805043E-06  0.273E-03    0.28      15.0  T
     SCC iter.                  ...        0 min,  0.001 sec
     gradient                   ...        0 min,  0.001 sec
 * total energy  :   -13.0922936 Eh     change       -0.5137642E-03 Eh
   gradient norm :     0.0252330 Eh/α   predicted    -0.3666305E-03 ( -28.64%)
   displ. norm   :     0.0555846 α      lambda       -0.3946475E-03
   maximum displ.:     0.0511123 α      in ANC's #3, #2, #8, ...

........................................................................
.............................. CYCLE   18 ..............................
........................................................................
   1    -13.1517334 -0.131517E+02  0.137E-01    0.28       0.0  T
   2    -13.1496821  0.205124E-02  0.536E-01    0.32       1.0  T
   3    -13.1481116  0.157055E-02  0.673E-01    0.25       1.0  T
   4    -13.1517708 -0.365924E-02  0.404E-02    0.28       1.0  T
   5    -13.1517500  0.207936E-04  0.542E-02    0.28       1.0  T
   6    -13.1517719 -0.218581E-04  0.795E-03    0.28       5.1  T
   7    -13.1517722 -0.278054E-06  0.471E-03    0.28       8.7  T
   8    -13.1517723 -0.145281E-06  0.209E-03    0.28      19.5  T
     SCC iter.                  ...        0 min,  0.001 sec
     gradient                   ...        0 min,  0.001 sec
 * total energy  :   -13.0925391 Eh     change       -0.2454840E-03 Eh
   gradient norm :     0.0092314 Eh/α   predicted    -0.1979324E-03 ( -19.37%)
   displ. norm   :     0.0166351 α      lambda       -0.5778385E-04
   maximum displ.:     0.0146228 α      in ANC's #2, #3, #8, ...

........................................................................
.............................. CYCLE   19 ..............................
........................................................................
   1    -13.1523779 -0.131524E+02  0.407E-02    0.28       0.0  T
   2    -13.1517101  0.667748E-03  0.296E-01    0.30       1.0  T
   3    -13.1523506 -0.640426E-03  0.652E-02    0.28       1.0  T
   4    -13.1523803 -0.297336E-04  0.211E-02    0.28       1.9  T
   5    -13.1523825 -0.220098E-05  0.492E-03    0.28       8.3  T
   6    -13.1523826 -0.142137E-06  0.102E-03    0.28      40.0  T
   7    -13.1523826 -0.148489E-08  0.411E-04    0.28      99.3  T
     SCC iter.                  ...        0 min,  0.002 sec
     gradient                   ...        0 min,  0.001 sec
 * total energy  :   -13.0925724 Eh     change       -0.3337203E-04 Eh
   gradient norm :     0.0029146 Eh/α   predicted    -0.2890090E-04 ( -13.40%)
   displ. norm   :     0.0051263 α      lambda       -0.3758370E-05
   maximum displ.:     0.0036150 α      in ANC's #2, #3, #8, ...

........................................................................
.............................. CYCLE   20 ..............................
........................................................................
   1    -13.1523414 -0.131523E+02  0.953E-03    0.28       0.0  T
   2    -13.1523363  0.510794E-05  0.260E-02    0.28       1.6  T
   3    -13.1523369 -0.561378E-06  0.253E-02    0.28       1.6  T
   4    -13.1523415 -0.464283E-05  0.415E-03    0.28       9.8  T
   5    -13.1523415 -0.693248E-08  0.131E-03    0.28      31.1  T
   6    -13.1523415 -0.982492E-08  0.189E-04    0.28     216.2  T
   7    -13.1523415 -0.403464E-10  0.140E-04    0.28     291.4  T
     SCC iter.                  ...        0 min,  0.001 sec
     gradient                   ...        0 min,  0.001 sec
 * total energy  :   -13.0925746 Eh     change       -0.2174260E-05 Eh
   gradient norm :     0.0006507 Eh/α   predicted    -0.1877634E-05 ( -13.64%)
   displ. norm   :     0.0028519 α      lambda       -0.2101747E-06
   maximum displ.:     0.0027948 α      in ANC's #3, #2, #8, ...

   *** GEOMETRY OPTIMIZATION CONVERGED AFTER 20 ITERATIONS ***

------------------------------------------------------------------------
 total energy gain   :       -15.9694044 Eh   -10020.9526 kcal/mol
 total RMSD          :         0.3483011 a0        0.1843 Å
 total power (kW/mol):     -2096.3832750 (step)********** (real)
------------------------------------------------------------------------

 ANCopt (total)                0 d,  0 h,  0 min,  0.061 sec
 optimizer setup                ...        0 min,  0.000 sec (  0.125%)
 model hessian                  ...        0 min,  0.000 sec (  0.154%)
 ANC generation                 ...        0 min,  0.000 sec (  0.161%)
 coordinate transformation      ...        0 min,  0.000 sec (  0.186%)
 single point calculation       ...        0 min,  0.058 sec ( 95.612%)
 optimization log               ...        0 min,  0.001 sec (  1.090%)
 hessian update                 ...        0 min,  0.000 sec (  0.201%)
 rational function              ...        0 min,  0.001 sec (  1.371%)

================
 final structure:
================
6
 xtb: 6.2.3 (830e466)
F        -3.58941821030998   -0.20977235274510    0.06831788952685
Cl        2.06697747745533    0.12180224936377   -0.03149748046168
C        -0.59535142724808   -0.03454393752916    0.00956814120091
H        -0.65488554386030   -0.61981366256404   -0.88175544130955
H        -0.63176790781995   -0.52016769991765    0.95986138798643
H        -0.73848438821705    1.02244540339218   -0.04578449694295
 
 Bond Distances (Angstroems)
 ---------------------------
C3-H4=1.0680         C3-H5=1.0678         C3-H6=1.0681         H4-C3=1.0680         H5-C3=1.0678         H6-C3=1.0681         
 C  H  Rav=1.0679 sigma=0.0001  Rmin=1.0678  Rmax=1.0681     3
 
 selected bond angles (degree)
 --------------------
H5-C3-H4=119.45                H6-C3-H4=119.45                H6-C3-H5=119.45                
 
 selected dihedral angles (degree)
 ---------------------------------

 
 CMA Distance (Angstroems)
 ---------------------------
R(CMA):  4.8679
           -------------------------------------------------
          |                Final Singlepoint                |
           -------------------------------------------------

          ...................................................
          :                      SETUP                      :
          :.................................................:
          :  # basis functions                  21          :
          :  # atomic orbitals                  20          :
          :  # shells                           10          :
          :  # electrons                        22          :
          :  max. iterations                   250          :
          :  Hamiltonian                  GFN2-xTB          :
          :  restarted?                      false          :
          :  GBSA solvation                  false          :
          :  PC potential                    false          :
          :  electronic temp.          300.0000000     K    :
          :  accuracy                    1.0000000          :
          :  -> integral cutoff          0.2500000E+02      :
          :  -> integral neglect         0.1000000E-07      :
          :  -> SCF convergence          0.1000000E-05 Eh   :
          :  -> wf. convergence          0.1000000E-03 e    :
          :  Broyden damping             0.4000000          :
          ...................................................

 iter      E             dE          RMSdq      gap      omega  full diag
   1    -13.1523415 -0.131523E+02  0.102E-04    0.28       0.0  T
   2    -13.1523415  0.101426E-07  0.115E-03    0.28      35.6  T
   3    -13.1523415 -0.963472E-08  0.282E-04    0.28     144.8  T
   4    -13.1523415 -0.457892E-09  0.138E-04    0.28     296.6  T

   *** convergence criteria satisfied after 4 iterations ***

         #    Occupation            Energy/Eh            Energy/eV
      -------------------------------------------------------------
         1        2.0000           -0.8661943             -23.5703
       ...           ...                  ...                  ...
         5        2.0000           -0.3556742              -9.6784
         6        2.0000           -0.2627032              -7.1485
         7        2.0000           -0.2446959              -6.6585
         8        2.0000           -0.2446956              -6.6585
         9        1.9984           -0.2020223              -5.4973
        10        1.9944           -0.2008345              -5.4650
        11        1.9944           -0.2008341              -5.4650 (HOMO)
        12        0.0128           -0.1904628              -5.1828 (LUMO)
        13                          0.2358442               6.4176
        14                          0.2358444               6.4177
        15                          0.2370010               6.4491
        16                          0.2370305               6.4499
       ...                                ...                  ...
        20                          0.4160737              11.3219
      -------------------------------------------------------------
                  HL-Gap            0.0103713 Eh            0.2822 eV
             Fermi-level           -0.1952539 Eh           -5.3131 eV

 SCC (total)                   0 d,  0 h,  0 min,  0.004 sec
 SCC setup                      ...        0 min,  0.000 sec (  1.747%)
 Dispersion                     ...        0 min,  0.000 sec (  0.273%)
 integral evaluation            ...        0 min,  0.001 sec ( 17.653%)
 zeroth order Hamiltonian       ...        0 min,  0.000 sec (  0.546%)
 iterations                     ...        0 min,  0.001 sec ( 39.605%)
 molecular gradient             ...        0 min,  0.001 sec ( 33.916%)
 printout                       ...        0 min,  0.000 sec (  4.709%)

         :::::::::::::::::::::::::::::::::::::::::::::::::::::
         ::                     SUMMARY                     ::
         :::::::::::::::::::::::::::::::::::::::::::::::::::::
         :: total energy             -13.092574614233 Eh    ::
         :: gradient norm              0.000649576665 Eh/a0 ::
         :: HOMO-LUMO gap              0.282216468434 eV    ::
         ::.................................................::
         :: SCC energy               -13.152341547076 Eh    ::
         :: -> isotropic ES            0.172488282010 Eh    ::
         :: -> anisotropic ES          0.000668392394 Eh    ::
         :: -> anisotropic XC          0.005392352533 Eh    ::
         :: -> dispersion             -0.001818274894 Eh    ::
         :: repulsion energy           0.059745953332 Eh    ::
         :: add. restraining           0.000023037001 Eh    ::
         :::::::::::::::::::::::::::::::::::::::::::::::::::::

           -------------------------------------------------
          |                Property Printout                |
           -------------------------------------------------

    * Orbital Energies and Occupations

         #    Occupation            Energy/Eh            Energy/eV
      -------------------------------------------------------------
         1        2.0000           -0.8661943             -23.5703
         2        2.0000           -0.4841592             -13.1746
         3        2.0000           -0.4522012             -12.3050
         4        2.0000           -0.3557120              -9.6794
         5        2.0000           -0.3556742              -9.6784
         6        2.0000           -0.2627032              -7.1485
         7        2.0000           -0.2446959              -6.6585
         8        2.0000           -0.2446956              -6.6585
         9        1.9984           -0.2020223              -5.4973
        10        1.9944           -0.2008345              -5.4650
        11        1.9944           -0.2008341              -5.4650 (HOMO)
        12        0.0128           -0.1904628              -5.1828 (LUMO)
        13                          0.2358442               6.4176
        14                          0.2358444               6.4177
        15                          0.2370010               6.4491
        16                          0.2370305               6.4499
        17                          0.2370305               6.4499
        18                          0.2552329               6.9452
        19                          0.4157593              11.3134
        20                          0.4160737              11.3219
      -------------------------------------------------------------
                  HL-Gap            0.0103713 Eh            0.2822 eV
             Fermi-level           -0.1952539 Eh           -5.3131 eV

     #   Z        covCN         q      C6AA      α(0)
     1   9 F      0.000    -0.619    17.117     4.819
     2  17 Cl     0.050    -0.595   111.539    16.073
     3   6 C      2.830    -0.046    29.142     8.846
     4   1 H      0.927     0.086     1.913     2.163
     5   1 H      0.927     0.087     1.910     2.161
     6   1 H      0.927     0.087     1.912     2.162

 Mol. C6AA /au·bohr⁶  :        580.928731
 Mol. C8AA /au·bohr⁸  :      16430.157659
 Mol. α(0) /au        :         36.224874


Wiberg/Mayer (AO) data.
largest (>0.10) Wiberg bond orders for each atom
          total WBO             WBO to atom ...
     1  F   0.446        C    3 0.446
     2  Cl  0.492        C    3 0.492
     3  C   3.911        H    4 0.991    H    6 0.991    H    5 0.991    Cl   2 0.492    F    1 0.446
     4  H   0.993        C    3 0.991
     5  H   0.992        C    3 0.991
     6  H   0.992        C    3 0.991

molecular dipole:
                 x           y           z       tot (Debye)
 q only:        1.594       0.092      -0.039
   full:        1.632       0.094      -0.040       4.156
molecular quadrupole (traceless):
                xx          xy          yy          xz          yz          zz
 q only:      -37.628      -3.312      18.726       1.023       0.059      18.902
  q+dip:      -37.838      -3.331      18.831       1.030       0.060      19.007
   full:      -36.903      -3.248      18.366       1.007       0.058      18.537

           -------------------------------------------------
          |                Geometry Summary                 |
           -------------------------------------------------

      molecular mass/u    :       69.4858989
   center of mass at/Å    :       -0.0590712      -0.0028849       0.0047312
  moments of inertia/u·Å² :        0.3429836E+01   0.4048540E+03   0.4048543E+03
rotational constants/cm⁻¹ :        0.4914996E+01   0.4163879E-01   0.4163876E-01

 * 3 selected distances

     #   Z        #   Z                                     value/Å
     3   6 C      4   1 H                                 1.0679619
     3   6 C      5   1 H                                 1.0678080 (min)
     3   6 C      6   1 H                                 1.0680718 (max)

 * 1 distinct bonds (by element types)

   Z      Z             #   av. dist./Å        max./Å        min./Å
   1 H    6 C           3     1.0679472     1.0680718     1.0678080


optimized geometry written to: xtbopt.xyz


           -------------------------------------------------
          | TOTAL ENERGY              -13.092574614233 Eh   |
          | GRADIENT NORM               0.000649576665 Eh/α |
          | HOMO-LUMO GAP               0.282216468434 eV   |
           -------------------------------------------------

------------------------------------------------------------------------
 * finished run on 2020/04/08 at 23:04:01.518     
------------------------------------------------------------------------
 total:
 * wall-time:     0 d,  0 h,  0 min,  0.078 sec
 *  cpu-time:     0 d,  0 h,  0 min,  0.077 sec
 * ratio c/w:     0.997 speedup
 SCF:
 * wall-time:     0 d,  0 h,  0 min,  0.005 sec
 *  cpu-time:     0 d,  0 h,  0 min,  0.004 sec
 * ratio c/w:     0.975 speedup
 ANC optimizer:
 * wall-time:     0 d,  0 h,  0 min,  0.065 sec
 *  cpu-time:     0 d,  0 h,  0 min,  0.065 sec
 * ratio c/w:     0.999 speedup

