      -----------------------------------------------------------      
     |                   =====================                   |     
     |                           x T B                           |     
     |                   =====================                   |     
     |                         S. Grimme                         |     
     |          Mulliken Center for Theoretical Chemistry        |     
     |                    University of Bonn                     |     
      -----------------------------------------------------------      

   * xtb version 6.2.3 (830e466) compiled by 'ehlert@majestix' on 2020-03-16

   xtb is free software: you can redistribute it and/or modify it under
   the terms of the GNU Lesser General Public License as published by
   the Free Software Foundation, either version 3 of the License, or
   (at your option) any later version.
   
   xtb is distributed in the hope that it will be useful,
   but WITHOUT ANY WARRANTY; without even the implied warranty of
   MERCHANTABILITY or FITNESS FOR A PARTICULAR PURPOSE.  See the
   GNU Lesser General Public License for more details.
   
   Cite this work as:
   * S. Grimme, C. Bannwarth, P. Shushkov, J. Chem. Theory Comput., 2017,
     13, 1989-2009. DOI: 10.1021/acs.jctc.7b00118
   * C. Bannwarth, S. Ehlert and S. Grimme., J. Chem. Theory Comput., 2019,
     15, 1652-1671. DOI: 10.1021/acs.jctc.8b01176
   * P. Pracht, E. Caldeweyher, S. Ehlert, S. Grimme, ChemRxiv, 2019, preprint.
     DOI: 10.26434/chemrxiv.8326202.v1
   
   for DFT-D4:
   * E. Caldeweyher, C. Bannwarth and S. Grimme, J. Chem. Phys., 2017,
     147, 034112. DOI: 10.1063/1.4993215
   * E. Caldeweyher, S. Ehlert, A. Hansen, H. Neugebauer, S. Spicher,
     C. Bannwarth and S. Grimme, J. Chem. Phys., 2019, 150, 154122.
     DOI: 10.1063/1.5090222
   
   for sTDA-xTB:
   * S. Grimme and C. Bannwarth, J. Chem. Phys., 2016, 145, 054103.
     DOI: 10.1063/1.4959605
   
   in the mass-spec context:
   * V. Asgeirsson, C. Bauer and S. Grimme, Chem. Sci., 2017, 8, 4879.
     DOI: 10.1039/c7sc00601b
   
   for metadynamics refer to:
   * S. Grimme, J. Chem. Theory Comput., 2019, 155, 2847-2862
     DOI: 10.1021/acs.jctc.9b00143
   
   with help from (in alphabetical order)
   C. Bannwarth, F. Bohle, G. Brandenburg, E. Caldeweyher, M. Checinski,
   S. Dohm, S. Ehlert, S. Ehrlich, F. März, H. Neugebauer, J. Pisarek,
   P. Pracht, P. Shushkov, and S. Spicher.
   
 * started run on 2020/04/08 at 23:04:52.787     

           -------------------------------------------------
          |                Calculation Setup                |
           -------------------------------------------------

          program call               : /home/tom/.local/bin/xtb SN2_PES_scan_8-3_xtb.xyz --chrg -1 --opt --input xcontrol_SN2_PES_scan_8-3
          coordinate file            : SN2_PES_scan_8-3_xtb.xyz
          omp threads                :                     1
          number of atoms            :                     6
          number of electrons        :                    22
          charge                     :                    -1
          spin                       :                   0.0
          first test random number   :      0.66037148429620

constraining bond 1 3 to    1.6050000 Å, actual value:    1.9042147 Å
constraining bond 2 3 to    2.6830000 Å, actual value:    2.3828380 Å

molecular fragmentation (1/2 indicates fragments):
122222
# atoms in fragment 1/2:     1     5
 fragment masses (1/2) :       19.00       50.49
CMA distance (Bohr)    :   6.767
constraining FC (au)   : 10.0000
########################################################################
[WARNING] Please study the warnings concerning your input carefully
-2- prog_main: XTBPATH is not set, using XTBHOME instead
-1- prog_main: XTBHOME is not set, using HOME instead
########################################################################
           ------------------------------------------------- 
          |                 G F N 2 - x T B                 |
          | Geometry, Frequencies, Noncovalent interactions |
          |            JCTC 2019 parametrisation            |
           ------------------------------------------------- 
             k(s)              :                1.8500
             k(p)              :                2.2300
             k(d)              :                2.2300
             k(f)              :                2.0000
             kEN (H0ij)        :               -2.0000
             D4 a1             :                0.5200
             D4 a2             :                5.0000
             D4 s6             :                1.0000
             D4 s8             :                2.7000
             D4 s9             :                5.0000
             alphaj            :                2.0000

  Z AO/shell   Hii/eV     exponent
  1     Wed Apr 25 08:07:45 CEST 2018   EN: 2.200 GM2: 0.406  GM3: 0.0800  RAES: 1.40
     1s    -10.707211    1.230000
  6     Wed Apr 25 08:07:45 CEST 2018   EN: 2.550 GM2: 0.538  GM3: 0.1500  RAES: 3.00
     2s    -13.970922    2.096432
     2p    -10.063292    1.800000
  9     Mon Apr 23 13:58:50 CEST 2018   EN: 3.980 GM2: 0.532  GM3: 0.1426  RAES: 2.40
     2s    -23.458179    2.416361
     2p    -15.746583    2.308399
 17     Mon Apr 23 14:09:22 CEST 2018   EN: 3.160 GM2: 0.249  GM3: 0.1495  RAES: 2.50
     3s    -29.278781    2.485265
     3p    -12.673758    2.199650
     3d     -0.240338    2.476089

           ------------------------------------------------- 
          |        Self-Consistent Charge Iterations        |
           ------------------------------------------------- 

          ...................................................
          :                      SETUP                      :
          :.................................................:
          :  # basis functions                  21          :
          :  # atomic orbitals                  20          :
          :  # shells                           10          :
          :  # electrons                        22          :
          :  max. iterations                   250          :
          :  Hamiltonian                  GFN2-xTB          :
          :  restarted?                      false          :
          :  GBSA solvation                  false          :
          :  PC potential                    false          :
          :  electronic temp.          300.0000000     K    :
          :  accuracy                    1.0000000          :
          :  -> integral cutoff          0.2500000E+02      :
          :  -> integral neglect         0.1000000E-07      :
          :  -> SCF convergence          0.1000000E-05 Eh   :
          :  -> wf. convergence          0.1000000E-03 e    :
          :  Broyden damping             0.4000000          :
          ...................................................

 iter      E             dE          RMSdq      gap      omega  full diag
   1    -13.1100543 -0.131101E+02  0.689E+00    5.07       0.0  T
   2    -13.1830519 -0.729977E-01  0.268E+00    2.96       1.0  T
   3    -13.2069080 -0.238561E-01  0.220E+00    3.78       1.0  T
   4    -13.2135024 -0.659447E-02  0.514E-01    3.36       1.0  T
   5    -13.2136591 -0.156609E-03  0.273E-01    3.57       1.0  T
   6    -13.2138918 -0.232743E-03  0.535E-02    3.48       1.0  T
   7    -13.2138916  0.247079E-06  0.172E-02    3.48       2.4  T
   8    -13.2138927 -0.113444E-05  0.725E-03    3.48       5.6  T
   9    -13.2138928 -0.100850E-06  0.392E-03    3.48      10.4  T
  10    -13.2138928 -0.526043E-07  0.155E-03    3.48      26.4  T
  11    -13.2138928 -0.397532E-08  0.167E-04    3.48     244.6  T
  12    -13.2138928 -0.475442E-10  0.984E-05    3.48     414.9  T

   *** convergence criteria satisfied after 12 iterations ***

         #    Occupation            Energy/Eh            Energy/eV
      -------------------------------------------------------------
         1        2.0000           -0.8331196             -22.6703
       ...           ...                  ...                  ...
         5        2.0000           -0.3349920              -9.1156
         6        2.0000           -0.2766536              -7.5281
         7        2.0000           -0.2320204              -6.3136
         8        2.0000           -0.2320182              -6.3135
         9        2.0000           -0.2160860              -5.8800
        10        2.0000           -0.2160839              -5.8799
        11        2.0000           -0.2144944              -5.8367 (HOMO)
        12                         -0.0864570              -2.3526 (LUMO)
        13                          0.2667503               7.2586
        14                          0.2769311               7.5357
        15                          0.2769327               7.5357
        16                          0.2777633               7.5583
       ...                                ...                  ...
        20                          0.4398525              11.9690
      -------------------------------------------------------------
                  HL-Gap            0.1280374 Eh            3.4841 eV
             Fermi-level           -0.1504757 Eh           -4.0947 eV

 SCC (total)                   0 d,  0 h,  0 min,  0.003 sec
 SCC setup                      ...        0 min,  0.000 sec (  2.289%)
 Dispersion                     ...        0 min,  0.000 sec (  0.490%)
 integral evaluation            ...        0 min,  0.001 sec ( 24.020%)
 zeroth order Hamiltonian       ...        0 min,  0.000 sec (  0.632%)
 iterations                     ...        0 min,  0.001 sec ( 41.762%)
 molecular gradient             ...        0 min,  0.001 sec ( 27.823%)
 printout                       ...        0 min,  0.000 sec (  2.271%)

         :::::::::::::::::::::::::::::::::::::::::::::::::::::
         ::                     SUMMARY                     ::
         :::::::::::::::::::::::::::::::::::::::::::::::::::::
         :: total energy              -6.739661612955 Eh    ::
         :: gradient norm             27.773678195528 Eh/a0 ::
         :: HOMO-LUMO gap              3.484075906689 eV    ::
         ::.................................................::
         :: SCC energy               -13.213892845581 Eh    ::
         :: -> isotropic ES            0.168680222023 Eh    ::
         :: -> anisotropic ES          0.000254329886 Eh    ::
         :: -> anisotropic XC          0.004618024911 Eh    ::
         :: -> dispersion             -0.001982538357 Eh    ::
         :: repulsion energy           0.059649627894 Eh    ::
         :: add. restraining           6.414581756868 Eh    ::
         :::::::::::::::::::::::::::::::::::::::::::::::::::::

      ----------------------------------------------------------- 
     |                   =====================                   |
     |                        A N C O P T                        |
     |                   =====================                   |
     |               Approximate Normal Coordinate               |
     |                Rational Function Optimizer                |
      ----------------------------------------------------------- 

          ...................................................
          :                      SETUP                      :
          :.................................................:
          :   optimization level            normal          :
          :   max. optcycles                   200          :
          :   ANC micro-cycles                  20          :
          :   degrees of freedom                12          :
          :.................................................:
          :   RF solver                   davidson          :
          :   write xtbopt.log                true          :
          :   linear?                        false          :
          :   energy convergence         0.5000000E-05 Eh   :
          :   grad. convergence          0.1000000E-02 Eh/α :
          :   maximium RF displ.         1.0000000          :
          :   Hlow (freq-cutoff)         0.1000000E-01      :
          :   Hmax (freq-cutoff)         5.0000000          :
          :   S6 in model hess.         20.0000000          :
          ...................................................

generating ANC from model Hessian ...
Using Lindh-Hessian (1995)
 Shifting diagonal of input Hessian by    1.15990941018825     
 Lowest  eigenvalues of input Hessian
    0.010000    0.012199   -0.000000   -0.000000    0.000000    0.000000
    0.000000    0.000000    1.182714    1.311063    1.311171    1.597927
    1.847516    1.847959    4.440265    4.442211   21.227560   61.406358
 Highest eigenvalues
    1.847516    1.847959    4.440265    4.442211   21.227560   61.406358
 

........................................................................
.............................. CYCLE    1 ..............................
........................................................................
   1    -13.2138928 -0.132139E+02  0.852E-06    3.48       0.0  T
   2    -13.2138928 -0.129674E-12  0.417E-06    3.48    9789.7  T
   3    -13.2138928 -0.603961E-13  0.220E-06    3.48   18596.3  T
     SCC iter.                  ...        0 min,  0.000 sec
     gradient                   ...        0 min,  0.001 sec
 * total energy  :    -6.7396616 Eh     change       -0.8318821E-09 Eh
   gradient norm :    27.7736747 Eh/α   predicted     0.0000000E+00 (-100.00%)
   displ. norm   :     0.9140299 α      lambda       -0.2538596E+02
   maximum displ.:     0.9140284 α      in ANC's #11, #12, #6, ...

........................................................................
.............................. CYCLE    2 ..............................
........................................................................
   1    -13.2023570 -0.132024E+02  0.304E+00   12.14       0.0  T
   2    -13.2211721 -0.188151E-01  0.155E+00   11.45       1.0  T
   3    -13.2235677 -0.239560E-02  0.834E-01   11.05       1.0  T
   4    -13.2237407 -0.172937E-03  0.342E-01   10.75       1.0  T
   5    -13.2237720 -0.313761E-04  0.664E-02   10.70       1.0  T
   6    -13.2237798 -0.778670E-05  0.302E-02   10.72       1.4  T
   7    -13.2237808 -0.970888E-06  0.106E-02   10.72       3.8  T
   8    -13.2237809 -0.706712E-07  0.744E-04   10.72      54.9  T
   9    -13.2237809 -0.179180E-08  0.328E-04   10.72     124.5  T
     SCC iter.                  ...        0 min,  0.001 sec
     gradient                   ...        0 min,  0.001 sec
 * total energy  :    -7.0613864 Eh     change       -0.3217248E+00 Eh
   gradient norm :    27.1855958 Eh/α   predicted    -0.2329734E+02 (7141.39%)
   displ. norm   :     0.3850936 α      lambda       -0.1046874E+02
   maximum displ.:     0.3850785 α      in ANC's #11, #6, #3, ...

........................................................................
.............................. CYCLE    3 ..............................
........................................................................
   1    -13.2236175 -0.132236E+02  0.115E+00    4.62       0.0  T
   2    -13.2260763 -0.245883E-02  0.637E-01    5.00       1.0  T
   3    -13.2264129 -0.336595E-03  0.327E-01    5.32       1.0  T
   4    -13.2264382 -0.253088E-04  0.130E-01    5.41       1.0  T
   5    -13.2264479 -0.967857E-05  0.323E-02    5.42       1.3  T
   6    -13.2264487 -0.873983E-06  0.157E-02    5.42       2.6  T
   7    -13.2264492 -0.496835E-06  0.747E-03    5.42       5.5  T
   8    -13.2264493 -0.111793E-06  0.636E-04    5.42      64.2  T
   9    -13.2264493 -0.262517E-09  0.292E-04    5.42     140.0  T
     SCC iter.                  ...        0 min,  0.001 sec
     gradient                   ...        0 min,  0.001 sec
 * total energy  :   -13.0464256 Eh     change       -0.5985039E+01 Eh
   gradient norm :     3.9400036 Eh/α   predicted    -0.6010612E+01 (   0.43%)
   displ. norm   :     0.0673420 α      lambda       -0.2570546E+00
   maximum displ.:     0.0650061 α      in ANC's #11, #6, #12, ...

........................................................................
.............................. CYCLE    4 ..............................
........................................................................
   1    -13.2269483 -0.132269E+02  0.188E-01    4.68       0.0  T
   2    -13.2270345 -0.861662E-04  0.109E-01    4.77       1.0  T
   3    -13.2270458 -0.112818E-04  0.594E-02    4.83       1.0  T
   4    -13.2270467 -0.887219E-06  0.234E-02    4.85       1.7  T
   5    -13.2270470 -0.346647E-06  0.323E-03    4.86      12.6  T
   6    -13.2270470 -0.295311E-08  0.375E-04    4.86     109.0  T
     SCC iter.                  ...        0 min,  0.000 sec
     gradient                   ...        0 min,  0.001 sec
 * total energy  :   -13.1750645 Eh     change       -0.1286389E+00 Eh
   gradient norm :     0.1912649 Eh/α   predicted    -0.1291102E+00 (   0.37%)
   displ. norm   :     0.0397524 α      lambda       -0.7255775E-02
   maximum displ.:     0.0370792 α      in ANC's #12, #6, #2, ...

........................................................................
.............................. CYCLE    5 ..............................
........................................................................
   1    -13.2273760 -0.132274E+02  0.656E-02    4.53       0.0  T
   2    -13.2273804 -0.447590E-05  0.398E-02    4.56       1.0  T
   3    -13.2273814 -0.910187E-06  0.157E-02    4.58       2.6  T
   4    -13.2273815 -0.143019E-06  0.688E-03    4.58       5.9  T
   5    -13.2273816 -0.576008E-07  0.512E-03    4.58       8.0  T
   6    -13.2273816 -0.454933E-07  0.139E-03    4.58      29.4  T
     SCC iter.                  ...        0 min,  0.000 sec
     gradient                   ...        0 min,  0.001 sec
 * total energy  :   -13.1683472 Eh     change        0.6717311E-02 Eh
   gradient norm :     0.5660431 Eh/α   predicted    -0.3633621E-02 (-154.09%)
   displ. norm   :     0.0292860 α      lambda       -0.1551811E-01
   maximum displ.:     0.0274896 α      in ANC's #12, #2, #6, ...

........................................................................
.............................. CYCLE    6 ..............................
........................................................................
   1    -13.2287574 -0.132288E+02  0.472E-02    4.81       0.0  T
   2    -13.2287590 -0.161201E-05  0.288E-02    4.80       1.4  T
   3    -13.2287594 -0.369075E-06  0.856E-03    4.78       4.8  T
   4    -13.2287594 -0.533271E-07  0.364E-03    4.78      11.2  T
   5    -13.2287594 -0.138739E-07  0.277E-03    4.78      14.7  T
     SCC iter.                  ...        0 min,  0.000 sec
     gradient                   ...        0 min,  0.001 sec
 * total energy  :   -13.1761914 Eh     change       -0.7844208E-02 Eh
   gradient norm :     0.0151943 Eh/α   predicted    -0.7765715E-02 (  -1.00%)
   displ. norm   :     0.0399455 α      lambda       -0.1471733E-03
   maximum displ.:     0.0371931 α      in ANC's #2, #1, #6, ...

........................................................................
.............................. CYCLE    7 ..............................
........................................................................
   1    -13.2299994 -0.132300E+02  0.550E-02    4.78       0.0  T
   2    -13.2299998 -0.332203E-06  0.337E-02    4.78       1.2  T
   3    -13.2299998 -0.282412E-07  0.527E-03    4.78       7.7  T
   4    -13.2299998 -0.449534E-07  0.183E-03    4.78      22.4  T
   5    -13.2299998 -0.302309E-08  0.600E-04    4.78      68.0  T
     SCC iter.                  ...        0 min,  0.000 sec
     gradient                   ...        0 min,  0.001 sec
 * total energy  :   -13.1762345 Eh     change       -0.4310867E-04 Eh
   gradient norm :     0.0144096 Eh/α   predicted    -0.7370256E-04 (  70.97%)
   displ. norm   :     0.0704584 α      lambda       -0.7035233E-03
   maximum displ.:     0.0462094 α      in ANC's #6, #2, #1, ...

........................................................................
.............................. CYCLE    8 ..............................
........................................................................
   1    -13.2365323 -0.132365E+02  0.942E-02    4.76       0.0  T
   2    -13.2365368 -0.454840E-05  0.518E-02    4.78       1.0  T
   3    -13.2365371 -0.294612E-06  0.240E-02    4.78       1.7  T
   4    -13.2365374 -0.303224E-06  0.565E-03    4.78       7.2  T
   5    -13.2365375 -0.348241E-07  0.315E-03    4.78      13.0  T
   6    -13.2365375 -0.184330E-07  0.984E-04    4.78      41.5  T
   7    -13.2365375 -0.156406E-08  0.246E-04    4.78     165.7  T
     SCC iter.                  ...        0 min,  0.000 sec
     gradient                   ...        0 min,  0.001 sec
 * total energy  :   -13.1763377 Eh     change       -0.1032036E-03 Eh
   gradient norm :     0.0300283 Eh/α   predicted    -0.3535118E-03 ( 242.54%)
   displ. norm   :     0.0953107 α      lambda       -0.3211183E-03
   maximum displ.:     0.0924252 α      in ANC's #1, #2, #6, ...

........................................................................
.............................. CYCLE    9 ..............................
........................................................................
   1    -13.2343346 -0.132343E+02  0.104E-01    4.78       0.0  T
   2    -13.2343360 -0.136031E-05  0.643E-02    4.78       1.0  T
   3    -13.2343362 -0.266966E-06  0.952E-03    4.78       4.3  T
   4    -13.2343364 -0.110810E-06  0.414E-03    4.78       9.9  T
   5    -13.2343364 -0.165764E-07  0.156E-03    4.78      26.1  T
     SCC iter.                  ...        0 min,  0.000 sec
     gradient                   ...        0 min,  0.001 sec
 * total energy  :   -13.1760662 Eh     change        0.2714543E-03 Eh
   gradient norm :     0.0251543 Eh/α   predicted    -0.1620198E-03 (-159.69%)
   displ. norm   :     0.1138063 α      lambda       -0.1096241E-02
   maximum displ.:     0.0893121 α      in ANC's #1, #2, #6, ...

........................................................................
.............................. CYCLE   10 ..............................
........................................................................
   1    -13.2292956 -0.132293E+02  0.131E-01    4.79       0.0  T
   2    -13.2292997 -0.413903E-05  0.787E-02    4.77       1.0  T
   3    -13.2293000 -0.273960E-06  0.220E-02    4.77       1.9  T
   4    -13.2293005 -0.495552E-06  0.628E-03    4.77       6.5  T
   5    -13.2293006 -0.386501E-07  0.280E-03    4.77      14.6  T
   6    -13.2293006 -0.124180E-07  0.126E-03    4.77      32.4  T
     SCC iter.                  ...        0 min,  0.000 sec
     gradient                   ...        0 min,  0.001 sec
 * total energy  :   -13.1761457 Eh     change       -0.7944038E-04 Eh
   gradient norm :     0.0434866 Eh/α   predicted    -0.5552255E-03 ( 598.92%)
   displ. norm   :     0.0532202 α      lambda       -0.7359440E-03
   maximum displ.:     0.0401664 α      in ANC's #6, #2, #3, ...

........................................................................
.............................. CYCLE   11 ..............................
........................................................................
   1    -13.2350867 -0.132351E+02  0.715E-02    4.76       0.0  T
   2    -13.2350900 -0.328735E-05  0.375E-02    4.78       1.1  T
   3    -13.2350902 -0.214017E-06  0.197E-02    4.78       2.1  T
   4    -13.2350904 -0.178122E-06  0.431E-03    4.78       9.5  T
   5    -13.2350904 -0.203848E-07  0.237E-03    4.78      17.2  T
     SCC iter.                  ...        0 min,  0.000 sec
     gradient                   ...        0 min,  0.001 sec
 * total energy  :   -13.1764212 Eh     change       -0.2754661E-03 Eh
   gradient norm :     0.0167205 Eh/α   predicted    -0.3690194E-03 (  33.96%)
   displ. norm   :     0.0224619 α      lambda       -0.8317575E-04
   maximum displ.:     0.0204111 α      in ANC's #1, #6, #3, ...

........................................................................
.............................. CYCLE   12 ..............................
........................................................................
   1    -13.2338265 -0.132338E+02  0.256E-02    4.78       0.0  T
   2    -13.2338267 -0.184686E-06  0.151E-02    4.78       2.7  T
   3    -13.2338267 -0.115241E-07  0.470E-03    4.78       8.7  T
   4    -13.2338267 -0.175517E-07  0.110E-03    4.78      37.2  T
   5    -13.2338267 -0.120156E-08  0.342E-04    4.78     119.2  T
     SCC iter.                  ...        0 min,  0.000 sec
     gradient                   ...        0 min,  0.001 sec
 * total energy  :   -13.1764572 Eh     change       -0.3600438E-04 Eh
   gradient norm :     0.0025795 Eh/α   predicted    -0.4160922E-04 (  15.57%)
   displ. norm   :     0.0044693 α      lambda       -0.2979293E-05
   maximum displ.:     0.0042669 α      in ANC's #1, #2, #6, ...

........................................................................
.............................. CYCLE   13 ..............................
........................................................................
   1    -13.2338948 -0.132339E+02  0.489E-03    4.78       0.0  T
   2    -13.2338948 -0.438215E-08  0.301E-03    4.78      13.6  T
   3    -13.2338948 -0.316195E-09  0.631E-04    4.78      64.7  T
   4    -13.2338948 -0.544659E-09  0.187E-04    4.78     218.7  T
     SCC iter.                  ...        0 min,  0.000 sec
     gradient                   ...        0 min,  0.001 sec
 * total energy  :   -13.1764588 Eh     change       -0.1656191E-05 Eh
   gradient norm :     0.0007425 Eh/α   predicted    -0.1489042E-05 ( -10.09%)
   displ. norm   :     0.0013492 α      lambda       -0.5403502E-06
   maximum displ.:     0.0009609 α      in ANC's #3, #6, #1, ...

   *** GEOMETRY OPTIMIZATION CONVERGED AFTER 13 ITERATIONS ***

------------------------------------------------------------------------
 total energy gain   :        -6.4367972 Eh    -4039.1512 kcal/mol
 total RMSD          :         0.1912747 a0        0.1012 Å
 total power (kW/mol):     -1299.9852868 (step)********** (real)
------------------------------------------------------------------------

 ANCopt (total)                0 d,  0 h,  0 min,  0.024 sec
 optimizer setup                ...        0 min,  0.000 sec (  0.224%)
 model hessian                  ...        0 min,  0.000 sec (  0.386%)
 ANC generation                 ...        0 min,  0.000 sec (  0.263%)
 coordinate transformation      ...        0 min,  0.000 sec (  0.218%)
 single point calculation       ...        0 min,  0.022 sec ( 94.597%)
 optimization log               ...        0 min,  0.000 sec (  1.273%)
 hessian update                 ...        0 min,  0.000 sec (  0.169%)
 rational function              ...        0 min,  0.000 sec (  1.379%)

================
 final structure:
================
6
 xtb: 6.2.3 (830e466)
F        -2.59451203790567   -0.15366112472246    0.04618110032551
Cl        1.68428355653053    0.09845668599088   -0.02706133542895
C        -0.99391048720610   -0.05740080475218    0.01798103624444
H        -0.72746877523873   -0.61323288966455   -0.86377854439478
H        -0.70219994443474   -0.51495223143965    0.94698572736959
H        -0.80913231174530    1.00070036458795   -0.04160798411581
 
 Bond Distances (Angstroems)
 ---------------------------
F1-C3=1.6037         C3-F1=1.6037         C3-H4=1.0758         C3-H5=1.0759         C3-H6=1.0758         H4-C3=1.0758         
H5-C3=1.0759         H6-C3=1.0758         
 C  H  Rav=1.0758 sigma=0.0000  Rmin=1.0758  Rmax=1.0759     3
 F  C  Rav=1.6037 sigma=0.0000  Rmin=1.6037  Rmax=1.6037     1
 
 selected bond angles (degree)
 --------------------
H4-C3-F1=103.33                H5-C3-F1=103.29                H5-C3-H4=114.89                H6-C3-F1=103.38                
H6-C3-H4=114.85                H6-C3-H5=114.81                
 
 selected dihedral angles (degree)
 ---------------------------------

 
 CMA Distance (Angstroems)
 ---------------------------
R(CMA):  3.5027
           -------------------------------------------------
          |                Final Singlepoint                |
           -------------------------------------------------

          ...................................................
          :                      SETUP                      :
          :.................................................:
          :  # basis functions                  21          :
          :  # atomic orbitals                  20          :
          :  # shells                           10          :
          :  # electrons                        22          :
          :  max. iterations                   250          :
          :  Hamiltonian                  GFN2-xTB          :
          :  restarted?                      false          :
          :  GBSA solvation                  false          :
          :  PC potential                    false          :
          :  electronic temp.          300.0000000     K    :
          :  accuracy                    1.0000000          :
          :  -> integral cutoff          0.2500000E+02      :
          :  -> integral neglect         0.1000000E-07      :
          :  -> SCF convergence          0.1000000E-05 Eh   :
          :  -> wf. convergence          0.1000000E-03 e    :
          :  Broyden damping             0.4000000          :
          ...................................................

 iter      E             dE          RMSdq      gap      omega  full diag
   1    -13.2338948 -0.132339E+02  0.442E-05    4.78       0.0  T
   2    -13.2338948 -0.698108E-12  0.322E-05    4.78    1266.6  T
   3    -13.2338948 -0.113864E-11  0.133E-05    4.78    3059.4  T

   *** convergence criteria satisfied after 3 iterations ***

         #    Occupation            Energy/Eh            Energy/eV
      -------------------------------------------------------------
         1        2.0000           -0.7944162             -21.6172
       ...           ...                  ...                  ...
         5        2.0000           -0.3599618              -9.7951
         6        2.0000           -0.3545374              -9.6475
         7        2.0000           -0.3015559              -8.2058
         8        2.0000           -0.3015412              -8.2054
         9        2.0000           -0.1944607              -5.2915
        10        2.0000           -0.1930289              -5.2526
        11        2.0000           -0.1930284              -5.2526 (HOMO)
        12                         -0.0174277              -0.4742 (LUMO)
        13                          0.2848457               7.7510
        14                          0.3276369               8.9155
        15                          0.3276485               8.9158
        16                          0.3300151               8.9802
       ...                                ...                  ...
        20                          0.3915454              10.6545
      -------------------------------------------------------------
                  HL-Gap            0.1756007 Eh            4.7783 eV
             Fermi-level           -0.1052281 Eh           -2.8634 eV

 SCC (total)                   0 d,  0 h,  0 min,  0.002 sec
 SCC setup                      ...        0 min,  0.000 sec (  2.942%)
 Dispersion                     ...        0 min,  0.000 sec (  0.427%)
 integral evaluation            ...        0 min,  0.001 sec ( 37.932%)
 zeroth order Hamiltonian       ...        0 min,  0.000 sec (  0.809%)
 iterations                     ...        0 min,  0.000 sec ( 14.252%)
 molecular gradient             ...        0 min,  0.001 sec ( 39.682%)
 printout                       ...        0 min,  0.000 sec (  2.780%)

         :::::::::::::::::::::::::::::::::::::::::::::::::::::
         ::                     SUMMARY                     ::
         :::::::::::::::::::::::::::::::::::::::::::::::::::::
         :: total energy             -13.176458812231 Eh    ::
         :: gradient norm              0.000742567069 Eh/a0 ::
         :: HOMO-LUMO gap              4.778338401894 eV    ::
         ::.................................................::
         :: SCC energy               -13.233894772060 Eh    ::
         :: -> isotropic ES            0.166447005596 Eh    ::
         :: -> anisotropic ES         -0.001392908008 Eh    ::
         :: -> anisotropic XC          0.002703018072 Eh    ::
         :: -> dispersion             -0.001883290215 Eh    ::
         :: repulsion energy           0.057379140031 Eh    ::
         :: add. restraining           0.000056946007 Eh    ::
         :::::::::::::::::::::::::::::::::::::::::::::::::::::

           -------------------------------------------------
          |                Property Printout                |
           -------------------------------------------------

    * Orbital Energies and Occupations

         #    Occupation            Energy/Eh            Energy/eV
      -------------------------------------------------------------
         1        2.0000           -0.7944162             -21.6172
         2        2.0000           -0.6164232             -16.7737
         3        2.0000           -0.4479423             -12.1891
         4        2.0000           -0.3600000              -9.7961
         5        2.0000           -0.3599618              -9.7951
         6        2.0000           -0.3545374              -9.6475
         7        2.0000           -0.3015559              -8.2058
         8        2.0000           -0.3015412              -8.2054
         9        2.0000           -0.1944607              -5.2915
        10        2.0000           -0.1930289              -5.2526
        11        2.0000           -0.1930284              -5.2526 (HOMO)
        12                         -0.0174277              -0.4742 (LUMO)
        13                          0.2848457               7.7510
        14                          0.3276369               8.9155
        15                          0.3276485               8.9158
        16                          0.3300151               8.9802
        17                          0.3300158               8.9802
        18                          0.3302520               8.9866
        19                          0.3911781              10.6445
        20                          0.3915454              10.6545
      -------------------------------------------------------------
                  HL-Gap            0.1756007 Eh            4.7783 eV
             Fermi-level           -0.1052281 Eh           -2.8634 eV

     #   Z        covCN         q      C6AA      α(0)
     1   9 F      0.725    -0.379    13.264     4.301
     2  17 Cl     0.043    -0.955   125.186    17.028
     3   6 C      3.546     0.058    20.589     6.640
     4   1 H      0.926     0.092     1.861     2.133
     5   1 H      0.926     0.092     1.861     2.133
     6   1 H      0.926     0.092     1.863     2.134

 Mol. C6AA /au·bohr⁶  :        545.386892
 Mol. C8AA /au·bohr⁸  :      15753.175459
 Mol. α(0) /au        :         34.369360


Wiberg/Mayer (AO) data.
largest (>0.10) Wiberg bond orders for each atom
          total WBO             WBO to atom ...
     1  F   0.868        C    3 0.825
     2  Cl  0.087
     3  C   3.843        H    6 0.986    H    5 0.986    H    4 0.986    F    1 0.825
     4  H   0.992        C    3 0.986
     5  H   0.992        C    3 0.986
     6  H   0.992        C    3 0.986

molecular dipole:
                 x           y           z       tot (Debye)
 q only:       -1.680      -0.096       0.025
   full:       -1.518      -0.087       0.022       3.866
molecular quadrupole (traceless):
                xx          xy          yy          xz          yz          zz
 q only:      -18.526      -1.639       9.218       0.469       0.028       9.308
  q+dip:      -20.893      -1.852      10.394       0.531       0.033      10.499
   full:      -20.065      -1.778       9.983       0.510       0.031      10.082

           -------------------------------------------------
          |                Geometry Summary                 |
           -------------------------------------------------

      molecular mass/u    :       69.4858989
   center of mass at/Å    :       -0.0542982      -0.0035498       0.0025308
  moments of inertia/u·Å² :        0.3313667E+01   0.2443677E+03   0.2443696E+03
rotational constants/cm⁻¹ :        0.5087304E+01   0.6898469E-01   0.6898418E-01

 * 3 selected distances

     #   Z        #   Z                                     value/Å
     3   6 C      4   1 H                                 1.0758441
     3   6 C      5   1 H                                 1.0758708 (max)
     3   6 C      6   1 H                                 1.0757657 (min)

 * 1 distinct bonds (by element types)

   Z      Z             #   av. dist./Å        max./Å        min./Å
   1 H    6 C           3     1.0758269     1.0758708     1.0757657


optimized geometry written to: xtbopt.xyz


           -------------------------------------------------
          | TOTAL ENERGY              -13.176458812231 Eh   |
          | GRADIENT NORM               0.000742567069 Eh/α |
          | HOMO-LUMO GAP               4.778338401894 eV   |
           -------------------------------------------------

------------------------------------------------------------------------
 * finished run on 2020/04/08 at 23:04:52.822     
------------------------------------------------------------------------
 total:
 * wall-time:     0 d,  0 h,  0 min,  0.035 sec
 *  cpu-time:     0 d,  0 h,  0 min,  0.035 sec
 * ratio c/w:     0.999 speedup
 SCF:
 * wall-time:     0 d,  0 h,  0 min,  0.003 sec
 *  cpu-time:     0 d,  0 h,  0 min,  0.003 sec
 * ratio c/w:     1.000 speedup
 ANC optimizer:
 * wall-time:     0 d,  0 h,  0 min,  0.026 sec
 *  cpu-time:     0 d,  0 h,  0 min,  0.026 sec
 * ratio c/w:     1.000 speedup

