      -----------------------------------------------------------      
     |                   =====================                   |     
     |                           x T B                           |     
     |                   =====================                   |     
     |                         S. Grimme                         |     
     |          Mulliken Center for Theoretical Chemistry        |     
     |                    University of Bonn                     |     
      -----------------------------------------------------------      

   * xtb version 6.2.3 (830e466) compiled by 'ehlert@majestix' on 2020-03-16

   xtb is free software: you can redistribute it and/or modify it under
   the terms of the GNU Lesser General Public License as published by
   the Free Software Foundation, either version 3 of the License, or
   (at your option) any later version.
   
   xtb is distributed in the hope that it will be useful,
   but WITHOUT ANY WARRANTY; without even the implied warranty of
   MERCHANTABILITY or FITNESS FOR A PARTICULAR PURPOSE.  See the
   GNU Lesser General Public License for more details.
   
   Cite this work as:
   * S. Grimme, C. Bannwarth, P. Shushkov, J. Chem. Theory Comput., 2017,
     13, 1989-2009. DOI: 10.1021/acs.jctc.7b00118
   * C. Bannwarth, S. Ehlert and S. Grimme., J. Chem. Theory Comput., 2019,
     15, 1652-1671. DOI: 10.1021/acs.jctc.8b01176
   * P. Pracht, E. Caldeweyher, S. Ehlert, S. Grimme, ChemRxiv, 2019, preprint.
     DOI: 10.26434/chemrxiv.8326202.v1
   
   for DFT-D4:
   * E. Caldeweyher, C. Bannwarth and S. Grimme, J. Chem. Phys., 2017,
     147, 034112. DOI: 10.1063/1.4993215
   * E. Caldeweyher, S. Ehlert, A. Hansen, H. Neugebauer, S. Spicher,
     C. Bannwarth and S. Grimme, J. Chem. Phys., 2019, 150, 154122.
     DOI: 10.1063/1.5090222
   
   for sTDA-xTB:
   * S. Grimme and C. Bannwarth, J. Chem. Phys., 2016, 145, 054103.
     DOI: 10.1063/1.4959605
   
   in the mass-spec context:
   * V. Asgeirsson, C. Bauer and S. Grimme, Chem. Sci., 2017, 8, 4879.
     DOI: 10.1039/c7sc00601b
   
   for metadynamics refer to:
   * S. Grimme, J. Chem. Theory Comput., 2019, 155, 2847-2862
     DOI: 10.1021/acs.jctc.9b00143
   
   with help from (in alphabetical order)
   C. Bannwarth, F. Bohle, G. Brandenburg, E. Caldeweyher, M. Checinski,
   S. Dohm, S. Ehlert, S. Ehrlich, F. März, H. Neugebauer, J. Pisarek,
   P. Pracht, P. Shushkov, and S. Spicher.
   
 * started run on 2020/04/08 at 23:04:05.248     

           -------------------------------------------------
          |                Calculation Setup                |
           -------------------------------------------------

          program call               : /home/tom/.local/bin/xtb SN2_PES_scan_2-4_xtb.xyz --chrg -1 --opt --input xcontrol_SN2_PES_scan_2-4
          coordinate file            : SN2_PES_scan_2-4_xtb.xyz
          omp threads                :                     1
          number of atoms            :                     6
          number of electrons        :                    22
          charge                     :                    -1
          spin                       :                   0.0
          first test random number   :      0.42343629011516

constraining bond 1 3 to    3.0000000 Å, actual value:    3.4999740 Å
constraining bond 2 3 to    3.5560000 Å, actual value:    3.1115686 Å

molecular fragmentation (1/2 indicates fragments):
122222
# atoms in fragment 1/2:     1     5
 fragment masses (1/2) :       19.00       50.49
CMA distance (Bohr)    :  10.742
constraining FC (au)   : 10.0000
########################################################################
[WARNING] Please study the warnings concerning your input carefully
-2- prog_main: XTBPATH is not set, using XTBHOME instead
-1- prog_main: XTBHOME is not set, using HOME instead
########################################################################
           ------------------------------------------------- 
          |                 G F N 2 - x T B                 |
          | Geometry, Frequencies, Noncovalent interactions |
          |            JCTC 2019 parametrisation            |
           ------------------------------------------------- 
             k(s)              :                1.8500
             k(p)              :                2.2300
             k(d)              :                2.2300
             k(f)              :                2.0000
             kEN (H0ij)        :               -2.0000
             D4 a1             :                0.5200
             D4 a2             :                5.0000
             D4 s6             :                1.0000
             D4 s8             :                2.7000
             D4 s9             :                5.0000
             alphaj            :                2.0000

  Z AO/shell   Hii/eV     exponent
  1     Wed Apr 25 08:07:45 CEST 2018   EN: 2.200 GM2: 0.406  GM3: 0.0800  RAES: 1.40
     1s    -10.707211    1.230000
  6     Wed Apr 25 08:07:45 CEST 2018   EN: 2.550 GM2: 0.538  GM3: 0.1500  RAES: 3.00
     2s    -13.970922    2.096432
     2p    -10.063292    1.800000
  9     Mon Apr 23 13:58:50 CEST 2018   EN: 3.980 GM2: 0.532  GM3: 0.1426  RAES: 2.40
     2s    -23.458179    2.416361
     2p    -15.746583    2.308399
 17     Mon Apr 23 14:09:22 CEST 2018   EN: 3.160 GM2: 0.249  GM3: 0.1495  RAES: 2.50
     3s    -29.278781    2.485265
     3p    -12.673758    2.199650
     3d     -0.240338    2.476089

           ------------------------------------------------- 
          |        Self-Consistent Charge Iterations        |
           ------------------------------------------------- 

          ...................................................
          :                      SETUP                      :
          :.................................................:
          :  # basis functions                  21          :
          :  # atomic orbitals                  20          :
          :  # shells                           10          :
          :  # electrons                        22          :
          :  max. iterations                   250          :
          :  Hamiltonian                  GFN2-xTB          :
          :  restarted?                      false          :
          :  GBSA solvation                  false          :
          :  PC potential                    false          :
          :  electronic temp.          300.0000000     K    :
          :  accuracy                    1.0000000          :
          :  -> integral cutoff          0.2500000E+02      :
          :  -> integral neglect         0.1000000E-07      :
          :  -> SCF convergence          0.1000000E-05 Eh   :
          :  -> wf. convergence          0.1000000E-03 e    :
          :  Broyden damping             0.4000000          :
          ...................................................

 iter      E             dE          RMSdq      gap      omega  full diag
   1    -12.8407047 -0.128407E+02  0.103E+01    1.28       0.0  T
   2    -12.1085193  0.732185E+00  0.105E+01    0.00       1.0  T
   3    -13.0588498 -0.950330E+00  0.483E+00    0.48       1.0  T
   4    -13.0238262  0.350236E-01  0.480E+00    0.67       1.0  T
   5    -12.6389698  0.384856E+00  0.101E+01    0.08       1.0  T
   6    -12.7066005 -0.676307E-01  0.985E+00    0.10       1.0  T
   7    -12.2001412  0.506459E+00  0.107E+01    0.00       1.0  T
   8    -12.2438159 -0.436747E-01  0.951E+00    0.00       1.0  T
   9    -12.2202248  0.235910E-01  0.975E+00    0.00       1.0  T
  10    -12.2067622  0.134626E-01  0.106E+01    0.00       1.0  T
  11    -12.2098985 -0.313632E-02  0.104E+01    0.00       1.0  T
  12    -13.0336407 -0.823742E+00  0.372E+00    0.65       1.0  T
  13    -13.0354042 -0.176356E-02  0.371E+00    0.64       1.0  T
  14    -13.0343870  0.101727E-02  0.384E+00    0.65       1.0  T
  15    -13.0393329 -0.494590E-02  0.373E+00    0.63       1.0  T
  16    -13.0372628  0.207004E-02  0.370E+00    0.64       1.0  T
  17    -13.0412747 -0.401188E-02  0.350E+00    0.62       1.0  T
  18    -13.0457400 -0.446534E-02  0.330E+00    0.60       1.0  T
  19    -13.0567765 -0.110365E-01  0.297E+00    0.30       1.0  T
  20    -12.2142498  0.842527E+00  0.985E+00    0.00       1.0  T
  21    -13.0261404 -0.811891E+00  0.469E+00    0.64       1.0  T
  22    -13.0512623 -0.251218E-01  0.319E+00    0.57       1.0  T
  23    -13.0576111 -0.634880E-02  0.290E+00    0.40       1.0  T
  24    -12.2162846  0.841326E+00  0.971E+00    0.00       1.0  T
  25    -13.0395191 -0.823234E+00  0.442E+00    0.59       1.0  T
  26    -13.0574915 -0.179724E-01  0.307E+00    0.53       1.0  T
  27    -13.1177929 -0.603014E-01  0.114E+00    0.14       1.0  T
  28    -12.2497749  0.868018E+00  0.940E+00    0.00       1.0  T
  29    -13.0424274 -0.792652E+00  0.441E+00    0.57       1.0  T
  30    -13.0585850 -0.161576E-01  0.310E+00    0.52       1.0  T
  31    -13.0655344 -0.694941E-02  0.270E+00    0.40       1.0  T
  32    -12.2127324  0.852802E+00  0.981E+00    0.00       1.0  T
  33    -13.0446457 -0.831913E+00  0.439E+00    0.56       1.0  T
  34    -13.0586705 -0.140248E-01  0.311E+00    0.52       1.0  T
  35    -13.1199405 -0.612700E-01  0.101E+00    0.14       1.0  T
  36    -12.2310428  0.888898E+00  0.952E+00    0.00       1.0  T
  37    -13.0308339 -0.799791E+00  0.489E+00    0.61       1.0  T
  38    -13.0567015 -0.258676E-01  0.323E+00    0.53       1.0  T
  39    -13.0631291 -0.642765E-02  0.278E+00    0.51       1.0  T
  40    -12.2131121  0.850017E+00  0.981E+00    0.00       1.0  T
  41    -13.0298515 -0.816739E+00  0.494E+00    0.61       1.0  T
  42    -13.0572946 -0.274432E-01  0.321E+00    0.53       1.0  T
  43    -13.1029673 -0.456727E-01  0.168E+00    0.17       1.0  T
  44    -12.2133369  0.889630E+00  0.981E+00    0.00       1.0  T
  45    -13.0244431 -0.811106E+00  0.513E+00    0.63       1.0  T
  46    -13.0569528 -0.325097E-01  0.323E+00    0.53       1.0  T
  47    -13.0788818 -0.219290E-01  0.234E+00    0.24       1.0  T
  48    -12.2108661  0.868016E+00  0.992E+00    0.00       1.0  T
  49    -13.0266612 -0.815795E+00  0.506E+00    0.62       1.0  T
  50    -13.0573284 -0.306672E-01  0.320E+00    0.52       1.0  T
  51    -13.0298976  0.274308E-01  0.324E+00    0.06       1.0  T
  52    -13.0517249 -0.218272E-01  0.351E+00    0.55       1.0  T
  53    -12.9517364  0.999884E-01  0.430E+00    0.05       1.0  T
  54    -13.0473992 -0.956628E-01  0.377E+00    0.56       1.0  T
  55    -13.0738303 -0.264311E-01  0.247E+00    0.27       1.0  T
  56    -12.2113864  0.862444E+00  0.990E+00    0.00       1.0  T
  57    -13.0283693 -0.816983E+00  0.497E+00    0.62       1.0  T
  58    -13.0573928 -0.290235E-01  0.318E+00    0.52       1.0  T
  59    -13.1228537 -0.654609E-01  0.806E-01    0.13       1.0  T
  60    -12.2183357  0.904518E+00  0.966E+00    0.00       1.0  T
  61    -13.0148479 -0.796512E+00  0.545E+00    0.66       1.0  T
  62    -13.0563580 -0.415101E-01  0.327E+00    0.53       1.0  T
  63    -13.0683033 -0.119453E-01  0.260E+00    0.33       1.0  T
  64    -12.2114778  0.856825E+00  0.990E+00    0.00       1.0  T
  65    -13.0248786 -0.813401E+00  0.512E+00    0.63       1.0  T
  66    -13.0572866 -0.324080E-01  0.320E+00    0.52       1.0  T
  67    -13.0504354  0.685122E-02  0.289E+00    0.06       1.0  T
  68    -13.0537859 -0.335054E-02  0.335E+00    0.54       1.0  T
  69    -12.2871272  0.766659E+00  0.922E+00    0.01       1.0  T
  70    -13.0150864 -0.727959E+00  0.538E+00    0.66       1.0  T
  71    -13.0564090 -0.413226E-01  0.321E+00    0.53       1.0  T
  72    -13.1206966 -0.642876E-01  0.932E-01    0.14       1.0  T
  73    -12.2158768  0.904820E+00  0.973E+00    0.00       1.0  T
  74    -13.0147689 -0.798892E+00  0.544E+00    0.66       1.0  T
  75    -13.0563786 -0.416097E-01  0.326E+00    0.53       1.0  T
  76    -13.0718114 -0.154328E-01  0.251E+00    0.29       1.0  T
  77    -12.2113594  0.860452E+00  0.991E+00    0.00       1.0  T
  78    -13.0244188 -0.813059E+00  0.512E+00    0.63       1.0  T
  79    -13.0572297 -0.328109E-01  0.319E+00    0.52       1.0  T
  80    -13.1059600 -0.487303E-01  0.159E+00    0.08       1.0  T
  81    -13.0589151  0.470449E-01  0.296E+00    0.52       1.0  T
  82    -12.2171944  0.841721E+00  0.969E+00    0.00       1.0  T
  83    -13.0173119 -0.800117E+00  0.535E+00    0.65       1.0  T
  84    -13.0568168 -0.395049E-01  0.320E+00    0.53       1.0  T
  85    -13.1122913 -0.554745E-01  0.136E+00    0.09       1.0  T
  86    -13.0605004  0.517909E-01  0.286E+00    0.52       1.0  T
  87    -12.2151747  0.845326E+00  0.975E+00    0.00       1.0  T
  88    -13.0209600 -0.805785E+00  0.522E+00    0.64       1.0  T
  89    -13.0570378 -0.360778E-01  0.318E+00    0.52       1.0  T
  90    -13.1285597 -0.715219E-01  0.261E-01    0.11       1.0  T
  91    -12.2649588  0.863601E+00  0.934E+00    0.01       1.0  T
  92    -13.0103316 -0.745373E+00  0.555E+00    0.68       1.0  T
  93    -13.0560969 -0.457653E-01  0.324E+00    0.53       1.0  T
  94    -13.0731588 -0.170619E-01  0.248E+00    0.27       1.0  T
  95    -12.2115903  0.861568E+00  0.990E+00    0.00       1.0  T
  96    -13.0253556 -0.813765E+00  0.507E+00    0.63       1.0  T
  97    -13.0571660 -0.318104E-01  0.318E+00    0.52       1.0  T
  98    -13.1214191 -0.642531E-01  0.887E-01    0.14       1.0  T
  99    -12.2151641  0.906255E+00  0.975E+00    0.00       1.0  T
 100    -13.0149434 -0.799779E+00  0.543E+00    0.66       1.0  T
 101    -13.0563784 -0.414350E-01  0.324E+00    0.53       1.0  T
 102    -13.0833064 -0.269280E-01  0.222E+00    0.22       1.0  T
 103    -12.2112767  0.872030E+00  0.992E+00    0.00       1.0  T
 104    -13.0242347 -0.812958E+00  0.510E+00    0.63       1.0  T
 105    -13.0570812 -0.328465E-01  0.318E+00    0.52       1.0  T
 106    -13.1261300 -0.690489E-01  0.584E-01    0.10       1.0  T
 107    -13.1159065  0.102235E-01  0.119E+00    0.09       1.0  T
 108    -13.0597213  0.561852E-01  0.290E+00    0.52       1.0  T
 109    -12.2152588  0.844463E+00  0.975E+00    0.00       1.0  T
 110    -13.0205090 -0.805250E+00  0.523E+00    0.64       1.0  T
 111    -13.0568924 -0.363834E-01  0.319E+00    0.53       1.0  T
 112    -13.1289048 -0.720125E-01  0.150E-01    0.11       1.0  T
 113    -12.2308725  0.898032E+00  0.954E+00    0.01       1.0  T
 114    -13.0090129 -0.778140E+00  0.561E+00    0.68       1.0  T
 115    -13.0558949 -0.468821E-01  0.327E+00    0.53       1.0  T
 116    -13.0708578 -0.149629E-01  0.253E+00    0.29       1.0  T
 117    -12.2119103  0.858948E+00  0.988E+00    0.00       1.0  T
 118    -13.0252365 -0.813326E+00  0.507E+00    0.63       1.0  T
 119    -13.0570615 -0.318250E-01  0.319E+00    0.52       1.0  T
 120    -13.1198614 -0.628000E-01  0.975E-01    0.14       1.0  T
 121    -12.2144444  0.905417E+00  0.978E+00    0.00       1.0  T
 122    -13.0164016 -0.801957E+00  0.538E+00    0.66       1.0  T
 123    -13.0563903 -0.399887E-01  0.324E+00    0.53       1.0  T
 124    -13.0879571 -0.315667E-01  0.210E+00    0.21       1.0  T
 125    -12.2113796  0.876577E+00  0.992E+00    0.00       1.0  T
 126    -13.0241858 -0.812806E+00  0.510E+00    0.63       1.0  T
 127    -13.0569583 -0.327725E-01  0.319E+00    0.52       1.0  T
 128    -13.1281325 -0.711742E-01  0.297E-01    0.12       1.0  T
 129    -12.2192007  0.908932E+00  0.966E+00    0.00       1.0  T
 130    -13.0096668 -0.790466E+00  0.559E+00    0.68       1.0  T
 131    -13.0558931 -0.462263E-01  0.327E+00    0.53       1.0  T
 132    -13.0862720 -0.303789E-01  0.215E+00    0.21       1.0  T
 133    -12.2113011  0.874971E+00  0.992E+00    0.00       1.0  T
 134    -13.0242949 -0.812994E+00  0.510E+00    0.63       1.0  T
 135    -13.0569685 -0.326736E-01  0.319E+00    0.52       1.0  T
 136    -13.1280123 -0.710439E-01  0.316E-01    0.12       1.0  T
 137    -12.2190270  0.908985E+00  0.966E+00    0.00       1.0  T
 138    -13.0096309 -0.790604E+00  0.560E+00    0.68       1.0  T
 139    -13.0558991 -0.462682E-01  0.327E+00    0.53       1.0  T
 140    -13.0864254 -0.305264E-01  0.214E+00    0.21       1.0  T
 141    -12.2113195  0.875106E+00  0.992E+00    0.00       1.0  T
 142    -13.0241421 -0.812823E+00  0.511E+00    0.63       1.0  T
 143    -13.0569553 -0.328132E-01  0.319E+00    0.52       1.0  T
 144    -13.1273148 -0.703595E-01  0.412E-01    0.12       1.0  T
 145    -12.2179369  0.909378E+00  0.968E+00    0.00       1.0  T
 146    -13.0103454 -0.792409E+00  0.558E+00    0.68       1.0  T
 147    -13.0559533 -0.456079E-01  0.327E+00    0.53       1.0  T
 148    -13.0893787 -0.334254E-01  0.207E+00    0.20       1.0  T
 149    -12.2113992  0.877980E+00  0.992E+00    0.00       1.0  T
 150    -13.0236917 -0.812293E+00  0.512E+00    0.63       1.0  T
 151    -13.0569116 -0.332199E-01  0.320E+00    0.52       1.0  T
 152    -13.1260865 -0.691749E-01  0.544E-01    0.13       1.0  T
 153    -12.2167895  0.909297E+00  0.971E+00    0.00       1.0  T
 154    -13.0114748 -0.794685E+00  0.554E+00    0.67       1.0  T
 155    -13.0560369 -0.445621E-01  0.327E+00    0.53       1.0  T
 156    -13.0932827 -0.372458E-01  0.196E+00    0.19       1.0  T
 157    -12.2115482  0.881734E+00  0.991E+00    0.00       1.0  T
 158    -13.0230866 -0.811538E+00  0.514E+00    0.64       1.0  T
 159    -13.0568534 -0.337668E-01  0.320E+00    0.52       1.0  T
 160    -13.1240591 -0.672057E-01  0.712E-01    0.13       1.0  T
 161    -12.2156812  0.908378E+00  0.974E+00    0.00       1.0  T
 162    -13.0130208 -0.797340E+00  0.549E+00    0.67       1.0  T
 163    -13.0561499 -0.431291E-01  0.326E+00    0.53       1.0  T
 164    -13.0977495 -0.415996E-01  0.183E+00    0.18       1.0  T
 165    -12.2117802  0.885969E+00  0.990E+00    0.00       1.0  T
 166    -13.0223088 -0.810529E+00  0.517E+00    0.64       1.0  T
 167    -13.0567844 -0.344756E-01  0.321E+00    0.52       1.0  T
 168    -13.1213296 -0.645452E-01  0.891E-01    0.14       1.0  T
 169    -12.2147524  0.906577E+00  0.977E+00    0.00       1.0  T
 170    -13.0147070 -0.799955E+00  0.543E+00    0.66       1.0  T
 171    -13.0562697 -0.415628E-01  0.325E+00    0.53       1.0  T
 172    -13.1022715 -0.460018E-01  0.169E+00    0.17       1.0  T
 173    -12.2120834  0.890188E+00  0.988E+00    0.00       1.0  T
 174    -13.0214004 -0.809317E+00  0.520E+00    0.64       1.0  T
 175    -13.0567118 -0.353113E-01  0.321E+00    0.53       1.0  T
 176    -13.1182902 -0.615784E-01  0.106E+00    0.14       1.0  T
 177    -12.2140380  0.904252E+00  0.980E+00    0.00       1.0  T
 178    -13.0162687 -0.802231E+00  0.538E+00    0.66       1.0  T
 179    -13.0563764 -0.401077E-01  0.324E+00    0.53       1.0  T
 180    -13.1061488 -0.497724E-01  0.156E+00    0.17       1.0  T
 181    -12.2124049  0.893744E+00  0.987E+00    0.00       1.0  T
 182    -13.0205103 -0.808105E+00  0.523E+00    0.65       1.0  T
 183    -13.0566468 -0.361365E-01  0.322E+00    0.53       1.0  T
 184    -13.1155592 -0.589124E-01  0.119E+00    0.15       1.0  T
 185    -12.2135457  0.902014E+00  0.982E+00    0.00       1.0  T
 186    -13.0174933 -0.803948E+00  0.534E+00    0.66       1.0  T
 187    -13.0564567 -0.389634E-01  0.323E+00    0.53       1.0  T
 188    -13.1088734 -0.524167E-01  0.146E+00    0.16       1.0  T
 189    -12.2126716  0.896202E+00  0.986E+00    0.00       1.0  T
 190    -13.0198232 -0.807152E+00  0.525E+00    0.65       1.0  T
 191    -13.0566002 -0.367770E-01  0.322E+00    0.53       1.0  T
 192    -13.1135837 -0.569835E-01  0.127E+00    0.15       1.0  T
 193    -12.2132461  0.900338E+00  0.983E+00    0.00       1.0  T
 194    -13.0183151 -0.805069E+00  0.531E+00    0.65       1.0  T
 195    -13.0565086 -0.381935E-01  0.323E+00    0.53       1.0  T
 196    -13.1104202 -0.539116E-01  0.140E+00    0.16       1.0  T
 197    -12.2128409  0.897579E+00  0.985E+00    0.00       1.0  T
 198    -13.0194253 -0.806584E+00  0.527E+00    0.65       1.0  T
 199    -13.0565750 -0.371497E-01  0.322E+00    0.53       1.0  T
 200    -13.1124170 -0.558419E-01  0.132E+00    0.15       1.0  T
 201    -12.2130862  0.899331E+00  0.984E+00    0.00       1.0  T
 202    -13.0187985 -0.805712E+00  0.529E+00    0.65       1.0  T
 203    -13.0565385 -0.377400E-01  0.323E+00    0.53       1.0  T
 204    -13.1111247 -0.545862E-01  0.137E+00    0.16       1.0  T
 205    -12.2129230  0.898202E+00  0.985E+00    0.00       1.0  T
 206    -13.0192669 -0.806344E+00  0.527E+00    0.65       1.0  T
 207    -13.0565660 -0.372990E-01  0.323E+00    0.53       1.0  T
 208    -13.1118354 -0.552694E-01  0.135E+00    0.16       1.0  T
 209    -12.2130106  0.898825E+00  0.984E+00    0.00       1.0  T
 210    -13.0190608 -0.806050E+00  0.528E+00    0.65       1.0  T
 211    -13.0565547 -0.374939E-01  0.323E+00    0.53       1.0  T
 212    -13.1113695 -0.548148E-01  0.136E+00    0.16       1.0  T
 213    -12.2129524  0.898417E+00  0.984E+00    0.00       1.0  T
 214    -13.0192463 -0.806294E+00  0.527E+00    0.65       1.0  T
 215    -13.0565657 -0.373193E-01  0.323E+00    0.53       1.0  T
 216    -13.1115728 -0.550071E-01  0.136E+00    0.16       1.0  T
 217    -12.2129778  0.898595E+00  0.984E+00    0.00       1.0  T
 218    -13.0192055 -0.806228E+00  0.528E+00    0.65       1.0  T
 219    -13.0565640 -0.373585E-01  0.323E+00    0.53       1.0  T
 220    -13.1114144 -0.548504E-01  0.136E+00    0.16       1.0  T
 221    -12.2129585  0.898456E+00  0.984E+00    0.00       1.0  T
 222    -13.0192843 -0.806326E+00  0.527E+00    0.65       1.0  T
 223    -13.0565690 -0.372847E-01  0.323E+00    0.53       1.0  T
 224    -13.1114501 -0.548811E-01  0.136E+00    0.16       1.0  T
 225    -12.2129635  0.898487E+00  0.984E+00    0.00       1.0  T
 226    -13.0192964 -0.806333E+00  0.527E+00    0.65       1.0  T
 227    -13.0565704 -0.372740E-01  0.323E+00    0.53       1.0  T
 228    -13.1113906 -0.548202E-01  0.136E+00    0.16       1.0  T
 229    -12.2129568  0.898434E+00  0.984E+00    0.00       1.0  T
 230    -13.0193391 -0.806382E+00  0.527E+00    0.65       1.0  T
 231    -13.0565734 -0.372343E-01  0.322E+00    0.53       1.0  T
 232    -13.1113809 -0.548075E-01  0.136E+00    0.16       1.0  T
 233    -12.2129566  0.898424E+00  0.984E+00    0.00       1.0  T
 234    -13.0193639 -0.806407E+00  0.527E+00    0.65       1.0  T
 235    -13.0565755 -0.372116E-01  0.322E+00    0.53       1.0  T
 236    -13.1113504 -0.547749E-01  0.136E+00    0.16       1.0  T
 237    -12.2129538  0.898397E+00  0.984E+00    0.00       1.0  T
 238    -13.0193945 -0.806441E+00  0.527E+00    0.65       1.0  T
 239    -13.0565779 -0.371834E-01  0.322E+00    0.53       1.0  T
 240    -13.1113321 -0.547542E-01  0.137E+00    0.16       1.0  T
 241    -12.2129528  0.898379E+00  0.984E+00    0.00       1.0  T
 242    -13.0194199 -0.806467E+00  0.527E+00    0.65       1.0  T
 243    -13.0565800 -0.371601E-01  0.322E+00    0.53       1.0  T
 244    -13.1113107 -0.547307E-01  0.137E+00    0.16       1.0  T
 245    -12.2129515  0.898359E+00  0.984E+00    0.00       1.0  T
 246    -13.0194455 -0.806494E+00  0.527E+00    0.65       1.0  T
 247    -13.0565821 -0.371367E-01  0.322E+00    0.53       1.0  T
 248    -13.1112928 -0.547107E-01  0.137E+00    0.16       1.0  T
 249    -12.2129508  0.898342E+00  0.984E+00    0.00       1.0  T
 250    -13.0194690 -0.806518E+00  0.527E+00    0.65       1.0  T

   *** convergence criteria cannot be satisfied within 250 iterations ***

         #    Occupation            Energy/Eh            Energy/eV
      -------------------------------------------------------------
         1        2.0000           -0.7988683             -21.7383
       ...           ...                  ...                  ...
         5        2.0000           -0.4247340             -11.5576
         6        2.0000           -0.4173967             -11.3579
         7        2.0000           -0.3227484              -8.7824
         8        2.0000           -0.3227277              -8.7819
         9        2.0000           -0.1943694              -5.2891
        10        2.0000           -0.1892455              -5.1496
        11        2.0000           -0.1892455              -5.1496 (HOMO)
        12        0.0000           -0.1654018              -4.5008 (LUMO)
        13                          0.2772398               7.5441
        14                          0.3203821               8.7180
        15                          0.3203824               8.7180
        16                          0.3205127               8.7216
       ...                                ...                  ...
        20                          0.4481020              12.1935
      -------------------------------------------------------------
                  HL-Gap            0.0238437 Eh            0.6488 eV
             Fermi-level           -0.1769933 Eh           -4.8162 eV

 SCC (total)                   0 d,  0 h,  0 min,  0.123 sec
 SCC setup                      ...        0 min,  0.000 sec (  0.050%)
 Dispersion                     ...        0 min,  0.000 sec (  0.010%)
 integral evaluation            ...        0 min,  0.001 sec (  0.541%)
 zeroth order Hamiltonian       ...        0 min,  0.000 sec (  0.011%)
 iterations                     ...        0 min,  0.121 sec ( 98.853%)
 molecular gradient             ...        0 min,  0.001 sec (  0.468%)
 printout                       ...        0 min,  0.000 sec (  0.048%)

         :::::::::::::::::::::::::::::::::::::::::::::::::::::
         ::                     SUMMARY                     ::
         :::::::::::::::::::::::::::::::::::::::::::::::::::::
         :: total energy               3.020558151250 Eh    ::
         :: gradient norm             43.714832370707 Eh/a0 ::
         :: HOMO-LUMO gap              0.648820480204 eV    ::
         ::.................................................::
         :: SCC energy               -13.019468992329 Eh    ::
         :: -> isotropic ES            0.362053162898 Eh    ::
         :: -> anisotropic ES         -0.005116579983 Eh    ::
         :: -> anisotropic XC          0.008478690871 Eh    ::
         :: -> dispersion             -0.001639411874 Eh    ::
         :: repulsion energy           0.059777887520 Eh    ::
         :: add. restraining          15.980269894085 Eh    ::
         :::::::::::::::::::::::::::::::::::::::::::::::::::::

      ----------------------------------------------------------- 
     |                   =====================                   |
     |                        A N C O P T                        |
     |                   =====================                   |
     |               Approximate Normal Coordinate               |
     |                Rational Function Optimizer                |
      ----------------------------------------------------------- 

          ...................................................
          :                      SETUP                      :
          :.................................................:
          :   optimization level            normal          :
          :   max. optcycles                   200          :
          :   ANC micro-cycles                  20          :
          :   degrees of freedom                12          :
          :.................................................:
          :   RF solver                   davidson          :
          :   write xtbopt.log                true          :
          :   linear?                        false          :
          :   energy convergence         0.5000000E-05 Eh   :
          :   grad. convergence          0.1000000E-02 Eh/α :
          :   maximium RF displ.         1.0000000          :
          :   Hlow (freq-cutoff)         0.1000000E-01      :
          :   Hmax (freq-cutoff)         5.0000000          :
          :   S6 in model hess.         20.0000000          :
          ...................................................

generating ANC from model Hessian ...
Using Lindh-Hessian (1995)
 Shifting diagonal of input Hessian by    1.35260107954580     
 Lowest  eigenvalues of input Hessian
    0.010000    0.010144   -0.000000   -0.000000   -0.000000   -0.000000
    0.000000    0.000000    1.353418    1.503672    1.503698    1.790468
    1.880264    1.880340    3.152728    3.152960   21.353714   61.352281
 Highest eigenvalues
    1.880264    1.880340    3.152728    3.152960   21.353714   61.352281
 

........................................................................
.............................. CYCLE    1 ..............................
........................................................................
   1    -13.0565842 -0.130566E+02  0.322E+00    0.53       0.0  T
   2    -12.1663052  0.890279E+00  0.105E+01    0.00       1.0  T
   3    -13.0698373 -0.903532E+00  0.272E+00    0.44       1.0  T
   4    -13.0712113 -0.137392E-02  0.283E+00    0.42       1.0  T
   5    -12.2141310  0.857080E+00  0.972E+00    0.00       1.0  T
   6    -13.0679958 -0.853865E+00  0.260E+00    0.36       1.0  T
   7    -13.1125153 -0.445195E-01  0.132E+00    0.16       1.0  T
   8    -13.1115029  0.101239E-02  0.136E+00    0.16       1.0  T
   9    -13.1037031  0.779983E-02  0.163E+00    0.17       1.0  T
  10    -12.5998556  0.503847E+00  0.734E+00    0.02       1.0  T
  11    -13.0577347 -0.457879E+00  0.292E+00    0.45       1.0  T
  12    -13.0775693 -0.198345E-01  0.236E+00    0.25       1.0  T
  13    -13.1237167 -0.461474E-01  0.735E-01    0.13       1.0  T
  14    -13.1194037  0.431299E-02  0.101E+00    0.14       1.0  T
  15    -13.1253904 -0.598672E-02  0.629E-01    0.10       1.0  T
  16    -13.1284206 -0.303023E-02  0.239E-01    0.12       1.0  T
  17    -13.1204438  0.797686E-02  0.957E-01    0.09       1.0  T
  18    -13.1278094 -0.736561E-02  0.353E-01    0.11       1.0  T
  19    -13.1245144  0.329499E-02  0.691E-01    0.10       1.0  T
  20    -13.1267822 -0.226780E-02  0.484E-01    0.10       1.0  T
  21    -13.1275192 -0.736950E-03  0.393E-01    0.11       1.0  T
  22    -13.1288882 -0.136904E-02  0.871E-02    0.11       1.0  T
  23    -13.1289441 -0.559614E-04  0.399E-02    0.11       1.0  T
  24    -13.1289567 -0.125827E-04  0.154E-02    0.11       2.7  T
  25    -13.1289529  0.386193E-05  0.256E-02    0.11       1.6  T
  26    -13.1289549 -0.204459E-05  0.207E-02    0.11       2.0  T
  27    -13.1289583 -0.343669E-05  0.753E-03    0.11       5.4  T
  28    -13.1289587 -0.359064E-06  0.440E-03    0.11       9.3  T
  29    -13.1289589 -0.156391E-06  0.147E-03    0.11      27.8  T
  30    -13.1289589 -0.166258E-07  0.559E-04    0.11      73.1  T
  31    -13.1289589 -0.280631E-08  0.125E-04    0.11     325.4  T
     SCC iter.                  ...        0 min,  0.002 sec
     gradient                   ...        0 min,  0.001 sec
 * total energy  :     2.9110843 Eh     change       -0.1094738E+00 Eh
   gradient norm :    43.7218163 Eh/α   predicted     0.0000000E+00 (-100.00%)
   displ. norm   :     0.9444539 α      lambda       -0.4129323E+02
   maximum displ.:     0.9439006 α      in ANC's #11, #12, #1, ...

........................................................................
.............................. CYCLE    2 ..............................
........................................................................
   1    -12.5371085 -0.125371E+02  0.832E+00    0.08       0.0  T
   2    -12.6913473 -0.154239E+00  0.910E+00    2.22       1.0  T
   3    -12.3994403  0.291907E+00  0.102E+01    0.00       1.0  T
   4    -12.8491450 -0.449705E+00  0.689E+00    0.56       1.0  T
   5    -12.5256247  0.323520E+00  0.837E+00    0.01       1.0  T
   6    -12.9422098 -0.416585E+00  0.474E+00    0.49       1.0  T
   7    -12.2849362  0.657274E+00  0.969E+00    0.03       1.0  T
   8    -12.3061564 -0.212202E-01  0.943E+00    0.04       1.0  T
   9    -12.9043503 -0.598194E+00  0.533E+00    0.55       1.0  T
  10    -12.9974386 -0.930883E-01  0.348E+00    0.50       1.0  T
  11    -12.9806447  0.167938E-01  0.383E+00    0.47       1.0  T
  12    -12.9863030 -0.565831E-02  0.369E+00    0.32       1.0  T
  13    -12.9999566 -0.136536E-01  0.340E+00    0.23       1.0  T
  14    -13.0024098 -0.245322E-02  0.334E+00    0.23       1.0  T
  15    -13.0226537 -0.202439E-01  0.280E+00    0.21       1.0  T
  16    -13.0451849 -0.225311E-01  0.209E+00    0.18       1.0  T
  17    -13.0644034 -0.192185E-01  0.132E+00    0.17       1.0  T
  18    -13.0796080 -0.152046E-01  0.564E-01    0.15       1.0  T
  19    -13.0714914  0.811659E-02  0.151E+00    0.16       1.0  T
  20    -13.0718769 -0.385469E-03  0.149E+00    0.14       1.0  T
  21    -13.0518676  0.200093E-01  0.223E+00    0.17       1.0  T
  22    -13.0708851 -0.190175E-01  0.145E+00    0.14       1.0  T
  23    -13.0724592 -0.157415E-02  0.132E+00    0.14       1.0  T
  24    -13.0724521  0.710330E-05  0.125E+00    0.14       1.0  T
  25    -13.0745657 -0.211355E-02  0.102E+00    0.14       1.0  T
  26    -13.0787257 -0.416006E-02  0.541E-01    0.14       1.0  T
  27    -13.0797392 -0.101351E-02  0.304E-01    0.14       1.0  T
  28    -13.0798875 -0.148273E-03  0.232E-01    0.14       1.0  T
  29    -13.0801704 -0.282937E-03  0.117E-01    0.14       1.0  T
  30    -13.0801827 -0.122683E-04  0.987E-02    0.14       1.0  T
  31    -13.0802266 -0.439282E-04  0.600E-02    0.15       1.0  T
  32    -13.0802464 -0.197963E-04  0.214E-02    0.15       1.9  T
  33    -13.0802385  0.788953E-05  0.371E-02    0.15       1.1  T
  34    -13.0802458 -0.722293E-05  0.203E-02    0.15       2.0  T
  35    -13.0802477 -0.188434E-05  0.132E-02    0.15       3.1  T
  36    -13.0802491 -0.140953E-05  0.611E-04    0.15      66.9  T
  37    -13.0802491 -0.144010E-08  0.161E-04    0.15     253.4  T
     SCC iter.                  ...        0 min,  0.003 sec
     gradient                   ...        0 min,  0.001 sec
 * total energy  :   -11.6375616 Eh     change       -0.1454865E+02 Eh
   gradient norm :    12.9939126 Eh/α   predicted    -0.3906326E+02 ( 168.50%)
   displ. norm   :     0.2413594 α      lambda       -0.2794689E+01
   maximum displ.:     0.2074259 α      in ANC's #11, #12, #3, ...

........................................................................
.............................. CYCLE    3 ..............................
........................................................................
   1    -13.0710538 -0.130711E+02  0.218E+00    0.22       0.0  T
   2    -12.2478419  0.823212E+00  0.996E+00    0.03       1.0  T
   3    -12.6403138 -0.392472E+00  0.794E+00    0.03       1.0  T
   4    -13.0992901 -0.458976E+00  0.716E-01    0.18       1.0  T
   5    -13.0818138  0.174762E-01  0.197E+00    0.14       1.0  T
   6    -13.0911334 -0.931955E-02  0.140E+00    0.15       1.0  T
   7    -13.0556328  0.355006E-01  0.344E+00    0.22       1.0  T
   8    -13.0944465 -0.388137E-01  0.107E+00    0.18       1.0  T
   9    -13.0978420 -0.339555E-02  0.695E-01    0.17       1.0  T
  10    -13.0997416 -0.189954E-02  0.273E-01    0.18       1.0  T
  11    -13.0999499 -0.208362E-03  0.663E-02    0.19       1.0  T
  12    -13.0999585 -0.860154E-05  0.535E-02    0.19       1.0  T
  13    -13.0999702 -0.116728E-04  0.218E-02    0.19       1.9  T
  14    -13.0999726 -0.233301E-05  0.104E-02    0.19       3.9  T
  15    -13.0999713  0.129237E-05  0.186E-02    0.19       2.2  T
  16    -13.0999725 -0.120236E-05  0.628E-03    0.19       6.5  T
  17    -13.0999723  0.131930E-06  0.820E-03    0.19       5.0  T
  18    -13.0999726 -0.272903E-06  0.363E-03    0.19      11.2  T
  19    -13.0999727 -0.629101E-07  0.629E-04    0.19      64.9  T
     SCC iter.                  ...        0 min,  0.001 sec
     gradient                   ...        0 min,  0.001 sec
 * total energy  :   -12.9889567 Eh     change       -0.1351395E+01 Eh
   gradient norm :     1.6807167 Eh/α   predicted    -0.1478746E+01 (   9.42%)
   displ. norm   :     0.2673690 α      lambda       -0.4443066E+00
   maximum displ.:     0.2623076 α      in ANC's #12, #11, #3, ...

........................................................................
.............................. CYCLE    4 ..............................
........................................................................
   1    -12.9866722 -0.129867E+02  0.427E+00    0.07       0.0  T
   2    -12.8005442  0.186128E+00  0.753E+00    1.36       1.0  T
   3    -12.3075840  0.492960E+00  0.937E+00    0.04       1.0  T
   4    -12.9407826 -0.633199E+00  0.551E+00    0.45       1.0  T
   5    -13.0631687 -0.122386E+00  0.241E+00    0.17       1.0  T
   6    -13.0330597  0.301090E-01  0.283E+00    0.16       1.0  T
   7    -12.9344406  0.986192E-01  0.487E+00    0.07       1.0  T
   8    -13.0471654 -0.112725E+00  0.314E+00    0.30       1.0  T
   9    -13.0556394 -0.847398E-02  0.268E+00    0.10       1.0  T
  10    -13.0656096 -0.997018E-02  0.210E+00    0.17       1.0  T
  11    -13.0735512 -0.794164E-02  0.222E+00    0.23       1.0  T
  12    -13.0861328 -0.125816E-01  0.163E+00    0.18       1.0  T
  13    -13.0857868  0.345990E-03  0.167E+00    0.19       1.0  T
  14    -13.0976386 -0.118518E-01  0.896E-01    0.16       1.0  T
  15    -13.1015717 -0.393310E-02  0.539E-01    0.18       1.0  T
  16    -13.1017956 -0.223914E-03  0.529E-01    0.19       1.0  T
  17    -13.1034966 -0.170100E-02  0.181E-01    0.17       1.0  T
  18    -13.1028953  0.601284E-03  0.337E-01    0.18       1.0  T
  19    -13.1034474 -0.552082E-03  0.193E-01    0.17       1.0  T
  20    -13.1034815 -0.341048E-04  0.175E-01    0.17       1.0  T
  21    -13.1036616 -0.180136E-03  0.488E-02    0.16       1.0  T
  22    -13.1036706 -0.896871E-05  0.265E-02    0.16       1.5  T
  23    -13.1036723 -0.172728E-05  0.178E-02    0.16       2.3  T
  24    -13.1036718  0.511711E-06  0.182E-02    0.16       2.2  T
  25    -13.1036741 -0.226373E-05  0.529E-03    0.16       7.7  T
  26    -13.1036742 -0.108012E-06  0.320E-03    0.16      12.7  T
     SCC iter.                  ...        0 min,  0.003 sec
     gradient                   ...        0 min,  0.001 sec
 * total energy  :   -12.6845729 Eh     change        0.3043838E+00 Eh
   gradient norm :     4.2546901 Eh/α   predicted    -0.2380340E+00 (-178.20%)
   displ. norm   :     0.1795256 α      lambda       -0.7194914E+00
   maximum displ.:     0.1756478 α      in ANC's #12, #11, #3, ...

........................................................................
.............................. CYCLE    5 ..............................
........................................................................
   1    -13.0956762 -0.130957E+02  0.124E+00    0.24       0.0  T
   2    -12.3854624  0.710214E+00  0.107E+01    0.00       1.0  T
   3    -12.4748919 -0.894295E-01  0.838E+00    0.08       1.0  T
   4    -13.0403594 -0.565467E+00  0.312E+00    0.10       1.0  T
   5    -13.0957948 -0.554354E-01  0.117E+00    0.22       1.0  T
   6    -13.0990177 -0.322288E-02  0.884E-01    0.19       1.0  T
   7    -13.1004802 -0.146250E-02  0.922E-01    0.15       1.0  T
   8    -13.1028042 -0.232405E-02  0.611E-01    0.16       1.0  T
   9    -13.1027124  0.918270E-04  0.624E-01    0.16       1.0  T
  10    -13.1025078  0.204614E-03  0.596E-01    0.16       1.0  T
  11    -13.1033649 -0.857104E-03  0.367E-01    0.17       1.0  T
  12    -13.1037065 -0.341637E-03  0.255E-01    0.17       1.0  T
  13    -13.1039438 -0.237276E-03  0.103E-01    0.18       1.0  T
  14    -13.1039831 -0.392887E-04  0.539E-02    0.18       1.0  T
  15    -13.1039983 -0.152198E-04  0.188E-02    0.18       2.2  T
  16    -13.1040009 -0.259388E-05  0.275E-03    0.18      14.8  T
  17    -13.1040009 -0.503655E-07  0.165E-03    0.18      24.8  T
     SCC iter.                  ...        0 min,  0.001 sec
     gradient                   ...        0 min,  0.001 sec
 * total energy  :   -13.0563093 Eh     change       -0.3717364E+00 Eh
   gradient norm :     0.1374040 Eh/α   predicted    -0.3713402E+00 (  -0.11%)
   displ. norm   :     0.0355337 α      lambda       -0.1855664E-02
   maximum displ.:     0.0234738 α      in ANC's #3, #1, #6, ...

........................................................................
.............................. CYCLE    6 ..............................
........................................................................
   1    -13.1071825 -0.131072E+02  0.110E-01    0.18       0.0  T
   2    -13.0580143  0.491681E-01  0.253E+00    0.19       1.0  T
   3    -13.1071135 -0.490992E-01  0.153E-01    0.18       1.0  T
   4    -13.1059580  0.115552E-02  0.491E-01    0.16       1.0  T
   5    -13.1064172 -0.459159E-03  0.366E-01    0.17       1.0  T
   6    -13.1064116  0.557265E-05  0.357E-01    0.17       1.0  T
   7    -13.1072327 -0.821136E-03  0.674E-02    0.18       1.0  T
   8    -13.1072427 -0.991761E-05  0.594E-02    0.18       1.0  T
   9    -13.1072697 -0.270640E-04  0.197E-02    0.18       2.1  T
  10    -13.1072719 -0.214397E-05  0.376E-03    0.18      10.9  T
  11    -13.1072720 -0.983303E-07  0.179E-03    0.18      22.8  T
     SCC iter.                  ...        0 min,  0.001 sec
     gradient                   ...        0 min,  0.001 sec
 * total energy  :   -13.0576364 Eh     change       -0.1327136E-02 Eh
   gradient norm :     0.0329840 Eh/α   predicted    -0.9290053E-03 ( -30.00%)
   displ. norm   :     0.2697528 α      lambda       -0.2896998E-02
   maximum displ.:     0.2338396 α      in ANC's #1, #2, #3, ...

........................................................................
.............................. CYCLE    7 ..............................
........................................................................
   1    -13.1135385 -0.131135E+02  0.469E-01    0.18       0.0  T
   2    -12.6034545  0.510084E+00  0.774E+00    0.10       1.0  T
   3    -13.1143637 -0.510909E+00  0.230E-01    0.18       1.0  T
   4    -13.0543310  0.600327E-01  0.309E+00    0.09       1.0  T
   5    -13.1018833 -0.475523E-01  0.135E+00    0.18       1.0  T
   6    -13.0947363  0.714702E-02  0.167E+00    0.17       1.0  T
   7    -13.0942520  0.484276E-03  0.169E+00    0.18       1.0  T
   8    -13.1136743 -0.194224E-01  0.356E-01    0.17       1.0  T
   9    -13.1141701 -0.495744E-03  0.262E-01    0.17       1.0  T
  10    -13.1142136 -0.435596E-04  0.249E-01    0.17       1.0  T
  11    -13.1143675 -0.153879E-03  0.101E-01    0.17       1.0  T
  12    -13.1144352 -0.677079E-04  0.399E-02    0.18       1.0  T
  13    -13.1144406 -0.542343E-05  0.222E-02    0.18       1.8  T
  14    -13.1144426 -0.192816E-05  0.182E-02    0.18       2.2  T
  15    -13.1144451 -0.255229E-05  0.359E-03    0.18      11.4  T
  16    -13.1144452 -0.790117E-07  0.144E-03    0.18      28.4  T
     SCC iter.                  ...        0 min,  0.001 sec
     gradient                   ...        0 min,  0.001 sec
 * total energy  :   -13.0560247 Eh     change        0.1611665E-02 Eh
   gradient norm :     0.1280246 Eh/α   predicted    -0.1553889E-02 (-196.42%)
   displ. norm   :     0.2602160 α      lambda       -0.7877530E-02
   maximum displ.:     0.2214222 α      in ANC's #1, #2, #3, ...

........................................................................
.............................. CYCLE    8 ..............................
........................................................................
   1    -13.1235017 -0.131235E+02  0.473E-01    0.17       0.0  T
   2    -12.7780238  0.345478E+00  0.648E+00    0.12       1.0  T
   3    -13.1112687 -0.333245E+00  0.159E+00    0.27       1.0  T
   4    -13.1224179 -0.111491E-01  0.673E-01    0.16       1.0  T
   5    -13.1001269  0.222909E-01  0.178E+00    0.20       1.0  T
   6    -13.1033486 -0.322171E-02  0.179E+00    0.16       1.0  T
   7    -13.1034537 -0.105058E-03  0.172E+00    0.17       1.0  T
   8    -13.1233176 -0.198639E-01  0.423E-01    0.17       1.0  T
   9    -13.1238415 -0.523926E-03  0.308E-01    0.17       1.0  T
  10    -13.1243953 -0.553790E-03  0.841E-02    0.18       1.0  T
  11    -13.1244296 -0.342677E-04  0.364E-02    0.18       1.1  T
  12    -13.1244278  0.181325E-05  0.295E-02    0.18       1.4  T
  13    -13.1244314 -0.358586E-05  0.160E-02    0.18       2.6  T
  14    -13.1244328 -0.141136E-05  0.817E-03    0.18       5.0  T
  15    -13.1244333 -0.494501E-06  0.403E-03    0.18      10.1  T
  16    -13.1244333  0.707310E-10  0.341E-03    0.18      12.0  T
     SCC iter.                  ...        0 min,  0.001 sec
     gradient                   ...        0 min,  0.001 sec
 * total energy  :   -13.0593366 Eh     change       -0.3311837E-02 Eh
   gradient norm :     0.2216089 Eh/α   predicted    -0.4205486E-02 (  26.98%)
   displ. norm   :     0.0633918 α      lambda       -0.2325500E-02
   maximum displ.:     0.0518704 α      in ANC's #1, #6, #2, ...

........................................................................
.............................. CYCLE    9 ..............................
........................................................................
   1    -13.1203619 -0.131204E+02  0.167E-01    0.18       0.0  T
   2    -13.0719873  0.483746E-01  0.277E+00    0.10       1.0  T
   3    -13.1200333 -0.480460E-01  0.271E-01    0.19       1.0  T
   4    -13.1182093  0.182405E-02  0.613E-01    0.18       1.0  T
   5    -13.1200171 -0.180782E-02  0.280E-01    0.19       1.0  T
   6    -13.1203580 -0.340923E-03  0.131E-01    0.18       1.0  T
   7    -13.1203756 -0.176025E-04  0.122E-01    0.18       1.0  T
   8    -13.1204530 -0.773241E-04  0.408E-02    0.18       1.0  T
   9    -13.1204584 -0.542653E-05  0.318E-02    0.18       1.3  T
  10    -13.1204646 -0.619631E-05  0.130E-02    0.18       3.1  T
  11    -13.1204657 -0.107546E-05  0.998E-04    0.18      40.9  T
  12    -13.1204657 -0.620836E-08  0.385E-04    0.18     106.1  T
     SCC iter.                  ...        0 min,  0.001 sec
     gradient                   ...        0 min,  0.001 sec
 * total energy  :   -13.0603136 Eh     change       -0.9769840E-03 Eh
   gradient norm :     0.0298023 Eh/α   predicted    -0.1167423E-02 (  19.49%)
   displ. norm   :     0.0632603 α      lambda       -0.8372170E-03
   maximum displ.:     0.0524848 α      in ANC's #1, #3, #2, ...

........................................................................
.............................. CYCLE   10 ..............................
........................................................................
   1    -13.1222858 -0.131223E+02  0.245E-01    0.18       0.0  T
   2    -12.8463729  0.275913E+00  0.584E+00    0.13       1.0  T
   3    -13.1207101 -0.274337E+00  0.549E-01    0.16       1.0  T
   4    -13.1225522 -0.184211E-02  0.147E-01    0.18       1.0  T
   5    -13.1224979  0.543138E-04  0.190E-01    0.17       1.0  T
   6    -13.1216305  0.867335E-03  0.407E-01    0.17       1.0  T
   7    -13.1218750 -0.244509E-03  0.376E-01    0.17       1.0  T
   8    -13.1218950 -0.199271E-04  0.281E-01    0.18       1.0  T
   9    -13.1225122 -0.617198E-03  0.130E-01    0.18       1.0  T
  10    -13.1226699 -0.157766E-03  0.368E-02    0.18       1.1  T
  11    -13.1226837 -0.138244E-04  0.274E-03    0.18      14.9  T
  12    -13.1226837  0.295226E-07  0.281E-03    0.18      14.5  T
  13    -13.1226838 -0.575735E-07  0.345E-04    0.18     118.2  T
     SCC iter.                  ...        0 min,  0.001 sec
     gradient                   ...        0 min,  0.001 sec
 * total energy  :   -13.0609513 Eh     change       -0.6377644E-03 Eh
   gradient norm :     0.0269892 Eh/α   predicted    -0.4202821E-03 ( -34.10%)
   displ. norm   :     0.4353603 α      lambda       -0.4371260E-02
   maximum displ.:     0.3726951 α      in ANC's #2, #3, #1, ...

........................................................................
.............................. CYCLE   11 ..............................
........................................................................
   1    -13.1184220 -0.131184E+02  0.143E+00    0.19       0.0  T
   2    -12.2799521  0.838470E+00  0.996E+00    0.04       1.0  T
   3    -12.8086568 -0.528705E+00  0.685E+00    0.04       1.0  T
   4    -13.1286467 -0.319990E+00  0.672E-01    0.16       1.0  T
   5    -13.1122727  0.163740E-01  0.188E+00    0.14       1.0  T
   6    -13.1163744 -0.410164E-02  0.164E+00    0.15       1.0  T
   7    -13.1272925 -0.109181E-01  0.981E-01    0.19       1.0  T
   8    -13.1298312 -0.253868E-02  0.297E-01    0.17       1.0  T
   9    -13.1294632  0.367985E-03  0.409E-01    0.17       1.0  T
  10    -13.1302434 -0.780211E-03  0.101E-01    0.17       1.0  T
  11    -13.1299481  0.295328E-03  0.272E-01    0.17       1.0  T
  12    -13.1301746 -0.226471E-03  0.162E-01    0.17       1.0  T
  13    -13.1302833 -0.108762E-03  0.541E-02    0.18       1.0  T
  14    -13.1302962 -0.129243E-04  0.150E-02    0.18       2.7  T
  15    -13.1302964 -0.131267E-06  0.143E-02    0.18       2.9  T
  16    -13.1302969 -0.507041E-06  0.974E-03    0.18       4.2  T
  17    -13.1302973 -0.463415E-06  0.265E-03    0.18      15.4  T
  18    -13.1302974 -0.395415E-07  0.727E-04    0.18      56.1  T
     SCC iter.                  ...        0 min,  0.001 sec
     gradient                   ...        0 min,  0.001 sec
 * total energy  :   -13.0564060 Eh     change        0.4545372E-02 Eh
   gradient norm :     0.2175534 Eh/α   predicted    -0.2599937E-02 (-157.20%)
   displ. norm   :     0.2800956 α      lambda       -0.1152738E-01
   maximum displ.:     0.2789228 α      in ANC's #2, #3, #6, ...

........................................................................
.............................. CYCLE   12 ..............................
........................................................................
   1    -13.1306128 -0.131306E+02  0.370E-01    0.18       0.0  T
   2    -13.1154870  0.151257E-01  0.151E+00    0.13       1.0  T
   3    -13.1296293 -0.141423E-01  0.490E-01    0.20       1.0  T
   4    -13.0510570  0.785723E-01  0.325E+00    0.17       1.0  T
   5    -13.1281596 -0.771027E-01  0.663E-01    0.19       1.0  T
   6    -13.1295862 -0.142662E-02  0.394E-01    0.18       1.0  T
   7    -13.1304899 -0.903704E-03  0.161E-01    0.17       1.0  T
   8    -13.1305761 -0.862027E-04  0.154E-01    0.18       1.0  T
   9    -13.1305997 -0.235712E-04  0.117E-01    0.18       1.0  T
  10    -13.1306007 -0.969634E-06  0.104E-01    0.18       1.0  T
  11    -13.1306932 -0.925537E-04  0.266E-02    0.18       1.5  T
  12    -13.1306992 -0.600087E-05  0.826E-03    0.18       4.9  T
  13    -13.1306995 -0.265631E-06  0.554E-03    0.18       7.4  T
  14    -13.1306997 -0.219974E-06  0.120E-03    0.18      34.0  T
     SCC iter.                  ...        0 min,  0.001 sec
     gradient                   ...        0 min,  0.001 sec
 * total energy  :   -13.0625267 Eh     change       -0.6120718E-02 Eh
   gradient norm :     0.0413276 Eh/α   predicted    -0.6215883E-02 (   1.55%)
   displ. norm   :     0.0604382 α      lambda       -0.1020251E-02
   maximum displ.:     0.0503552 α      in ANC's #2, #3, #6, ...

........................................................................
.............................. CYCLE   13 ..............................
........................................................................
   1    -13.1279913 -0.131280E+02  0.430E-01    0.19       0.0  T
   2    -12.6933421  0.434649E+00  0.744E+00    0.10       1.0  T
   3    -13.0534764 -0.360134E+00  0.330E+00    0.09       1.0  T
   4    -13.1270761 -0.735997E-01  0.556E-01    0.19       1.0  T
   5    -13.1267543  0.321813E-03  0.557E-01    0.18       1.0  T
   6    -13.1269826 -0.228314E-03  0.496E-01    0.17       1.0  T
   7    -13.1286309 -0.164834E-02  0.238E-01    0.17       1.0  T
   8    -13.1289145 -0.283593E-03  0.109E-01    0.18       1.0  T
   9    -13.1286818  0.232690E-03  0.218E-01    0.19       1.0  T
  10    -13.1281813  0.500520E-03  0.343E-01    0.20       1.0  T
  11    -13.1289687 -0.787416E-03  0.733E-02    0.18       1.0  T
  12    -13.1290072 -0.385084E-04  0.537E-03    0.18       7.6  T
  13    -13.1290070  0.281207E-06  0.858E-03    0.18       4.8  T
  14    -13.1290074 -0.396540E-06  0.159E-03    0.18      25.6  T
  15    -13.1290073  0.675645E-07  0.397E-03    0.18      10.3  T
     SCC iter.                  ...        0 min,  0.001 sec
     gradient                   ...        0 min,  0.001 sec
 * total energy  :   -13.0632723 Eh     change       -0.7456086E-03 Eh
   gradient norm :     0.0430230 Eh/α   predicted    -0.5119899E-03 ( -31.33%)
   displ. norm   :     0.1144276 α      lambda       -0.1261124E-02
   maximum displ.:     0.1022690 α      in ANC's #3, #6, #2, ...

........................................................................
.............................. CYCLE   14 ..............................
........................................................................
   1    -13.1215601 -0.131216E+02  0.961E-01    0.19       0.0  T
   2    -12.3044118  0.817148E+00  0.967E+00    0.05       1.0  T
   3    -12.7822970 -0.477885E+00  0.701E+00    0.04       1.0  T
   4    -13.1212305 -0.338933E+00  0.901E-01    0.18       1.0  T
   5    -13.1231145 -0.188403E-02  0.670E-01    0.16       1.0  T
   6    -13.1245295 -0.141499E-02  0.568E-01    0.16       1.0  T
   7    -13.1260640 -0.153450E-02  0.450E-01    0.17       1.0  T
   8    -13.1254827  0.581358E-03  0.503E-01    0.19       1.0  T
   9    -13.1264033 -0.920605E-03  0.341E-01    0.20       1.0  T
  10    -13.1265920 -0.188744E-03  0.290E-01    0.19       1.0  T
  11    -13.1269264 -0.334385E-03  0.889E-02    0.18       1.0  T
  12    -13.1269322 -0.581894E-05  0.825E-02    0.18       1.0  T
  13    -13.1269424 -0.101772E-04  0.705E-02    0.18       1.0  T
  14    -13.1269604 -0.179920E-04  0.327E-02    0.18       1.2  T
  15    -13.1269635 -0.310682E-05  0.198E-02    0.18       2.1  T
  16    -13.1269652 -0.174466E-05  0.177E-03    0.18      23.0  T
  17    -13.1269652 -0.104531E-07  0.951E-04    0.18      42.9  T
     SCC iter.                  ...        0 min,  0.001 sec
     gradient                   ...        0 min,  0.001 sec
 * total energy  :   -13.0642075 Eh     change       -0.9352214E-03 Eh
   gradient norm :     0.0496610 Eh/α   predicted    -0.6388179E-03 ( -31.69%)
   displ. norm   :     0.1532752 α      lambda       -0.9966255E-03
   maximum displ.:     0.1481808 α      in ANC's #3, #6, #1, ...

........................................................................
.............................. CYCLE   15 ..............................
........................................................................
   1    -13.1176891 -0.131177E+02  0.985E-01    0.19       0.0  T
   2    -12.2873801  0.830309E+00  0.974E+00    0.05       1.0  T
   3    -13.0631303 -0.775750E+00  0.294E+00    0.10       1.0  T
   4    -13.1151957 -0.520653E-01  0.111E+00    0.19       1.0  T
   5    -13.1208139 -0.561826E-02  0.535E-01    0.17       1.0  T
   6    -13.1220556 -0.124168E-02  0.604E-01    0.16       1.0  T
   7    -13.1217853  0.270358E-03  0.651E-01    0.16       1.0  T
   8    -13.1221451 -0.359864E-03  0.574E-01    0.16       1.0  T
   9    -13.1234573 -0.131219E-02  0.202E-01    0.18       1.0  T
  10    -13.1234740 -0.166649E-04  0.680E-02    0.18       1.0  T
  11    -13.1234930 -0.190057E-04  0.438E-02    0.18       1.0  T
  12    -13.1234966 -0.358117E-05  0.402E-02    0.18       1.0  T
  13    -13.1234987 -0.213277E-05  0.299E-02    0.18       1.4  T
  14    -13.1235023 -0.359903E-05  0.398E-03    0.18      10.3  T
  15    -13.1235023 -0.309232E-07  0.484E-03    0.18       8.4  T
     SCC iter.                  ...        0 min,  0.001 sec
     gradient                   ...        0 min,  0.001 sec
 * total energy  :   -13.0647371 Eh     change       -0.5296398E-03 Eh
   gradient norm :     0.0192547 Eh/α   predicted    -0.5100172E-03 (  -3.70%)
   displ. norm   :     0.0159340 α      lambda       -0.6097633E-04
   maximum displ.:     0.0135428 α      in ANC's #2, #3, #6, ...

........................................................................
.............................. CYCLE   16 ..............................
........................................................................
   1    -13.1240218 -0.131240E+02  0.702E-02    0.18       0.0  T
   2    -13.1204005  0.362123E-02  0.843E-01    0.22       1.0  T
   3    -13.1237612 -0.336061E-02  0.199E-01    0.18       1.0  T
   4    -13.1240405 -0.279342E-03  0.314E-02    0.18       1.3  T
   5    -13.1240379  0.261980E-05  0.366E-02    0.18       1.1  T
   6    -13.1240438 -0.593643E-05  0.819E-03    0.18       5.0  T
   7    -13.1240442 -0.417819E-06  0.464E-03    0.18       8.8  T
   8    -13.1240443 -0.859757E-07  0.118E-03    0.18      34.5  T
   9    -13.1240443 -0.500765E-08  0.684E-04    0.18      59.7  T
     SCC iter.                  ...        0 min,  0.001 sec
     gradient                   ...        0 min,  0.001 sec
 * total energy  :   -13.0647778 Eh     change       -0.4069725E-04 Eh
   gradient norm :     0.0036639 Eh/α   predicted    -0.3049648E-04 ( -25.07%)
   displ. norm   :     0.0121155 α      lambda       -0.1546764E-04
   maximum displ.:     0.0083666 α      in ANC's #2, #3, #6, ...

........................................................................
.............................. CYCLE   17 ..............................
........................................................................
   1    -13.1243729 -0.131244E+02  0.564E-02    0.18       0.0  T
   2    -13.1221623  0.221061E-02  0.646E-01    0.22       1.0  T
   3    -13.1243095 -0.214719E-02  0.106E-01    0.18       1.0  T
   4    -13.1243861 -0.765979E-04  0.244E-02    0.18       1.7  T
   5    -13.1243857  0.388967E-06  0.265E-02    0.18       1.5  T
   6    -13.1243886 -0.287179E-05  0.115E-02    0.18       3.5  T
   7    -13.1243894 -0.848486E-06  0.269E-03    0.18      15.2  T
   8    -13.1243894 -0.335159E-07  0.309E-04    0.18     132.2  T
   9    -13.1243894  0.204414E-09  0.355E-04    0.18     115.2  T
     SCC iter.                  ...        0 min,  0.001 sec
     gradient                   ...        0 min,  0.001 sec
 * total energy  :   -13.0647867 Eh     change       -0.8826759E-05 Eh
   gradient norm :     0.0035665 Eh/α   predicted    -0.7734771E-05 ( -12.37%)
   displ. norm   :     0.0030289 α      lambda       -0.9980811E-06
   maximum displ.:     0.0026833 α      in ANC's #3, #2, #6, ...

........................................................................
.............................. CYCLE   18 ..............................
........................................................................
   1    -13.1244591 -0.131245E+02  0.158E-02    0.18       0.0  T
   2    -13.1242302  0.228924E-03  0.199E-01    0.19       1.0  T
   3    -13.1244583 -0.228150E-03  0.182E-02    0.18       2.2  T
   4    -13.1244598 -0.153559E-05  0.102E-02    0.18       4.0  T
   5    -13.1244605 -0.616185E-06  0.274E-03    0.18      14.9  T
   6    -13.1244605 -0.353975E-07  0.421E-04    0.18      96.9  T
   7    -13.1244605  0.967754E-09  0.590E-04    0.18      69.2  T
     SCC iter.                  ...        0 min,  0.001 sec
     gradient                   ...        0 min,  0.001 sec
 * total energy  :   -13.0647873 Eh     change       -0.6166413E-06 Eh
   gradient norm :     0.0015995 Eh/α   predicted    -0.4983452E-06 ( -19.18%)
   displ. norm   :     0.0016089 α      lambda       -0.1873856E-06
   maximum displ.:     0.0014586 α      in ANC's #3, #1, #6, ...

........................................................................
.............................. CYCLE   19 ..............................
........................................................................
   1    -13.1245004 -0.131245E+02  0.900E-03    0.18       0.0  T
   2    -13.1244186  0.817631E-04  0.120E-01    0.19       1.0  T
   3    -13.1244997 -0.810491E-04  0.129E-02    0.18       3.2  T
   4    -13.1245007 -0.105236E-05  0.485E-03    0.18       8.4  T
   5    -13.1245009 -0.128403E-06  0.714E-04    0.18      57.2  T
   6    -13.1245009 -0.972371E-09  0.346E-04    0.18     118.1  T
     SCC iter.                  ...        0 min,  0.000 sec
     gradient                   ...        0 min,  0.001 sec
 * total energy  :   -13.0647874 Eh     change       -0.1235023E-06 Eh
   gradient norm :     0.0005785 Eh/α   predicted    -0.9336820E-07 ( -24.40%)
   displ. norm   :     0.0006308 α      lambda       -0.2540773E-07
   maximum displ.:     0.0004227 α      in ANC's #1, #2, #3, ...

   *** GEOMETRY OPTIMIZATION CONVERGED AFTER 19 ITERATIONS ***

------------------------------------------------------------------------
 total energy gain   :       -16.0853456 Eh   -10093.7067 kcal/mol
 total RMSD          :         0.4179689 a0        0.2212 Å
 total power (kW/mol):     -2222.7404728 (step)********** (real)
------------------------------------------------------------------------

 ANCopt (total)                0 d,  0 h,  0 min,  0.052 sec
 optimizer setup                ...        0 min,  0.000 sec (  0.098%)
 model hessian                  ...        0 min,  0.000 sec (  0.132%)
 ANC generation                 ...        0 min,  0.000 sec (  0.143%)
 coordinate transformation      ...        0 min,  0.000 sec (  0.234%)
 single point calculation       ...        0 min,  0.050 sec ( 95.426%)
 optimization log               ...        0 min,  0.001 sec (  1.144%)
 hessian update                 ...        0 min,  0.000 sec (  0.173%)
 rational function              ...        0 min,  0.001 sec (  1.433%)

================
 final structure:
================
6
 xtb: 6.2.3 (830e466)
F        -3.77579589054784   -0.22252198218016    0.07351271783440
Cl        2.76774024349727    0.15771418209839   -0.03999302907385
C        -0.78203460556842   -0.04384308395719    0.01139668257832
H        -0.76150538180139   -0.62565307772917   -0.88392137354038
H        -0.74864743420654   -0.52669890734919    0.96340416916114
H        -0.84269693137312    1.02093286911765   -0.04569916696080
 
 Bond Distances (Angstroems)
 ---------------------------
C3-H4=1.0680         C3-H5=1.0680         C3-H6=1.0680         H4-C3=1.0680         H5-C3=1.0680         H6-C3=1.0680         
 C  H  Rav=1.0680 sigma=0.0000  Rmin=1.0680  Rmax=1.0680     3
 
 selected bond angles (degree)
 --------------------
H5-C3-H4=120.03                H6-C3-H4=119.96                H6-C3-H5=120.01                
 
 selected dihedral angles (degree)
 ---------------------------------

 
 CMA Distance (Angstroems)
 ---------------------------
R(CMA):  5.4965
           -------------------------------------------------
          |                Final Singlepoint                |
           -------------------------------------------------

          ...................................................
          :                      SETUP                      :
          :.................................................:
          :  # basis functions                  21          :
          :  # atomic orbitals                  20          :
          :  # shells                           10          :
          :  # electrons                        22          :
          :  max. iterations                   250          :
          :  Hamiltonian                  GFN2-xTB          :
          :  restarted?                      false          :
          :  GBSA solvation                  false          :
          :  PC potential                    false          :
          :  electronic temp.          300.0000000     K    :
          :  accuracy                    1.0000000          :
          :  -> integral cutoff          0.2500000E+02      :
          :  -> integral neglect         0.1000000E-07      :
          :  -> SCF convergence          0.1000000E-05 Eh   :
          :  -> wf. convergence          0.1000000E-03 e    :
          :  Broyden damping             0.4000000          :
          ...................................................

 iter      E             dE          RMSdq      gap      omega  full diag
   1    -13.1245009 -0.131245E+02  0.240E-04    0.18       0.0  T
   2    -13.1245008  0.464431E-07  0.275E-03    0.18      14.9  T
   3    -13.1245008 -0.407539E-07  0.999E-04    0.18      40.9  T
   4    -13.1245008  0.157787E-07  0.200E-03    0.18      20.4  T
   5    -13.1245009 -0.215455E-07  0.179E-04    0.18     228.1  T

   *** convergence criteria satisfied after 5 iterations ***

         #    Occupation            Energy/Eh            Energy/eV
      -------------------------------------------------------------
         1        2.0000           -0.8552399             -23.2723
       ...           ...                  ...                  ...
         5        2.0000           -0.3734084             -10.1610
         6        2.0000           -0.2432420              -6.6190
         7        1.9986           -0.2394965              -6.5170
         8        1.9986           -0.2394954              -6.5170
         9        1.9939           -0.2381169              -6.4795
        10        1.9604           -0.2363282              -6.4308
        11        1.9604           -0.2363281              -6.4308 (HOMO)
        12        0.0883           -0.2297006              -6.2505 (LUMO)
        13                          0.2325555               6.3282
        14                          0.2514555               6.8425
        15                          0.2516368               6.8474
        16                          0.2516371               6.8474
       ...                                ...                  ...
        20                          0.4008069              10.9065
      -------------------------------------------------------------
                  HL-Gap            0.0066275 Eh            0.1803 eV
             Fermi-level           -0.2326219 Eh           -6.3300 eV

 SCC (total)                   0 d,  0 h,  0 min,  0.002 sec
 SCC setup                      ...        0 min,  0.000 sec (  2.718%)
 Dispersion                     ...        0 min,  0.000 sec (  0.455%)
 integral evaluation            ...        0 min,  0.001 sec ( 36.520%)
 zeroth order Hamiltonian       ...        0 min,  0.000 sec (  0.635%)
 iterations                     ...        0 min,  0.000 sec ( 23.206%)
 molecular gradient             ...        0 min,  0.001 sec ( 32.216%)
 printout                       ...        0 min,  0.000 sec (  3.008%)

         :::::::::::::::::::::::::::::::::::::::::::::::::::::
         ::                     SUMMARY                     ::
         :::::::::::::::::::::::::::::::::::::::::::::::::::::
         :: total energy             -13.064787424126 Eh    ::
         :: gradient norm              0.000578428512 Eh/a0 ::
         :: HOMO-LUMO gap              0.180343915228 eV    ::
         ::.................................................::
         :: SCC energy               -13.124500854089 Eh    ::
         :: -> isotropic ES            0.161000561682 Eh    ::
         :: -> anisotropic ES         -0.000877832760 Eh    ::
         :: -> anisotropic XC          0.006283778727 Eh    ::
         :: -> dispersion             -0.001546951331 Eh    ::
         :: repulsion energy           0.059714612164 Eh    ::
         :: add. restraining           0.000003229692 Eh    ::
         :::::::::::::::::::::::::::::::::::::::::::::::::::::

           -------------------------------------------------
          |                Property Printout                |
           -------------------------------------------------

    * Orbital Energies and Occupations

         #    Occupation            Energy/Eh            Energy/eV
      -------------------------------------------------------------
         1        2.0000           -0.8552399             -23.2723
         2        2.0000           -0.5255114             -14.2999
         3        2.0000           -0.4710190             -12.8171
         4        2.0000           -0.3734306             -10.1616
         5        2.0000           -0.3734084             -10.1610
         6        2.0000           -0.2432420              -6.6190
         7        1.9986           -0.2394965              -6.5170
         8        1.9986           -0.2394954              -6.5170
         9        1.9939           -0.2381169              -6.4795
        10        1.9604           -0.2363282              -6.4308
        11        1.9604           -0.2363281              -6.4308 (HOMO)
        12        0.0883           -0.2297006              -6.2505 (LUMO)
        13                          0.2325555               6.3282
        14                          0.2514555               6.8425
        15                          0.2516368               6.8474
        16                          0.2516371               6.8474
        17                          0.2525680               6.8727
        18                          0.2525680               6.8727
        19                          0.4003298              10.8935
        20                          0.4008069              10.9065
      -------------------------------------------------------------
                  HL-Gap            0.0066275 Eh            0.1803 eV
             Fermi-level           -0.2326219 Eh           -6.3300 eV

     #   Z        covCN         q      C6AA      α(0)
     1   9 F      0.000    -0.546    15.998     4.659
     2  17 Cl     0.000    -0.653   113.593    16.220
     3   6 C      2.780    -0.067    29.652     8.919
     4   1 H      0.927     0.089     1.893     2.152
     5   1 H      0.927     0.089     1.889     2.149
     6   1 H      0.927     0.089     1.893     2.152

 Mol. C6AA /au·bohr⁶  :        580.355512
 Mol. C8AA /au·bohr⁸  :      16494.158426
 Mol. α(0) /au        :         36.250340


Wiberg/Mayer (AO) data.
largest (>0.10) Wiberg bond orders for each atom
          total WBO             WBO to atom ...
     1  F   0.539        C    3 0.539
     2  Cl  0.316        C    3 0.316
     3  C   3.826        H    6 0.991    H    4 0.991    H    5 0.990    F    1 0.539    Cl   2 0.316
     4  H   0.992        C    3 0.991
     5  H   0.992        C    3 0.990
     6  H   0.992        C    3 0.991

molecular dipole:
                 x           y           z       tot (Debye)
 q only:        0.185       0.018      -0.021
   full:        0.197       0.019      -0.022       0.505
molecular quadrupole (traceless):
                xx          xy          yy          xz          yz          zz
 q only:      -45.674      -3.990      22.730       1.196       0.068      22.943
  q+dip:      -46.507      -4.059      23.144       1.210       0.068      23.362
   full:      -45.429      -3.969      22.608       1.190       0.068      22.821

           -------------------------------------------------
          |                Geometry Summary                 |
           -------------------------------------------------

      molecular mass/u    :       69.4858989
   center of mass at/Å    :        0.2104900       0.0101433       0.0021542
  moments of inertia/u·Å² :        0.3450276E+01   0.5522911E+03   0.5522937E+03
rotational constants/cm⁻¹ :        0.4885879E+01   0.3052309E-01   0.3052295E-01

 * 3 selected distances

     #   Z        #   Z                                     value/Å
     3   6 C      4   1 H                                 1.0679507 (min)
     3   6 C      5   1 H                                 1.0679807
     3   6 C      6   1 H                                 1.0680298 (max)

 * 1 distinct bonds (by element types)

   Z      Z             #   av. dist./Å        max./Å        min./Å
   1 H    6 C           3     1.0679871     1.0680298     1.0679507


optimized geometry written to: xtbopt.xyz


           -------------------------------------------------
          | TOTAL ENERGY              -13.064787424126 Eh   |
          | GRADIENT NORM               0.000578428512 Eh/α |
          | HOMO-LUMO GAP               0.180343915228 eV   |
           -------------------------------------------------
########################################################################
[WARNING] Runtime exception occurred
-1- scf: Self consistent charge iterator did not converge
########################################################################

------------------------------------------------------------------------
 * finished run on 2020/04/08 at 23:04:05.432     
------------------------------------------------------------------------
 total:
 * wall-time:     0 d,  0 h,  0 min,  0.184 sec
 *  cpu-time:     0 d,  0 h,  0 min,  0.184 sec
 * ratio c/w:     0.999 speedup
 SCF:
 * wall-time:     0 d,  0 h,  0 min,  0.123 sec
 *  cpu-time:     0 d,  0 h,  0 min,  0.123 sec
 * ratio c/w:     1.000 speedup
 ANC optimizer:
 * wall-time:     0 d,  0 h,  0 min,  0.054 sec
 *  cpu-time:     0 d,  0 h,  0 min,  0.054 sec
 * ratio c/w:     0.999 speedup

