6
 energy: -6.738374089453 gnorm: 27.772844856918 xtb: 6.2.3 (830e466)
F        -2.95366000000000   -0.17952000000000    0.04757000000000
Cl        2.52212000000000    0.14678000000000   -0.03940000000000
C        -1.05432000000000   -0.05971000000000    0.01947000000000
H        -0.86242000000000   -0.62659000000000   -0.87077000000000
H        -0.84093000000000   -0.52760000000000    0.96111000000000
H        -0.95371000000000    1.00657000000000   -0.03928000000000
6
 energy: -7.022321385288 gnorm: 27.255604874901 xtb: 6.2.3 (830e466)
F        -2.75656533115982   -0.16708787702303    0.04465452447618
Cl        2.71925246144817    0.15816323419948   -0.04264432458828
C        -1.44844330795427   -0.08352318122135    0.02563055598428
H        -0.86245912222041   -0.62655157570361   -0.87070844019714
H        -0.84096941025254   -0.52756713611942    0.96104336643545
H        -0.95373528986113    1.00649653586793   -0.03927568211049
6
 energy: -13.034562001081 gnorm: 3.973436058924 xtb: 6.2.3 (830e466)
F        -2.83944297983540   -0.17247910243724    0.04583144200954
Cl        2.63799642175291    0.15338030924953   -0.04133546547520
C        -1.28120935853607   -0.07318282743715    0.02309559303456
H        -0.86350318403345   -0.62612399163325   -0.86994242680386
H        -0.84204126057747   -0.52722534403565    0.96026408412258
H        -0.95471963877053    1.00556095629376   -0.03921322688762
6
 energy: -13.167260649970 gnorm: 0.205222138317 xtb: 6.2.3 (830e466)
F        -2.83737738435935   -0.17243400891964    0.04580276300400
Cl        2.63069803668001    0.15312228814050   -0.04120372599020
C        -1.24149357730780   -0.07105041924787    0.02245386201711
H        -0.87549128274922   -0.62178351059024   -0.86206351891552
H        -0.85412149097371   -0.52373283750386    0.95226201589656
H        -0.96513430128993    0.99580848812111   -0.03855139601196
6
 energy: -13.160996203588 gnorm: 0.608364363069 xtb: 6.2.3 (830e466)
F        -2.83861853652539   -0.17254293237208    0.04584744958761
Cl        2.65917187501339    0.15409410281320   -0.04232883669312
C        -1.22631478318274   -0.06969658934440    0.02263182940183
H        -0.88774743767131   -0.61892742464095   -0.85634128603331
H        -0.86918077792536   -0.52191254103949    0.94695824339625
H        -0.98023033970858    0.98891538458372   -0.03806739965926
6
 energy: -13.170286382247 gnorm: 0.029848602659 xtb: 6.2.3 (830e466)
F        -2.82234640114552   -0.17157424718744    0.04556770781239
Cl        2.65404816386080    0.15410920428967   -0.04196040983117
C        -1.22193037287609   -0.06973686891069    0.02232886805720
H        -0.89395161084924   -0.61851589300716   -0.85507513920194
H        -0.87416439622182   -0.52145656297087    0.94570317839073
H        -0.98457538276813    0.98710436778651   -0.03786420522721
6
 energy: -13.170635766203 gnorm: 0.009056016581 xtb: 6.2.3 (830e466)
F        -2.81361690445750   -0.17113735270274    0.04535548444288
Cl        2.66186399813234    0.15538630313055   -0.04122149508170
C        -1.21380826970000   -0.06981922010280    0.02163379734268
H        -0.90498292084281   -0.61865980344849   -0.85418583575470
H        -0.88154047253053   -0.52112575022611    0.94467435820216
H        -0.99083543060149    0.98528582334958   -0.03755630915131
6
 energy: -13.170665230383 gnorm: 0.014366218205 xtb: 6.2.3 (830e466)
F        -2.80384743095607   -0.17004739373414    0.04573936565108
Cl        2.67189169902752    0.14816402089789   -0.04932586212002
C        -1.20440641682470   -0.06452364703029    0.02634489581765
H        -0.88972018213322   -0.61641723417944   -0.85206921141828
H        -0.89927896037574   -0.52410044223774    0.94628205573581
H        -1.01755870873778    0.98685469628371   -0.03827124366624
6
 energy: -13.170600481835 gnorm: 0.016863136140 xtb: 6.2.3 (830e466)
F        -2.79353443712040   -0.17043620117056    0.04459017828183
Cl        2.68205982141417    0.16202843297903   -0.03604827855276
C        -1.19363530266339   -0.07221535820894    0.01779113731705
H        -0.94278829114290   -0.62387336936400   -0.85862680077023
H        -0.89605898161320   -0.52225633582076    0.94772921774232
H        -0.99896280887427    0.98668283158522   -0.03673545401820
6
 energy: -13.170803506367 gnorm: 0.002479216002 xtb: 6.2.3 (830e466)
F        -2.80262029396545   -0.17049364650187    0.04517557824188
Cl        2.67308130522464    0.15553908802952   -0.04134445428235
C        -1.20281308706488   -0.06896023853539    0.02140086878204
H        -0.91556036264940   -0.62113731230910   -0.85693155369841
H        -0.89186033095385   -0.52321344028645    0.94791636887904
H        -1.00314723059104    0.98819554960328   -0.03751680792220
6
 energy: -13.170804886283 gnorm: 0.002426882292 xtb: 6.2.3 (830e466)
F        -2.80204374541962   -0.17053066389997    0.04531340345515
Cl        2.67359654037353    0.15646635518812   -0.04353559307179
C        -1.20218022383423   -0.06949725717024    0.02272287383059
H        -0.91308286233459   -0.62103032840982   -0.85745972313579
H        -0.89778258029906   -0.52430326998489    0.94947257882975
H        -1.00142712848603    0.98882516427679   -0.03781353990790
6
 energy: -13.170806052443 gnorm: 0.003107645310 xtb: 6.2.3 (830e466)
F        -2.80073127086080   -0.17025910282151    0.04520934483063
Cl        2.67517242735530    0.15349979294735   -0.04260374309035
C        -1.20096034473135   -0.06758618256709    0.02207323318543
H        -0.91243279732582   -0.62208711050166   -0.85861033633082
H        -0.89392542022737   -0.52473291601321    0.95032577959614
H        -1.01004259420996    0.99109551895612   -0.03769427819104
6
 energy: -13.170810543432 gnorm: 0.000141592627 xtb: 6.2.3 (830e466)
F        -2.80152148724816   -0.17042137682805    0.04519509268105
Cl        2.67425390051581    0.15518013812988   -0.04216489919994
C        -1.20168760862041   -0.06868627116376    0.02183069412917
H        -0.91462598797259   -0.62193882690660   -0.85836806100435
H        -0.89409113569053   -0.52429674828487    0.94984891898289
H        -1.00524768098410    0.99009308505340   -0.03764174558880
