6
 energy: -10.827649663667 gnorm: 16.426321616448 xtb: 6.2.3 (830e466)
F        -2.70075000000000   -0.15939000000000    0.04668000000000
Cl        1.51456000000000    0.09097000000000   -0.02377000000000
C        -0.70507000000000   -0.04088000000000    0.01339000000000
H        -0.73097000000000   -0.62534000000000   -0.88020000000000
H        -0.70603000000000   -0.52550000000000    0.96518000000000
H        -0.81465000000000    1.02007000000000   -0.04256000000000
6
 energy: -3.018843087883 gnorm: 34.932725874801 xtb: 6.2.3 (830e466)
F        -2.84385291164224   -0.16788794031524    0.04906726994344
Cl        1.29001388935383    0.07763150395522   -0.02001068266841
C        -0.33751274622257   -0.01904922189002    0.00724487955005
H        -0.73093984011652   -0.62532174818666   -0.88017528735637
H        -0.70600074024759   -0.52548449669316    0.96515266485233
H        -0.81461765112490    1.02004190312985   -0.04255884432103
6
 energy: -12.701099097339 gnorm: 7.238182073869 xtb: 6.2.3 (830e466)
F        -2.73121594295810   -0.16119882143400    0.04718723107432
Cl        1.37588281895612    0.08273252172523   -0.02144921435705
C        -0.53643018518290   -0.03086394977010    0.01057009830072
H        -0.73081032348966   -0.62508627432519   -0.87982809278740
H        -0.70588082160014   -0.52528799862140    0.96477887038021
H        -0.81445554572531    1.01963452242545   -0.04253889261081
6
 energy: -13.008229501195 gnorm: 2.377123665760 xtb: 6.2.3 (830e466)
F        -2.76362448288719   -0.16312436083677    0.04773363577225
Cl        1.46280359527185    0.08789471459899   -0.02290223136471
C        -0.58710701090130   -0.03387492486227    0.01141450616917
H        -0.73210993916957   -0.62442368714189   -0.87867260051174
H        -0.70721943364479   -0.52475138516609    0.96359221873510
H        -0.81565272866899    1.01820964340802   -0.04244552880006
6
 energy: -12.924729633211 gnorm: 4.001506309589 xtb: 6.2.3 (830e466)
F        -2.66346280538865   -0.15717631753472    0.04606248114481
Cl        1.38738546031493    0.08341392438633   -0.02163964821543
C        -0.60932137441023   -0.03519377658130    0.01177988710483
H        -0.73298778708821   -0.62342638974533   -0.87704857088541
H        -0.70814174204599   -0.52393284605054    0.96189435357349
H        -0.81638175138186    1.01624540552556   -0.04232850272230
6
 energy: -13.148627074956 gnorm: 0.193603268992 xtb: 6.2.3 (830e466)
F        -2.71742327078203   -0.16037898909923    0.04696670522955
Cl        1.41705085345992    0.08517623284086   -0.02213551165192
C        -0.58460998035291   -0.03372835855146    0.01136721775096
H        -0.73313468239346   -0.62306341257022   -0.87647639296046
H        -0.70831168182749   -0.52363274203517    0.96128803016379
H        -0.81648123810405    1.01555726941522   -0.04229004853191
6
 energy: -13.149123866672 gnorm: 0.024312694829 xtb: 6.2.3 (830e466)
F        -2.71763584387300   -0.16034864256855    0.04698672292182
Cl        1.42072591241798    0.08540129494006   -0.02219369097311
C        -0.58492216608106   -0.03377190288056    0.01136325559065
H        -0.73417835240262   -0.62223047802560   -0.87508007236296
H        -0.70942527362382   -0.52295212985538    0.95982866343016
H        -0.81747427643748    1.01383185839004   -0.04218487860656
6
 energy: -13.149160011924 gnorm: 0.007999895617 xtb: 6.2.3 (830e466)
F        -2.71660644323119   -0.16052243093006    0.04689397814095
Cl        1.42146166457066    0.08540567617238   -0.02221808407419
C        -0.58388535823039   -0.03357351829334    0.01139025523094
H        -0.73532577218700   -0.62159735871404   -0.87402377591361
H        -0.71044691560399   -0.52243137638740    0.95877742361123
H        -0.81810717531809    1.01264900815246   -0.04209979699531
6
 energy: -13.149223784860 gnorm: 0.018107857486 xtb: 6.2.3 (830e466)
F        -2.71236351092350   -0.15564421057565    0.04834329909055
Cl        1.42550356877989    0.08641158110924   -0.02203144415664
C        -0.57921227876169   -0.03598869645683    0.01042854746265
H        -0.73594516305220   -0.61985149520712   -0.87053416903003
H        -0.71424246335415   -0.52110344604025    0.95437824338632
H        -0.82665015268836    1.00610626717060   -0.04186447675285
6
 energy: -13.148970379279 gnorm: 0.039964719952 xtb: 6.2.3 (830e466)
F        -2.70491142055446   -0.18226098580512    0.03946256634122
Cl        1.43153957513502    0.08228427111194   -0.02357942614166
C        -0.57406047348846   -0.01992652775589    0.01544568366041
H        -0.76432861609042   -0.61332805418801   -0.86186232531099
H        -0.72504035488112   -0.51527110556104    0.95014808704679
H        -0.80610871012059    1.00843240219812   -0.04089458559576
6
 energy: -13.149248529919 gnorm: 0.007241398575 xtb: 6.2.3 (830e466)
F        -2.70989449938633   -0.16020254222284    0.04678187637331
Cl        1.42783183151552    0.08576605558907   -0.02231898031466
C        -0.57723063931213   -0.03315258368671    0.01128758436229
H        -0.74206250827432   -0.61862895438190   -0.86876630310964
H        -0.71730655949943   -0.52002981157756    0.95340181731335
H        -0.82424762504333    1.00617783627993   -0.04166599462464
6
 energy: -13.149253824956 gnorm: 0.003835699438 xtb: 6.2.3 (830e466)
F        -2.70931610833248   -0.15982654419297    0.04697945873479
Cl        1.42857281957898    0.08586705489283   -0.02229660485175
C        -0.57656177487210   -0.03330868688670    0.01115555981368
H        -0.74236405913298   -0.61878340721045   -0.86893066608455
H        -0.71799556121485   -0.52017017221979    0.95349371848376
H        -0.82524531602660    1.00615175561707   -0.04168146609593
6
 energy: -13.149259130858 gnorm: 0.002924830236 xtb: 6.2.3 (830e466)
F        -2.70746013103182   -0.15919910860356    0.04542261404790
Cl        1.43061386472465    0.08607498654724   -0.02258103483892
C        -0.57459866486017   -0.03348554944875    0.01201214244632
H        -0.74531851167115   -0.61914277738237   -0.86885976403660
H        -0.71833391576316   -0.52049579123130    0.95417447587235
H        -0.82781264139838    1.00617824011875   -0.04144843349104
6
 energy: -13.149239085563 gnorm: 0.007126674670 xtb: 6.2.3 (830e466)
F        -2.70554244001881   -0.16179941585189    0.05303083867838
Cl        1.43231819780812    0.08572806203212   -0.02134436261175
C        -0.57315852625679   -0.03181193523774    0.00753675222220
H        -0.74204607496584   -0.61909272703533   -0.87072253596541
H        -0.72807122897972   -0.52042226850958    0.95275322923145
H        -0.82640992758698    1.00732828460242   -0.04253392155486
6
 energy: -13.149260314078 gnorm: 0.000897162124 xtb: 6.2.3 (830e466)
F        -2.70726160300811   -0.15977542151564    0.04685141164201
Cl        1.43069596179012    0.08598264871281   -0.02234576611422
C        -0.57451957477102   -0.03313610805802    0.01117439212952
H        -0.74455040808670   -0.61913289204858   -0.86924048003994
H        -0.71999735496557   -0.52047972637888    0.95393970969429
H        -0.82727702095873    1.00647149928831   -0.04165926731166
6
 energy: -13.149260323245 gnorm: 0.000092554413 xtb: 6.2.3 (830e466)
F        -2.70723785487937   -0.15977136180341    0.04681782734699
Cl        1.43070514138426    0.08598337101192   -0.02235127437785
C        -0.57449304730738   -0.03313505609174    0.01119213335007
H        -0.74459607130891   -0.61915259132966   -0.86926073417789
H        -0.71998453224614   -0.52049684045641    0.95397823515091
H        -0.82730363564248    1.00650247866931   -0.04165618729223
