      -----------------------------------------------------------      
     |                   =====================                   |     
     |                           x T B                           |     
     |                   =====================                   |     
     |                         S. Grimme                         |     
     |          Mulliken Center for Theoretical Chemistry        |     
     |                    University of Bonn                     |     
      -----------------------------------------------------------      

   * xtb version 6.2.3 (830e466) compiled by 'ehlert@majestix' on 2020-03-16

   xtb is free software: you can redistribute it and/or modify it under
   the terms of the GNU Lesser General Public License as published by
   the Free Software Foundation, either version 3 of the License, or
   (at your option) any later version.
   
   xtb is distributed in the hope that it will be useful,
   but WITHOUT ANY WARRANTY; without even the implied warranty of
   MERCHANTABILITY or FITNESS FOR A PARTICULAR PURPOSE.  See the
   GNU Lesser General Public License for more details.
   
   Cite this work as:
   * S. Grimme, C. Bannwarth, P. Shushkov, J. Chem. Theory Comput., 2017,
     13, 1989-2009. DOI: 10.1021/acs.jctc.7b00118
   * C. Bannwarth, S. Ehlert and S. Grimme., J. Chem. Theory Comput., 2019,
     15, 1652-1671. DOI: 10.1021/acs.jctc.8b01176
   * P. Pracht, E. Caldeweyher, S. Ehlert, S. Grimme, ChemRxiv, 2019, preprint.
     DOI: 10.26434/chemrxiv.8326202.v1
   
   for DFT-D4:
   * E. Caldeweyher, C. Bannwarth and S. Grimme, J. Chem. Phys., 2017,
     147, 034112. DOI: 10.1063/1.4993215
   * E. Caldeweyher, S. Ehlert, A. Hansen, H. Neugebauer, S. Spicher,
     C. Bannwarth and S. Grimme, J. Chem. Phys., 2019, 150, 154122.
     DOI: 10.1063/1.5090222
   
   for sTDA-xTB:
   * S. Grimme and C. Bannwarth, J. Chem. Phys., 2016, 145, 054103.
     DOI: 10.1063/1.4959605
   
   in the mass-spec context:
   * V. Asgeirsson, C. Bauer and S. Grimme, Chem. Sci., 2017, 8, 4879.
     DOI: 10.1039/c7sc00601b
   
   for metadynamics refer to:
   * S. Grimme, J. Chem. Theory Comput., 2019, 155, 2847-2862
     DOI: 10.1021/acs.jctc.9b00143
   
   with help from (in alphabetical order)
   C. Bannwarth, F. Bohle, G. Brandenburg, E. Caldeweyher, M. Checinski,
   S. Dohm, S. Ehlert, S. Ehrlich, F. März, H. Neugebauer, J. Pisarek,
   P. Pracht, P. Shushkov, and S. Spicher.
   
 * started run on 2020/08/20 at 17:46:29.928     

           -------------------------------------------------
          |                Calculation Setup                |
           -------------------------------------------------

          program call               : /u/fd/ball4935/opt/bin/xtb 6_2_xtb.xyz --chrg -1 --grad --gbsa Water
          hostname                   : comp0810
          coordinate file            : 6_2_xtb.xyz
          omp threads                :                     1
          number of atoms            :                     6
          number of electrons        :                    22
          charge                     :                    -1
          spin                       :                   0.0
          first test random number   :      0.89695558195991


molecular fragmentation (1/2 indicates fragments):
122222
# atoms in fragment 1/2:     1     5
 fragment masses (1/2) :       19.00       50.49
CMA distance (Bohr)    :   7.936
constraining FC (au)   :  0.0500
########################################################################
[WARNING] Please study the warnings concerning your input carefully
-2- prog_main: XTBPATH is not set, using XTBHOME instead
-1- prog_main: XTBHOME is not set, using HOME instead
########################################################################
           ------------------------------------------------- 
          |                 G F N 2 - x T B                 |
          | Geometry, Frequencies, Noncovalent interactions |
          |            JCTC 2019 parametrisation            |
           ------------------------------------------------- 
             k(s)              :                1.8500
             k(p)              :                2.2300
             k(d)              :                2.2300
             k(f)              :                2.0000
             kEN (H0ij)        :               -2.0000
             D4 a1             :                0.5200
             D4 a2             :                5.0000
             D4 s6             :                1.0000
             D4 s8             :                2.7000
             D4 s9             :                5.0000
             alphaj            :                2.0000

  Z AO/shell   Hii/eV     exponent
  1     Wed Apr 25 08:07:45 CEST 2018   EN: 2.200 GM2: 0.406  GM3: 0.0800  RAES: 1.40
     1s    -10.707211    1.230000
  6     Wed Apr 25 08:07:45 CEST 2018   EN: 2.550 GM2: 0.538  GM3: 0.1500  RAES: 3.00
     2s    -13.970922    2.096432
     2p    -10.063292    1.800000
  9     Mon Apr 23 13:58:50 CEST 2018   EN: 3.980 GM2: 0.532  GM3: 0.1426  RAES: 2.40
     2s    -23.458179    2.416361
     2p    -15.746583    2.308399
 17     Mon Apr 23 14:09:22 CEST 2018   EN: 3.160 GM2: 0.249  GM3: 0.1495  RAES: 2.50
     3s    -29.278781    2.485265
     3p    -12.673758    2.199650
     3d     -0.240338    2.476089

 Solvent             : Water
 Using internal parameter file: .param_gbsa2_Water
 Gsolv ref. state (COSMO-RS): gsolv [1 M gas/solution]
 temperature (mdtemp)       :    298.150000000000     
 dielectric constant        :    80.2000000000000     
 rho                        :    1.00000000000000     
 mass                       :    18.0000000000000     
 surface tension            :    15.5689454083859     
 probe radius               :   0.975313790000000     
 Gshift (Eh)                :   1.857443126794793E-003
 c1                         :    1.55243817000000     
 soset                      :   0.130326360000000     
 HB correction              :  T
           ------------------------------------------------- 
          |        Self-Consistent Charge Iterations        |
           ------------------------------------------------- 

          ...................................................
          :                      SETUP                      :
          :.................................................:
          :  # basis functions                  21          :
          :  # atomic orbitals                  20          :
          :  # shells                           10          :
          :  # electrons                        22          :
          :  max. iterations                   250          :
          :  Hamiltonian                  GFN2-xTB          :
          :  restarted?                      false          :
          :  GBSA solvation                   true          :
          :  PC potential                    false          :
          :  electronic temp.          300.0000000     K    :
          :  accuracy                    1.0000000          :
          :  -> integral cutoff          0.2500000E+02      :
          :  -> integral neglect         0.1000000E-07      :
          :  -> SCF convergence          0.1000000E-05 Eh   :
          :  -> wf. convergence          0.1000000E-03 e    :
          :  Broyden damping             0.4000000          :
          ...................................................

 iter      E             dE          RMSdq      gap      omega  full diag
   1    -13.1342696 -0.131343E+02  0.839E+00    3.59       0.0  T
   2    -13.0803431  0.539266E-01  0.571E+00    0.81       1.0  T
   3    -13.2264124 -0.146069E+00  0.461E+00    2.14       1.0  T
   4    -13.2681732 -0.417608E-01  0.146E+00    1.42       1.0  T
   5    -13.2678480  0.325176E-03  0.133E+00    1.72       1.0  T
   6    -13.2720504 -0.420240E-02  0.291E-01    1.64       1.0  T
   7    -13.2719654  0.850249E-04  0.250E-01    1.59       1.0  T
   8    -13.2721558 -0.190430E-03  0.992E-02    1.58       1.0  T
   9    -13.2721735 -0.176248E-04  0.606E-02    1.58       1.0  T
  10    -13.2721837 -0.102589E-04  0.162E-02    1.59       2.5  T
  11    -13.2721845 -0.735877E-06  0.381E-03    1.59      10.7  T
  12    -13.2721845 -0.323554E-07  0.102E-03    1.59      40.2  T
  13    -13.2721845 -0.350578E-08  0.423E-04    1.59      96.5  T
  14    -13.2721845 -0.721771E-09  0.565E-06    1.59    7220.8  T

   *** convergence criteria satisfied after 14 iterations ***

         #    Occupation            Energy/Eh            Energy/eV
      -------------------------------------------------------------
         1        2.0000           -1.0046345             -27.3375
       ...           ...                  ...                  ...
         5        2.0000           -0.5030057             -13.6875
         6        2.0000           -0.4253071             -11.5732
         7        2.0000           -0.4040098             -10.9937
         8        2.0000           -0.4040088             -10.9936
         9        2.0000           -0.3951963             -10.7538
        10        2.0000           -0.3914516             -10.6519
        11        2.0000           -0.3914511             -10.6519 (HOMO)
        12                         -0.3329938              -9.0612 (LUMO)
        13                          0.1059813               2.8839
        14                          0.1080782               2.9410
        15                          0.1080815               2.9410
        16                          0.1085485               2.9538
       ...                                ...                  ...
        20                          0.2694780               7.3329
      -------------------------------------------------------------
                  HL-Gap            0.0584573 Eh            1.5907 eV
             Fermi-level           -0.3619013 Eh           -9.8478 eV

 SCC (total)                   0 d,  0 h,  0 min,  0.007 sec
 SCC setup                      ...        0 min,  0.000 sec (  4.549%)
 Dispersion                     ...        0 min,  0.000 sec (  0.463%)
 integral evaluation            ...        0 min,  0.001 sec ( 16.572%)
 zeroth order Hamiltonian       ...        0 min,  0.000 sec (  0.463%)
 iterations                     ...        0 min,  0.004 sec ( 58.590%)
 molecular gradient             ...        0 min,  0.001 sec ( 16.890%)
 printout                       ...        0 min,  0.000 sec (  1.607%)

         :::::::::::::::::::::::::::::::::::::::::::::::::::::
         ::                     SUMMARY                     ::
         :::::::::::::::::::::::::::::::::::::::::::::::::::::
         :: total energy             -13.211179481008 Eh    ::
         :: total w/o Gsasa/hb       -13.209997015743 Eh    ::
         :: gradient norm              0.043000312756 Eh/a0 ::
         :: HOMO-LUMO gap              1.590703705109 eV    ::
         ::.................................................::
         :: SCC energy               -13.269683493817 Eh    ::
         :: -> isotropic ES            0.189241981092 Eh    ::
         :: -> anisotropic ES         -0.003231091624 Eh    ::
         :: -> anisotropic XC          0.005953701663 Eh    ::
         :: -> dispersion             -0.001800883838 Eh    ::
         :: -> Gsolv                  -0.096172941733 Eh    ::
         ::    -> Gborn               -0.094990476469 Eh    ::
         ::    -> Gsasa                0.000643562136 Eh    ::
         ::    -> Ghb                 -0.003683470528 Eh    ::
         ::    -> Gshift               0.001857443127 Eh    ::
         :: repulsion energy           0.058504765940 Eh    ::
         :: add. restraining           0.000000000000 Eh    ::
         :::::::::::::::::::::::::::::::::::::::::::::::::::::

           -------------------------------------------------
          |                Property Printout                |
           -------------------------------------------------

    * Orbital Energies and Occupations

         #    Occupation            Energy/Eh            Energy/eV
      -------------------------------------------------------------
         1        2.0000           -1.0046345             -27.3375
         2        2.0000           -0.6885703             -18.7370
         3        2.0000           -0.5994411             -16.3116
         4        2.0000           -0.5030290             -13.6881
         5        2.0000           -0.5030057             -13.6875
         6        2.0000           -0.4253071             -11.5732
         7        2.0000           -0.4040098             -10.9937
         8        2.0000           -0.4040088             -10.9936
         9        2.0000           -0.3951963             -10.7538
        10        2.0000           -0.3914516             -10.6519
        11        2.0000           -0.3914511             -10.6519 (HOMO)
        12                         -0.3329938              -9.0612 (LUMO)
        13                          0.1059813               2.8839
        14                          0.1080782               2.9410
        15                          0.1080815               2.9410
        16                          0.1085485               2.9538
        17                          0.1094122               2.9773
        18                          0.1094126               2.9773
        19                          0.2689341               7.3181
        20                          0.2694780               7.3329
      -------------------------------------------------------------
                  HL-Gap            0.0584573 Eh            1.5907 eV
             Fermi-level           -0.3619013 Eh           -9.8478 eV

     #   Z        covCN         q      C6AA      α(0)
     1   9 F      0.011    -0.620    17.143     4.822
     2  17 Cl     0.014    -0.777   118.179    16.545
     3   6 C      2.804    -0.005    28.123     8.688
     4   1 H      0.927     0.134     1.506     1.919
     5   1 H      0.926     0.134     1.506     1.919
     6   1 H      0.926     0.134     1.506     1.919

 Mol. C6AA /au·bohr⁶  :        569.043725
 Mol. C8AA /au·bohr⁸  :      16400.009861
 Mol. α(0) /au        :         35.811776


Wiberg/Mayer (AO) data.
largest (>0.10) Wiberg bond orders for each atom
          total WBO             WBO to atom ...
     1  F   0.615        C    3 0.530
     2  Cl  0.397        C    3 0.311
     3  C   3.783        H    4 0.980    H    6 0.980    H    5 0.980    F    1 0.530    Cl   2 0.311
     4  H   0.982        C    3 0.980
     5  H   0.982        C    3 0.980
     6  H   0.982        C    3 0.980

molecular dipole:
                 x           y           z       tot (Debye)
 q only:       -0.105      -0.015      -0.016
   full:        0.056      -0.011      -0.018       0.153
molecular quadrupole (traceless):
                xx          xy          yy          xz          yz          zz
 q only:      -31.408      -1.021      15.697       0.605       0.012      15.711
  q+dip:      -31.625      -1.025      15.805       0.616       0.011      15.820
   full:      -30.726      -0.995      15.356       0.600       0.011      15.370


           -------------------------------------------------
          | TOTAL ENERGY              -13.211179481008 Eh   |
          | GRADIENT NORM               0.043000312756 Eh/α |
          | HOMO-LUMO GAP               1.590703705109 eV   |
           -------------------------------------------------

------------------------------------------------------------------------
 * finished run on 2020/08/20 at 17:46:30.000     
------------------------------------------------------------------------
 total:
 * wall-time:     0 d,  0 h,  0 min,  0.071 sec
 *  cpu-time:     0 d,  0 h,  0 min,  0.019 sec
 * ratio c/w:     0.265 speedup
 SCF:
 * wall-time:     0 d,  0 h,  0 min,  0.007 sec
 *  cpu-time:     0 d,  0 h,  0 min,  0.007 sec
 * ratio c/w:     0.997 speedup

