      -----------------------------------------------------------      
     |                   =====================                   |     
     |                           x T B                           |     
     |                   =====================                   |     
     |                         S. Grimme                         |     
     |          Mulliken Center for Theoretical Chemistry        |     
     |                    University of Bonn                     |     
      -----------------------------------------------------------      

   * xtb version 6.2.3 (830e466) compiled by 'ehlert@majestix' on 2020-03-16

   xtb is free software: you can redistribute it and/or modify it under
   the terms of the GNU Lesser General Public License as published by
   the Free Software Foundation, either version 3 of the License, or
   (at your option) any later version.
   
   xtb is distributed in the hope that it will be useful,
   but WITHOUT ANY WARRANTY; without even the implied warranty of
   MERCHANTABILITY or FITNESS FOR A PARTICULAR PURPOSE.  See the
   GNU Lesser General Public License for more details.
   
   Cite this work as:
   * S. Grimme, C. Bannwarth, P. Shushkov, J. Chem. Theory Comput., 2017,
     13, 1989-2009. DOI: 10.1021/acs.jctc.7b00118
   * C. Bannwarth, S. Ehlert and S. Grimme., J. Chem. Theory Comput., 2019,
     15, 1652-1671. DOI: 10.1021/acs.jctc.8b01176
   * P. Pracht, E. Caldeweyher, S. Ehlert, S. Grimme, ChemRxiv, 2019, preprint.
     DOI: 10.26434/chemrxiv.8326202.v1
   
   for DFT-D4:
   * E. Caldeweyher, C. Bannwarth and S. Grimme, J. Chem. Phys., 2017,
     147, 034112. DOI: 10.1063/1.4993215
   * E. Caldeweyher, S. Ehlert, A. Hansen, H. Neugebauer, S. Spicher,
     C. Bannwarth and S. Grimme, J. Chem. Phys., 2019, 150, 154122.
     DOI: 10.1063/1.5090222
   
   for sTDA-xTB:
   * S. Grimme and C. Bannwarth, J. Chem. Phys., 2016, 145, 054103.
     DOI: 10.1063/1.4959605
   
   in the mass-spec context:
   * V. Asgeirsson, C. Bauer and S. Grimme, Chem. Sci., 2017, 8, 4879.
     DOI: 10.1039/c7sc00601b
   
   for metadynamics refer to:
   * S. Grimme, J. Chem. Theory Comput., 2019, 155, 2847-2862
     DOI: 10.1021/acs.jctc.9b00143
   
   with help from (in alphabetical order)
   C. Bannwarth, F. Bohle, G. Brandenburg, E. Caldeweyher, M. Checinski,
   S. Dohm, S. Ehlert, S. Ehrlich, F. März, H. Neugebauer, J. Pisarek,
   P. Pracht, P. Shushkov, and S. Spicher.
   
 * started run on 2020/08/20 at 17:46:31.821     

           -------------------------------------------------
          |                Calculation Setup                |
           -------------------------------------------------

          program call               : /u/fd/ball4935/opt/bin/xtb 6_7_xtb.xyz --chrg -1 --grad --gbsa Water
          hostname                   : comp0810
          coordinate file            : 6_7_xtb.xyz
          omp threads                :                     1
          number of atoms            :                     6
          number of electrons        :                    22
          charge                     :                    -1
          spin                       :                   0.0
          first test random number   :      0.28269544943660


molecular fragmentation (1/2 indicates fragments):
122222
# atoms in fragment 1/2:     1     5
 fragment masses (1/2) :       19.00       50.49
CMA distance (Bohr)    :   6.727
constraining FC (au)   :  0.0500
########################################################################
[WARNING] Please study the warnings concerning your input carefully
-2- prog_main: XTBPATH is not set, using XTBHOME instead
-1- prog_main: XTBHOME is not set, using HOME instead
########################################################################
           ------------------------------------------------- 
          |                 G F N 2 - x T B                 |
          | Geometry, Frequencies, Noncovalent interactions |
          |            JCTC 2019 parametrisation            |
           ------------------------------------------------- 
             k(s)              :                1.8500
             k(p)              :                2.2300
             k(d)              :                2.2300
             k(f)              :                2.0000
             kEN (H0ij)        :               -2.0000
             D4 a1             :                0.5200
             D4 a2             :                5.0000
             D4 s6             :                1.0000
             D4 s8             :                2.7000
             D4 s9             :                5.0000
             alphaj            :                2.0000

  Z AO/shell   Hii/eV     exponent
  1     Wed Apr 25 08:07:45 CEST 2018   EN: 2.200 GM2: 0.406  GM3: 0.0800  RAES: 1.40
     1s    -10.707211    1.230000
  6     Wed Apr 25 08:07:45 CEST 2018   EN: 2.550 GM2: 0.538  GM3: 0.1500  RAES: 3.00
     2s    -13.970922    2.096432
     2p    -10.063292    1.800000
  9     Mon Apr 23 13:58:50 CEST 2018   EN: 3.980 GM2: 0.532  GM3: 0.1426  RAES: 2.40
     2s    -23.458179    2.416361
     2p    -15.746583    2.308399
 17     Mon Apr 23 14:09:22 CEST 2018   EN: 3.160 GM2: 0.249  GM3: 0.1495  RAES: 2.50
     3s    -29.278781    2.485265
     3p    -12.673758    2.199650
     3d     -0.240338    2.476089

 Solvent             : Water
 Using internal parameter file: .param_gbsa2_Water
 Gsolv ref. state (COSMO-RS): gsolv [1 M gas/solution]
 temperature (mdtemp)       :    298.150000000000     
 dielectric constant        :    80.2000000000000     
 rho                        :    1.00000000000000     
 mass                       :    18.0000000000000     
 surface tension            :    15.5689454083859     
 probe radius               :   0.975313790000000     
 Gshift (Eh)                :   1.857443126794793E-003
 c1                         :    1.55243817000000     
 soset                      :   0.130326360000000     
 HB correction              :  T
           ------------------------------------------------- 
          |        Self-Consistent Charge Iterations        |
           ------------------------------------------------- 

          ...................................................
          :                      SETUP                      :
          :.................................................:
          :  # basis functions                  21          :
          :  # atomic orbitals                  20          :
          :  # shells                           10          :
          :  # electrons                        22          :
          :  max. iterations                   250          :
          :  Hamiltonian                  GFN2-xTB          :
          :  restarted?                      false          :
          :  GBSA solvation                   true          :
          :  PC potential                    false          :
          :  electronic temp.          300.0000000     K    :
          :  accuracy                    1.0000000          :
          :  -> integral cutoff          0.2500000E+02      :
          :  -> integral neglect         0.1000000E-07      :
          :  -> SCF convergence          0.1000000E-05 Eh   :
          :  -> wf. convergence          0.1000000E-03 e    :
          :  Broyden damping             0.4000000          :
          ...................................................

 iter      E             dE          RMSdq      gap      omega  full diag
   1    -13.2094985 -0.132095E+02  0.710E+00    5.96       0.0  T
   2    -13.2999324 -0.904339E-01  0.247E+00    3.55       1.0  T
   3    -13.3085454 -0.861300E-02  0.189E+00    3.99       1.0  T
   4    -13.3104809 -0.193552E-02  0.296E-01    3.64       1.0  T
   5    -13.3106298 -0.148861E-03  0.205E-01    3.84       1.0  T
   6    -13.3107552 -0.125369E-03  0.945E-02    3.81       1.0  T
   7    -13.3107749 -0.197141E-04  0.490E-02    3.80       1.0  T
   8    -13.3107812 -0.629471E-05  0.215E-02    3.80       1.9  T
   9    -13.3107819 -0.696035E-06  0.439E-03    3.81       9.3  T
  10    -13.3107819 -0.623310E-07  0.110E-03    3.81      37.2  T
  11    -13.3107819 -0.125357E-08  0.768E-05    3.81     531.8  T
  12    -13.3107819 -0.114539E-10  0.345E-05    3.81    1182.2  T

   *** convergence criteria satisfied after 12 iterations ***

         #    Occupation            Energy/Eh            Energy/eV
      -------------------------------------------------------------
         1        2.0000           -0.9987632             -27.1777
       ...           ...                  ...                  ...
         5        2.0000           -0.4991028             -13.5813
         6        2.0000           -0.4623355             -12.5808
         7        2.0000           -0.4226492             -11.5009
         8        2.0000           -0.4226451             -11.5008
         9        2.0000           -0.3887535             -10.5785
        10        2.0000           -0.3875796             -10.5466
        11        2.0000           -0.3875782             -10.5465 (HOMO)
        12                         -0.2474612              -6.7338 (LUMO)
        13                          0.1098097               2.9881
        14                          0.1163107               3.1650
        15                          0.1163165               3.1651
        16                          0.1174615               3.1963
       ...                                ...                  ...
        20                          0.2776709               7.5558
      -------------------------------------------------------------
                  HL-Gap            0.1401170 Eh            3.8128 eV
             Fermi-level           -0.3175197 Eh           -8.6401 eV

 SCC (total)                   0 d,  0 h,  0 min,  0.006 sec
 SCC setup                      ...        0 min,  0.000 sec (  4.299%)
 Dispersion                     ...        0 min,  0.000 sec (  0.451%)
 integral evaluation            ...        0 min,  0.001 sec ( 15.320%)
 zeroth order Hamiltonian       ...        0 min,  0.000 sec (  0.539%)
 iterations                     ...        0 min,  0.003 sec ( 57.612%)
 molecular gradient             ...        0 min,  0.001 sec ( 18.701%)
 printout                       ...        0 min,  0.000 sec (  2.259%)

         :::::::::::::::::::::::::::::::::::::::::::::::::::::
         ::                     SUMMARY                     ::
         :::::::::::::::::::::::::::::::::::::::::::::::::::::
         :: total energy             -13.248732145811 Eh    ::
         :: total w/o Gsasa/hb       -13.248439137291 Eh    ::
         :: gradient norm              0.049484447668 Eh/a0 ::
         :: HOMO-LUMO gap              3.812777593170 eV    ::
         ::.................................................::
         :: SCC energy               -13.308409749916 Eh    ::
         :: -> isotropic ES            0.173611314702 Eh    ::
         :: -> anisotropic ES         -0.001527891337 Eh    ::
         :: -> anisotropic XC          0.004907893384 Eh    ::
         :: -> dispersion             -0.001904224393 Eh    ::
         :: -> Gsolv                  -0.091584366319 Eh    ::
         ::    -> Gborn               -0.091291357799 Eh    ::
         ::    -> Gsasa                0.000514753214 Eh    ::
         ::    -> Ghb                 -0.002665204861 Eh    ::
         ::    -> Gshift               0.001857443127 Eh    ::
         :: repulsion energy           0.059677743523 Eh    ::
         :: add. restraining           0.000000000000 Eh    ::
         :::::::::::::::::::::::::::::::::::::::::::::::::::::

           -------------------------------------------------
          |                Property Printout                |
           -------------------------------------------------

    * Orbital Energies and Occupations

         #    Occupation            Energy/Eh            Energy/eV
      -------------------------------------------------------------
         1        2.0000           -0.9987632             -27.1777
         2        2.0000           -0.7181019             -19.5405
         3        2.0000           -0.5901872             -16.0598
         4        2.0000           -0.4992476             -13.5852
         5        2.0000           -0.4991028             -13.5813
         6        2.0000           -0.4623355             -12.5808
         7        2.0000           -0.4226492             -11.5009
         8        2.0000           -0.4226451             -11.5008
         9        2.0000           -0.3887535             -10.5785
        10        2.0000           -0.3875796             -10.5466
        11        2.0000           -0.3875782             -10.5465 (HOMO)
        12                         -0.2474612              -6.7338 (LUMO)
        13                          0.1098097               2.9881
        14                          0.1163107               3.1650
        15                          0.1163165               3.1651
        16                          0.1174615               3.1963
        17                          0.1174619               3.1963
        18                          0.1268427               3.4516
        19                          0.2757002               7.5022
        20                          0.2776709               7.5558
      -------------------------------------------------------------
                  HL-Gap            0.1401170 Eh            3.8128 eV
             Fermi-level           -0.3175197 Eh           -8.6401 eV

     #   Z        covCN         q      C6AA      α(0)
     1   9 F      0.437    -0.528    15.455     4.616
     2  17 Cl     0.235    -0.833   120.798    16.732
     3   6 C      3.452     0.034    22.388     7.152
     4   1 H      0.927     0.109     1.708     2.043
     5   1 H      0.927     0.109     1.705     2.042
     6   1 H      0.927     0.109     1.706     2.042

 Mol. C6AA /au·bohr⁶  :        550.087277
 Mol. C8AA /au·bohr⁸  :      15831.628109
 Mol. α(0) /au        :         34.626883


Wiberg/Mayer (AO) data.
largest (>0.10) Wiberg bond orders for each atom
          total WBO             WBO to atom ...
     1  F   0.722        C    3 0.640
     2  Cl  0.307        C    3 0.229
     3  C   3.827        H    4 0.986    H    6 0.986    H    5 0.986    F    1 0.640    Cl   2 0.229
     4  H   0.988        C    3 0.986
     5  H   0.988        C    3 0.986
     6  H   0.988        C    3 0.986

molecular dipole:
                 x           y           z       tot (Debye)
 q only:       -0.610      -0.024      -0.004
   full:       -0.507      -0.022      -0.006       1.289
molecular quadrupole (traceless):
                xx          xy          yy          xz          yz          zz
 q only:      -21.296      -0.702      10.643       0.397       0.007      10.654
  q+dip:      -23.221      -0.762      11.605       0.439       0.006      11.617
   full:      -22.255      -0.730      11.122       0.421       0.006      11.133


           -------------------------------------------------
          | TOTAL ENERGY              -13.248732145811 Eh   |
          | GRADIENT NORM               0.049484447668 Eh/α |
          | HOMO-LUMO GAP               3.812777593170 eV   |
           -------------------------------------------------

------------------------------------------------------------------------
 * finished run on 2020/08/20 at 17:46:31.895     
------------------------------------------------------------------------
 total:
 * wall-time:     0 d,  0 h,  0 min,  0.073 sec
 *  cpu-time:     0 d,  0 h,  0 min,  0.017 sec
 * ratio c/w:     0.231 speedup
 SCF:
 * wall-time:     0 d,  0 h,  0 min,  0.006 sec
 *  cpu-time:     0 d,  0 h,  0 min,  0.006 sec
 * ratio c/w:     0.997 speedup

