 Entering Gaussian System, Link 0=/usr/local/gaussian/g09/g09
 Input=C2H6_hess_g09.com
 Output=C2H6_hess_g09.log
 Initial command:
 /usr/local/gaussian/g09/l1.exe "/tmp/tmpjjgfcnut/Gau-222469.inp" -scrdir="/tmp/tmpjjgfcnut/"
 Entering Link 1 = /usr/local/gaussian/g09/l1.exe PID=    222470.
  
 Copyright (c) 1988,1990,1992,1993,1995,1998,2003,2009,2013,
            Gaussian, Inc.  All Rights Reserved.
  
 This is part of the Gaussian(R) 09 program.  It is based on
 the Gaussian(R) 03 system (copyright 2003, Gaussian, Inc.),
 the Gaussian(R) 98 system (copyright 1998, Gaussian, Inc.),
 the Gaussian(R) 94 system (copyright 1995, Gaussian, Inc.),
 the Gaussian 92(TM) system (copyright 1992, Gaussian, Inc.),
 the Gaussian 90(TM) system (copyright 1990, Gaussian, Inc.),
 the Gaussian 88(TM) system (copyright 1988, Gaussian, Inc.),
 the Gaussian 86(TM) system (copyright 1986, Carnegie Mellon
 University), and the Gaussian 82(TM) system (copyright 1983,
 Carnegie Mellon University). Gaussian is a federally registered
 trademark of Gaussian, Inc.
  
 This software contains proprietary and confidential information,
 including trade secrets, belonging to Gaussian, Inc.
  
 This software is provided under written license and may be
 used, copied, transmitted, or stored only in accord with that
 written license.
  
 The following legend is applicable only to US Government
 contracts under FAR:
  
                    RESTRICTED RIGHTS LEGEND
  
 Use, reproduction and disclosure by the US Government is
 subject to restrictions as set forth in subparagraphs (a)
 and (c) of the Commercial Computer Software - Restricted
 Rights clause in FAR 52.227-19.
  
 Gaussian, Inc.
 340 Quinnipiac St., Bldg. 40, Wallingford CT 06492
  
  
 ---------------------------------------------------------------
 Warning -- This program may not be used in any manner that
 competes with the business of Gaussian, Inc. or will provide
 assistance to any competitor of Gaussian, Inc.  The licensee
 of this program is prohibited from giving any competitor of
 Gaussian, Inc. access to this program.  By using this program,
 the user acknowledges that Gaussian, Inc. is engaged in the
 business of creating and licensing software in the field of
 computational chemistry and represents and warrants to the
 licensee that it is not a competitor of Gaussian, Inc. and that
 it will not use this program in any manner prohibited above.
 ---------------------------------------------------------------
  

 Cite this work as:
 Gaussian 09, Revision D.01,
 M. J. Frisch, G. W. Trucks, H. B. Schlegel, G. E. Scuseria, 
 M. A. Robb, J. R. Cheeseman, G. Scalmani, V. Barone, B. Mennucci, 
 G. A. Petersson, H. Nakatsuji, M. Caricato, X. Li, H. P. Hratchian, 
 A. F. Izmaylov, J. Bloino, G. Zheng, J. L. Sonnenberg, M. Hada, 
 M. Ehara, K. Toyota, R. Fukuda, J. Hasegawa, M. Ishida, T. Nakajima, 
 Y. Honda, O. Kitao, H. Nakai, T. Vreven, J. A. Montgomery, Jr., 
 J. E. Peralta, F. Ogliaro, M. Bearpark, J. J. Heyd, E. Brothers, 
 K. N. Kudin, V. N. Staroverov, T. Keith, R. Kobayashi, J. Normand, 
 K. Raghavachari, A. Rendell, J. C. Burant, S. S. Iyengar, J. Tomasi, 
 M. Cossi, N. Rega, J. M. Millam, M. Klene, J. E. Knox, J. B. Cross, 
 V. Bakken, C. Adamo, J. Jaramillo, R. Gomperts, R. E. Stratmann, 
 O. Yazyev, A. J. Austin, R. Cammi, C. Pomelli, J. W. Ochterski, 
 R. L. Martin, K. Morokuma, V. G. Zakrzewski, G. A. Voth, 
 P. Salvador, J. J. Dannenberg, S. Dapprich, A. D. Daniels, 
 O. Farkas, J. B. Foresman, J. V. Ortiz, J. Cioslowski, 
 and D. J. Fox, Gaussian, Inc., Wallingford CT, 2013.
 
 ******************************************
 Gaussian 09:  EM64L-G09RevD.01 24-Apr-2013
                 9-Jun-2021 
 ******************************************
 %mem=32000MB
 %nprocshared=8
 Will use up to    8 processors via shared memory.
 ----------------------------------------------------------------------
 # PBE1PBE Def2SVP Freq EmpiricalDispersion=GD3BJ integral=ultrafinegri
 d Temperature=298.15
 ----------------------------------------------------------------------
 1/10=4,30=1,38=1,112=298150/1,3;
 2/12=2,17=6,18=5,40=1/2;
 3/5=43,7=101,11=2,16=1,25=1,30=1,71=2,74=-13,75=-5,124=41,140=1/1,2,3;
 4//1;
 5/5=2,38=5,98=1/2;
 8/6=4,10=90,11=11/1;
 11/6=1,8=1,9=11,15=111,16=1/1,2,10;
 10/6=1/2;
 6/7=2,8=2,9=2,10=2,18=1,28=1/1;
 7/8=1,10=1,25=1/1,2,3,16;
 1/10=4,30=1/3;
 99//99;
 -------------
 C2H6_hess_g09
 -------------
 Symbolic Z-matrix:
 Charge =  0 Multiplicity = 1
 C                     0.75249  -0.06314   0.08226 
 C                    -0.75224   0.06326  -0.0821 
 H                     1.25058  -0.25289  -0.88138 
 H                     1.19248   0.85458   0.50287 
 H                     1.01813  -0.89237   0.75653 
 H                    -1.01825   0.89231  -0.75642 
 H                    -1.2509    0.25255   0.88138 
 H                    -1.19219  -0.85439  -0.50304 
 

 GradGradGradGradGradGradGradGradGradGradGradGradGradGradGradGradGradGrad
 Berny optimization.
 Initialization pass.
 Trust Radius=3.00D-01 FncErr=1.00D-07 GrdErr=1.00D-07
 Number of steps in this run=      2 maximum allowed number of steps=      2.
 GradGradGradGradGradGradGradGradGradGradGradGradGradGradGradGradGradGrad

                          Input orientation:                          
 ---------------------------------------------------------------------
 Center     Atomic      Atomic             Coordinates (Angstroms)
 Number     Number       Type             X           Y           Z
 ---------------------------------------------------------------------
      1          6           0        0.752492   -0.063140    0.082258
      2          6           0       -0.752238    0.063256   -0.082097
      3          1           0        1.250579   -0.252894   -0.881375
      4          1           0        1.192477    0.854575    0.502865
      5          1           0        1.018133   -0.892365    0.756531
      6          1           0       -1.018255    0.892312   -0.756423
      7          1           0       -1.250900    0.252547    0.881378
      8          1           0       -1.192188   -0.854392   -0.503036
 ---------------------------------------------------------------------
                    Distance matrix (angstroms):
                    1          2          3          4          5
     1  C    0.000000
     2  C    1.518947   0.000000
     3  H    1.101220   2.179466   0.000000
     4  H    1.101226   2.179514   1.773692   0.000000
     5  H    1.101283   2.179615   1.773609   1.773849   0.000000
     6  H    2.179867   1.101279   2.544547   2.544517   3.101770
     7  H    2.179869   1.101262   3.101639   2.544760   2.544587
     8  H    2.179548   1.101283   2.544023   3.101456   2.544301
                    6          7          8
     6  H    0.000000
     7  H    1.773645   0.000000
     8  H    1.773537   1.773517   0.000000
 Stoichiometry    C2H6
 Framework group  C1[X(C2H6)]
 Deg. of freedom    18
 Full point group                 C1      NOp   1
 Largest Abelian subgroup         C1      NOp   1
 Largest concise Abelian subgroup C1      NOp   1
                         Standard orientation:                         
 ---------------------------------------------------------------------
 Center     Atomic      Atomic             Coordinates (Angstroms)
 Number     Number       Type             X           Y           Z
 ---------------------------------------------------------------------
      1          6           0       -0.759525    0.000034   -0.000040
      2          6           0        0.759423    0.000021   -0.000027
      3          1           0       -1.164479    0.125401    1.016317
      4          1           0       -1.164525    0.817556   -0.616749
      5          1           0       -1.164645   -0.942931   -0.399436
      6          1           0        1.164907    0.942798    0.399436
      7          1           0        1.164925   -0.125811   -1.016153
      8          1           0        1.164429   -0.817346    0.616986
 ---------------------------------------------------------------------
 Rotational constants (GHZ):     79.7022060     20.0423157     20.0420140
 Standard basis: def2SVP (5D, 7F)
 There are    60 symmetry adapted cartesian basis functions of A   symmetry.
 There are    58 symmetry adapted basis functions of A   symmetry.
    58 basis functions,    92 primitive gaussians,    60 cartesian basis functions
     9 alpha electrons        9 beta electrons
       nuclear repulsion energy        42.1304997877 Hartrees.
 NAtoms=    8 NActive=    8 NUniq=    8 SFac= 1.00D+00 NAtFMM=   60 NAOKFM=F Big=F
 Integral buffers will be    131072 words long.
 Raffenetti 2 integral format.
 Two-electron integral symmetry is turned on.
 Nuclear repulsion after empirical dispersion term =       42.1278491593 Hartrees.
 One-electron integrals computed using PRISM.
   1 Symmetry operations used in ECPInt.
 ECPInt:  NShTT=     465 NPrTT=    1529 LenC2=     466 LenP2D=    1445.
 LDataN:  DoStor=T MaxTD1= 4 Len=   56
 NBasis=    58 RedAO= T EigKep=  4.43D-03  NBF=    58
 NBsUse=    58 1.00D-06 EigRej= -1.00D+00 NBFU=    58
 ExpMin= 1.22D-01 ExpMax= 1.24D+03 ExpMxC= 1.86D+02 IAcc=3 IRadAn=         5 AccDes= 0.00D+00
 Harris functional with IExCor= 1009 and IRadAn=       5 diagonalized for initial guess.
 HarFok:  IExCor= 1009 AccDes= 0.00D+00 IRadAn=         5 IDoV= 1 UseB2=F ITyADJ=14
 ICtDFT=  3500011 ScaDFX=  1.000000  1.000000  1.000000  1.000000
 FoFCou: FMM=F IPFlag=           0 FMFlag=      100000 FMFlg1=           0
         NFxFlg=           0 DoJE=T BraDBF=F KetDBF=T FulRan=T
         wScrn=  0.000000 ICntrl=     500 IOpCl=  0 I1Cent=   200000004 NGrid=           0
         NMat0=    1 NMatS0=      1 NMatT0=    0 NMatD0=    1 NMtDS0=    0 NMtDT0=    0
 Petite list used in FoFCou.
 Keep R1 ints in memory in canonical form, NReq=2378936.
 Requested convergence on RMS density matrix=1.00D-08 within 128 cycles.
 Requested convergence on MAX density matrix=1.00D-06.
 Requested convergence on             energy=1.00D-06.
 No special actions if energy rises.
 Integral accuracy reduced to 1.0D-05 until final iterations.
 Initial convergence to 1.0D-05 achieved.  Increase integral accuracy.
 SCF Done:  E(RPBE1PBE) =  -79.6667221287     A.U. after    9 cycles
            NFock=  9  Conv=0.15D-08     -V/T= 2.0136
 DoSCS=F DFT=T ScalE2(SS,OS)=  1.000000  1.000000
 Range of M.O.s used for correlation:     1    58
 NBasis=    58 NAE=     9 NBE=     9 NFC=     0 NFV=     0
 NROrb=     58 NOA=     9 NOB=     9 NVA=    49 NVB=    49
   1 Symmetry operations used in ECPInt.
 ECPInt:  NShTT=     465 NPrTT=    1529 LenC2=     466 LenP2D=    1445.
 LDataN:  DoStor=T MaxTD1= 5 Len=  102
 Symmetrizing basis deriv contribution to polar:
 IMax=3 JMax=2 DiffMx= 0.00D+00
 G2DrvN: will do     9 centers at a time, making    1 passes.
 Calling FoFCou, ICntrl=  3107 FMM=F I1Cent=   0 AccDes= 0.00D+00.
 End of G2Drv F.D. properties file   721 does not exist.
 End of G2Drv F.D. properties file   722 does not exist.
 End of G2Drv F.D. properties file   788 does not exist.
          IDoAtm=11111111
          Differentiating once with respect to electric field.
                with respect to dipole field.
          Differentiating once with respect to nuclear coordinates.
 Keep R1 ints in memory in canonical form, NReq=2348537.
          There are    27 degrees of freedom in the 1st order CPHF.  IDoFFX=6 NUNeed=     3.
     24 vectors produced by pass  0 Test12= 1.63D-15 3.70D-09 XBig12= 1.18D+01 1.81D+00.
 AX will form    24 AO Fock derivatives at one time.
     24 vectors produced by pass  1 Test12= 1.63D-15 3.70D-09 XBig12= 3.17D-01 2.03D-01.
     24 vectors produced by pass  2 Test12= 1.63D-15 3.70D-09 XBig12= 3.20D-03 1.75D-02.
     24 vectors produced by pass  3 Test12= 1.63D-15 3.70D-09 XBig12= 2.58D-06 6.41D-04.
     24 vectors produced by pass  4 Test12= 1.63D-15 3.70D-09 XBig12= 2.69D-09 2.12D-05.
      9 vectors produced by pass  5 Test12= 1.63D-15 3.70D-09 XBig12= 2.37D-12 6.35D-07.
      3 vectors produced by pass  6 Test12= 1.63D-15 3.70D-09 XBig12= 1.11D-15 1.13D-08.
 InvSVY:  IOpt=1 It=  1 EMax= 8.88D-16
 Solved reduced A of dimension   132 with    27 vectors.
 Isotropic polarizability for W=    0.000000       23.98 Bohr**3.
 End of Minotr F.D. properties file   721 does not exist.
 End of Minotr F.D. properties file   722 does not exist.
 End of Minotr F.D. properties file   788 does not exist.

 **********************************************************************

            Population analysis using the SCF density.

 **********************************************************************

 Orbital symmetries:
       Occupied  (A) (A) (A) (A) (A) (A) (A) (A) (A)
       Virtual   (A) (A) (A) (A) (A) (A) (A) (A) (A) (A) (A) (A)
                 (A) (A) (A) (A) (A) (A) (A) (A) (A) (A) (A) (A)
                 (A) (A) (A) (A) (A) (A) (A) (A) (A) (A) (A) (A)
                 (A) (A) (A) (A) (A) (A) (A) (A) (A) (A) (A) (A)
                 (A)
 The electronic state is 1-A.
 Alpha  occ. eigenvalues --  -10.22234 -10.22226  -0.76575  -0.62268  -0.44384
 Alpha  occ. eigenvalues --   -0.44383  -0.38202  -0.34849  -0.34848
 Alpha virt. eigenvalues --    0.07698   0.12328   0.13650   0.13651   0.17008
 Alpha virt. eigenvalues --    0.17009   0.24738   0.42858   0.42862   0.44206
 Alpha virt. eigenvalues --    0.53943   0.53952   0.63886   0.66252   0.69522
 Alpha virt. eigenvalues --    0.69525   0.70616   0.71787   0.71787   0.78397
 Alpha virt. eigenvalues --    0.98720   1.10978   1.10983   1.37207   1.37213
 Alpha virt. eigenvalues --    1.55161   1.55627   1.74396   1.78837   1.78841
 Alpha virt. eigenvalues --    1.79806   1.79810   1.83257   1.83267   1.87276
 Alpha virt. eigenvalues --    2.04647   2.04660   2.24828   2.37570   2.37580
 Alpha virt. eigenvalues --    2.45662   2.56282   2.56297   2.65133   2.84906
 Alpha virt. eigenvalues --    2.96683   2.96691   3.03286   3.03296
          Condensed to atoms (all electrons):
               1          2          3          4          5          6
     1  C    4.584571   0.435521   0.398118   0.398131   0.398123  -0.026271
     2  C    0.435521   4.584792  -0.026286  -0.026305  -0.026284   0.398116
     3  H    0.398118  -0.026286   0.639674  -0.025225  -0.025237  -0.006889
     4  H    0.398131  -0.026305  -0.025225   0.639626  -0.025221  -0.006892
     5  H    0.398123  -0.026284  -0.025237  -0.025221   0.639637   0.007514
     6  H   -0.026271   0.398116  -0.006889  -0.006892   0.007514   0.639671
     7  H   -0.026278   0.398120   0.007516  -0.006884  -0.006893  -0.025241
     8  H   -0.026287   0.398089  -0.006900   0.007519  -0.006891  -0.025238
               7          8
     1  C   -0.026278  -0.026287
     2  C    0.398120   0.398089
     3  H    0.007516  -0.006900
     4  H   -0.006884   0.007519
     5  H   -0.006893  -0.006891
     6  H   -0.025241  -0.025238
     7  H    0.639671  -0.025239
     8  H   -0.025239   0.639747
 Mulliken charges:
               1
     1  C   -0.135627
     2  C   -0.135763
     3  H    0.045229
     4  H    0.045251
     5  H    0.045251
     6  H    0.045230
     7  H    0.045229
     8  H    0.045200
 Sum of Mulliken charges =   0.00000
 Mulliken charges with hydrogens summed into heavy atoms:
               1
     1  C    0.000104
     2  C   -0.000104
 APT charges:
               1
     1  C    0.056766
     2  C    0.056847
     3  H   -0.018918
     4  H   -0.018903
     5  H   -0.018908
     6  H   -0.018945
     7  H   -0.018945
     8  H   -0.018994
 Sum of APT charges =   0.00000
 APT charges with hydrogens summed into heavy atoms:
               1
     1  C    0.000037
     2  C   -0.000037
 Electronic spatial extent (au):  <R**2>=            109.6001
 Charge=              0.0000 electrons
 Dipole moment (field-independent basis, Debye):
    X=              0.0000    Y=             -0.0001    Z=              0.0002  Tot=              0.0002
 Quadrupole moment (field-independent basis, Debye-Ang):
   XX=            -15.3344   YY=            -14.7623   ZZ=            -14.7627
   XY=              0.0004   XZ=             -0.0003   YZ=              0.0000
 Traceless Quadrupole moment (field-independent basis, Debye-Ang):
   XX=             -0.3813   YY=              0.1908   ZZ=              0.1904
   XY=              0.0004   XZ=             -0.0003   YZ=              0.0000
 Octapole moment (field-independent basis, Debye-Ang**2):
  XXX=              0.0019  YYY=              0.0000  ZZZ=              0.0010  XYY=             -0.0010
  XXY=              0.0002  XXZ=             -0.0002  XZZ=             -0.0001  YZZ=             -0.0002
  YYZ=             -0.0004  XYZ=              0.0007
 Hexadecapole moment (field-independent basis, Debye-Ang**3):
 XXXX=            -93.1131 YYYY=            -29.0807 ZZZZ=            -29.0797 XXXY=              0.0020
 XXXZ=             -0.0014 YYYX=              0.4609 YYYZ=             -0.0002 ZZZX=             -1.1924
 ZZZY=              0.0001 XXYY=            -19.2353 XXZZ=            -19.2355 YYZZ=             -9.6932
 XXYZ=              0.0007 YYXZ=              1.1918 ZZXY=             -0.4604
 N-N= 4.212784915929D+01 E-N=-2.675595666651D+02  KE= 7.859535179581D+01
  Exact polarizability:  25.555   0.001  23.195   0.000   0.000  23.194
 Approx polarizability:  28.917   0.002  28.979  -0.001  -0.001  28.977
   1 Symmetry operations used in ECPInt.
 ECPInt:  NShTT=     465 NPrTT=    1529 LenC2=     466 LenP2D=    1445.
 LDataN:  DoStor=T MaxTD1= 6 Len=  172
 Calling FoFJK, ICntrl=    100127 FMM=F ISym2X=0 I1Cent= 0 IOpClX= 0 NMat=1 NMatS=1 NMatT=0.
 Full mass-weighted force constant matrix:
 Low frequencies ---  -11.4351   -8.4517   -0.0013   -0.0008   -0.0006    5.7850
 Low frequencies ---  320.6616  820.4488  820.5521
 Diagonal vibrational polarizability:
        0.1538136       0.5063199       0.5064811
 Harmonic frequencies (cm**-1), IR intensities (KM/Mole), Raman scattering
 activities (A**4/AMU), depolarization ratios for plane and unpolarized
 incident light, reduced masses (AMU), force constants (mDyne/A),
 and normal coordinates:
                      1                      2                      3
                      A                      A                      A
 Frequencies --    320.6616               820.4487               820.5521
 Red. masses --      1.0078                 1.0590                 1.0590
 Frc consts  --      0.0611                 0.4200                 0.4201
 IR Inten    --      0.0000                 6.4443                 6.4431
  Atom  AN      X      Y      Z        X      Y      Z        X      Y      Z
     1   6     0.00   0.00   0.00     0.00  -0.01  -0.05     0.00  -0.05   0.01
     2   6     0.00   0.00   0.00     0.00  -0.01  -0.05     0.00  -0.05   0.01
     3   1     0.00  -0.41   0.05     0.51   0.03   0.15    -0.02   0.23  -0.03
     4   1     0.00   0.25   0.33    -0.24   0.06   0.20     0.45   0.17   0.00
     5   1     0.00   0.16  -0.38    -0.27   0.00   0.21    -0.43   0.17  -0.06
     6   1     0.00   0.16  -0.38    -0.27   0.00   0.21    -0.43   0.17  -0.06
     7   1     0.00  -0.41   0.05     0.51   0.03   0.15    -0.02   0.23  -0.03
     8   1     0.00   0.25   0.33    -0.24   0.06   0.20     0.45   0.17   0.00
                      4                      5                      6
                      A                      A                      A
 Frequencies --   1038.9684              1203.6687              1203.7486
 Red. masses --      2.7959                 1.4823                 1.4823
 Frc consts  --      1.7782                 1.2653                 1.2655
 IR Inten    --      0.0000                 0.0000                 0.0000
  Atom  AN      X      Y      Z        X      Y      Z        X      Y      Z
     1   6     0.29   0.00   0.00     0.00   0.07   0.13     0.00   0.13  -0.07
     2   6    -0.29   0.00   0.00     0.00  -0.07  -0.13     0.00  -0.13   0.07
     3   1     0.37   0.00   0.03    -0.45  -0.11  -0.03     0.18  -0.25   0.05
     4   1     0.37   0.02  -0.02     0.07  -0.16  -0.23    -0.48  -0.06   0.00
     5   1     0.37  -0.02  -0.01     0.38   0.03  -0.17     0.30  -0.12   0.19
     6   1    -0.37   0.02   0.01    -0.39  -0.03   0.17    -0.30   0.12  -0.19
     7   1    -0.37   0.00  -0.03     0.45   0.11   0.03    -0.18   0.25  -0.05
     8   1    -0.37  -0.02   0.02    -0.07   0.16   0.23     0.48   0.06   0.00
                      7                      8                      9
                      A                      A                      A
 Frequencies --   1378.9697              1417.3629              1475.3254
 Red. masses --      1.1966                 1.3355                 1.0148
 Frc consts  --      1.3406                 1.5807                 1.3014
 IR Inten    --      0.7915                 0.0000                 0.0837
  Atom  AN      X      Y      Z        X      Y      Z        X      Y      Z
     1   6     0.09   0.00   0.00     0.12   0.00   0.00     0.00   0.00  -0.02
     2   6     0.09   0.00   0.00    -0.12   0.00   0.00     0.00   0.00   0.01
     3   1    -0.37  -0.02  -0.17    -0.36  -0.02  -0.18    -0.32   0.02  -0.13
     4   1    -0.37  -0.14   0.10    -0.36  -0.15   0.11     0.14   0.32   0.33
     5   1    -0.37   0.16   0.07    -0.36   0.17   0.07     0.17  -0.23   0.37
     6   1    -0.37   0.16   0.07     0.36  -0.17  -0.07    -0.14   0.20  -0.33
     7   1    -0.37  -0.02  -0.17     0.36   0.02   0.18     0.28   0.02   0.11
     8   1    -0.37  -0.13   0.10     0.36   0.15  -0.11    -0.14  -0.27  -0.27
                     10                     11                     12
                      A                      A                      A
 Frequencies --   1475.3463              1475.9284              1475.9552
 Red. masses --      1.0145                 1.0597                 1.0592
 Frc consts  --      1.3011                 1.3600                 1.3595
 IR Inten    --      0.0235                10.8005                10.6930
  Atom  AN      X      Y      Z        X      Y      Z        X      Y      Z
     1   6     0.00  -0.02   0.00     0.00   0.04  -0.03     0.00   0.03   0.03
     2   6     0.00   0.02   0.00     0.00   0.04  -0.03     0.00   0.03   0.04
     3   1     0.00   0.49  -0.06    -0.13  -0.42  -0.02     0.16  -0.27   0.12
     4   1    -0.27   0.06   0.26     0.22   0.13  -0.03     0.03  -0.27  -0.38
     5   1     0.27   0.00  -0.27    -0.09  -0.13   0.44    -0.18   0.17  -0.12
     6   1    -0.25  -0.01   0.28    -0.09  -0.14   0.46    -0.23   0.21  -0.16
     7   1    -0.02  -0.46   0.05    -0.14  -0.42  -0.03     0.21  -0.31   0.15
     8   1     0.26  -0.04  -0.22     0.23   0.14  -0.03     0.03  -0.32  -0.45
                     13                     14                     15
                      A                      A                      A
 Frequencies --   3054.9653              3056.7061              3135.3732
 Red. masses --      1.0354                 1.0402                 1.1033
 Frc consts  --      5.6932                 5.7262                 6.3901
 IR Inten    --     49.3223                 0.1355                 0.0017
  Atom  AN      X      Y      Z        X      Y      Z        X      Y      Z
     1   6    -0.03   0.00   0.00     0.04   0.00   0.00     0.00  -0.06  -0.02
     2   6    -0.04   0.00   0.00    -0.04   0.00   0.00     0.00   0.06   0.02
     3   1     0.13  -0.04  -0.36    -0.15   0.05   0.40    -0.09   0.02   0.23
     4   1     0.13  -0.29   0.22    -0.15   0.32  -0.24    -0.12   0.24  -0.19
     5   1     0.13   0.33   0.14    -0.15  -0.37  -0.16     0.20   0.49   0.21
     6   1     0.15   0.37   0.16     0.14   0.33   0.14    -0.21  -0.49  -0.21
     7   1     0.15  -0.05  -0.40     0.13  -0.04  -0.36     0.09  -0.02  -0.22
     8   1     0.15  -0.32   0.24     0.14  -0.29   0.22     0.12  -0.24   0.20
                     16                     17                     18
                      A                      A                      A
 Frequencies --   3135.5676              3155.9253              3156.1252
 Red. masses --      1.1033                 1.1039                 1.1039
 Frc consts  --      6.3909                 6.4780                 6.4788
 IR Inten    --      0.0078                42.7078                42.7053
  Atom  AN      X      Y      Z        X      Y      Z        X      Y      Z
     1   6     0.00   0.02  -0.06     0.00   0.06   0.02     0.00  -0.02   0.06
     2   6     0.00  -0.02   0.06     0.00   0.06   0.02     0.00  -0.02   0.06
     3   1    -0.19   0.06   0.48     0.09  -0.02  -0.23     0.19  -0.06  -0.48
     4   1     0.17  -0.35   0.25     0.12  -0.24   0.19    -0.18   0.36  -0.27
     5   1     0.02   0.05   0.01    -0.21  -0.49  -0.21    -0.01  -0.04  -0.01
     6   1    -0.02  -0.05  -0.01    -0.21  -0.49  -0.21    -0.02  -0.04  -0.01
     7   1     0.19  -0.07  -0.49     0.09  -0.02  -0.23     0.19  -0.06  -0.47
     8   1    -0.17   0.36  -0.26     0.12  -0.23   0.19    -0.17   0.35  -0.26

 -------------------
 - Thermochemistry -
 -------------------
 Temperature   298.150 Kelvin.  Pressure   1.00000 Atm.
 Atom     1 has atomic number  6 and mass  12.00000
 Atom     2 has atomic number  6 and mass  12.00000
 Atom     3 has atomic number  1 and mass   1.00783
 Atom     4 has atomic number  1 and mass   1.00783
 Atom     5 has atomic number  1 and mass   1.00783
 Atom     6 has atomic number  1 and mass   1.00783
 Atom     7 has atomic number  1 and mass   1.00783
 Atom     8 has atomic number  1 and mass   1.00783
 Molecular mass:    30.04695 amu.
 Principal axes and moments of inertia in atomic units:
                           1         2         3
     Eigenvalues --    22.64355  90.04654  90.04790
           X            1.00000   0.00000   0.00000
           Y            0.00000   1.00000   0.00002
           Z            0.00000  -0.00002   1.00000
 This molecule is an asymmetric top.
 Rotational symmetry number  1.
 Rotational temperatures (Kelvin)      3.82510     0.96188     0.96186
 Rotational constants (GHZ):          79.70221    20.04232    20.04201
 Zero-point vibrational energy     196197.1 (Joules/Mol)
                                   46.89224 (Kcal/Mol)
 Warning -- explicit consideration of   1 degrees of freedom as
           vibrations may cause significant error
 Vibrational temperatures:    461.36  1180.44  1180.59  1494.84  1731.81
          (Kelvin)           1731.92  1984.03  2039.27  2122.66  2122.69
                             2123.53  2123.57  4395.41  4397.91  4511.10
                             4511.38  4540.67  4540.95
 
 Zero-point correction=                           0.074728 (Hartree/Particle)
 Thermal correction to Energy=                    0.078202
 Thermal correction to Enthalpy=                  0.079146
 Thermal correction to Gibbs Free Energy=         0.051627
 Sum of electronic and zero-point Energies=            -79.591995
 Sum of electronic and thermal Energies=               -79.588520
 Sum of electronic and thermal Enthalpies=             -79.587576
 Sum of electronic and thermal Free Energies=          -79.615095
 
                     E (Thermal)             CV                S
                      KCal/Mol        Cal/Mol-Kelvin    Cal/Mol-Kelvin
 Total                   49.072             10.112             57.919
 Electronic               0.000              0.000              0.000
 Translational            0.889              2.981             36.134
 Rotational               0.889              2.981             19.846
 Vibrational             47.295              4.151              1.939
 Vibration     1          0.706              1.634              1.307
                       Q            Log10(Q)             Ln(Q)
 Total Bot       0.179190D-23        -23.746686        -54.678766
 Total V=0       0.422204D+11         10.625523         24.466170
 Vib (Bot)       0.570649D-34        -34.243631        -78.848875
 Vib (Bot)    1  0.586001D+00         -0.232101         -0.534433
 Vib (V=0)       0.134455D+01          0.128578          0.296061
 Vib (V=0)    1  0.127032D+01          0.103914          0.239271
 Electronic      0.100000D+01          0.000000          0.000000
 Translational   0.647375D+07          6.811156         15.683266
 Rotational      0.485053D+04          3.685789          8.486843
 ***** Axes restored to original set *****
 -------------------------------------------------------------------
 Center     Atomic                   Forces (Hartrees/Bohr)
 Number     Number              X              Y              Z
 -------------------------------------------------------------------
      1        6          -0.000118257    0.000002235   -0.000003028
      2        6           0.000002000   -0.000055951   -0.000021911
      3        1           0.000048924    0.000005699   -0.000004220
      4        1           0.000056187   -0.000012205    0.000014806
      5        1           0.000029849    0.000034503   -0.000001532
      6        1           0.000002931   -0.000002551    0.000014748
      7        1           0.000001283    0.000012058   -0.000002215
      8        1          -0.000022917    0.000016211    0.000003352
 -------------------------------------------------------------------
 Cartesian Forces:  Max     0.000118257 RMS     0.000033448

 GradGradGradGradGradGradGradGradGradGradGradGradGradGradGradGradGradGrad
 Berny optimization.
 Search for a local minimum.
 Step number   1 out of a maximum of    2
 All quantities printed in internal units (Hartrees-Bohrs-Radians)
 Second derivative matrix not updated -- analytic derivatives used.
 ITU=  0
     Eigenvalues ---    0.00392   0.03005   0.03005   0.06102   0.08182
     Eigenvalues ---    0.08183   0.10196   0.10196   0.13467   0.13468
     Eigenvalues ---    0.14513   0.26996   0.46880   0.69709   0.69717
     Eigenvalues ---    0.81235   0.81241   0.81255
 Angle between quadratic step and forces=  52.47 degrees.
 Linear search not attempted -- first point.
 TrRot= -0.000058 -0.000035 -0.000034  0.000004  0.000000  0.000004
 Variable       Old X    -DE/DX   Delta X   Delta X   Delta X     New X
                                 (Linear)    (Quad)   (Total)
    X1        1.42200  -0.00012   0.00000  -0.00019  -0.00025   1.42176
    Y1       -0.11932   0.00000   0.00000   0.00000  -0.00003  -0.11934
    Z1        0.15545   0.00000   0.00000  -0.00009  -0.00013   0.15532
    X2       -1.42152   0.00000   0.00000  -0.00013  -0.00019  -1.42171
    Y2        0.11954  -0.00006   0.00000  -0.00019  -0.00024   0.11930
    Z2       -0.15514  -0.00002   0.00000  -0.00009  -0.00013  -0.15527
    X3        2.36325   0.00005   0.00000   0.00067   0.00062   2.36387
    Y3       -0.47790   0.00001   0.00000   0.00035   0.00033  -0.47757
    Z3       -1.66556   0.00000   0.00000   0.00018   0.00015  -1.66541
    X4        2.25345   0.00006   0.00000   0.00034   0.00027   2.25372
    Y4        1.61491  -0.00001   0.00000  -0.00034  -0.00035   1.61456
    Z4        0.95028   0.00001   0.00000   0.00028   0.00025   0.95053
    X5        1.92399   0.00003   0.00000   0.00044   0.00040   1.92439
    Y5       -1.68633   0.00003   0.00000   0.00025   0.00023  -1.68610
    Z5        1.42964   0.00000   0.00000  -0.00009  -0.00012   1.42951
    X6       -1.92422   0.00000   0.00000  -0.00005  -0.00012  -1.92434
    Y6        1.68623   0.00000   0.00000  -0.00012  -0.00017   1.68605
    Z6       -1.42943   0.00001   0.00000   0.00000  -0.00003  -1.42947
    X7       -2.36386   0.00000   0.00000   0.00010   0.00003  -2.36382
    Y7        0.47724   0.00001   0.00000   0.00033   0.00027   0.47752
    Z7        1.66556   0.00000   0.00000  -0.00007  -0.00011   1.66545
    X8       -2.25291  -0.00002   0.00000  -0.00072  -0.00076  -2.25367
    Y8       -1.61457   0.00002   0.00000   0.00001  -0.00004  -1.61461
    Z8       -0.95060   0.00000   0.00000   0.00016   0.00012  -0.95048
         Item               Value     Threshold  Converged?
 Maximum Force            0.000118     0.000450     YES
 RMS     Force            0.000033     0.000300     YES
 Maximum Displacement     0.000764     0.001800     YES
 RMS     Displacement     0.000283     0.001200     YES
 Predicted change in Energy=-7.011928D-08
 Optimization completed.
    -- Stationary point found.
 GradGradGradGradGradGradGradGradGradGradGradGradGradGradGradGradGradGrad

 1\1\GINC-COMP0808\Freq\RPBE1PBE\def2SVP\C2H6\BALL4935\09-Jun-2021\0\\#
  PBE1PBE Def2SVP Freq EmpiricalDispersion=GD3BJ integral=ultrafinegrid
  Temperature=298.15\\C2H6_hess_g09\\0,1\C,0.752492,-0.06314,0.082258\C
 ,-0.752238,0.063256,-0.082097\H,1.250579,-0.252894,-0.881375\H,1.19247
 7,0.854575,0.502865\H,1.018133,-0.892365,0.756531\H,-1.018255,0.892312
 ,-0.756423\H,-1.2509,0.252547,0.881378\H,-1.192188,-0.854392,-0.503036
 \\Version=EM64L-G09RevD.01\State=1-A\HF=-79.6667221\RMSD=1.482e-09\RMS
 F=3.345e-05\ZeroPoint=0.0747275\Thermal=0.0782019\Dipole=-0.000005,-0.
 0000609,-0.0000628\DipoleDeriv=0.0647069,-0.000991,0.0013695,-0.000964
 9,0.0528102,-0.000119,0.0013655,-0.0001109,0.052781,0.0648569,-0.00106
 99,0.0012921,-0.0010231,0.0527908,-0.0001206,0.0012929,-0.0001346,0.05
 28928,-0.0354064,0.0199612,0.0630178,0.0244387,0.0663234,-0.0296485,0.
 093659,-0.0326881,-0.0876714,-0.0256954,-0.0523294,-0.0344699,-0.08106
 46,-0.072538,-0.0683464,-0.0456717,-0.0642425,0.0415238,-0.0035553,0.0
 333424,-0.0299185,0.0576183,-0.0465467,0.0981159,-0.0493173,0.0970537,
 -0.0066217,-0.0036313,0.0334275,-0.0299444,0.0576393,-0.0465523,0.0981
 247,-0.0493095,0.0971257,-0.0066517,-0.0355252,0.0200103,0.063129,0.02
 44231,0.0663782,-0.0295702,0.0936831,-0.0326445,-0.087687,-0.0257502,-
 0.0523511,-0.0344757,-0.0810668,-0.0726656,-0.0684359,-0.0457019,-0.06
 43589,0.0414342\Polar=25.5107365,-0.1955797,23.2120044,0.2529903,-0.02
 16014,23.2215291\PG=C01 [X(C2H6)]\NImag=0\\0.50258583,0.00644862,0.578
 33865,-0.00833377,0.00077730,0.57789229,-0.22672911,0.01232760,-0.0160
 3106,0.50275991,0.01231909,-0.08094962,0.00135152,0.00632699,0.5780935
 5,-0.01603985,0.00135044,-0.08167263,-0.00834261,0.00066304,0.57781030
 ,-0.09750432,0.02032298,0.10502328,-0.01406172,0.00561943,0.02966572,0
 .10828230,0.02052705,-0.05485468,-0.04168502,0.00081189,-0.00125417,-0
 .00197105,-0.02300438,0.05335537,0.10643569,-0.04182615,-0.26144931,-0
 .00346070,0.00133518,0.00593155,-0.11452463,0.04522082,0.27703430,-0.0
 8559019,-0.08766582,-0.03972760,-0.01238446,-0.02840235,-0.01272173,0.
 00494795,0.01258820,0.00450513,0.09526258,-0.08898700,-0.24128591,-0.0
 8855449,0.00265519,0.00469841,0.00255618,-0.00127839,-0.00345837,0.000
 05126,0.09584322,0.25518387,-0.04024118,-0.08836356,-0.08695078,-0.000
 59709,-0.00185285,-0.00169391,-0.01161220,-0.02318429,-0.00910970,0.04
 461562,0.09584080,0.08822279,-0.05913174,0.04549590,-0.03691204,-0.007
 21232,0.02586438,-0.02095637,0.00240348,-0.01137018,0.00760034,0.00188
 405,-0.00857721,0.00846093,0.06627148,0.04661201,-0.20409896,0.1277789
 3,-0.00038227,-0.00059534,-0.00024992,-0.00195800,0.00497601,-0.005036
 59,0.00631148,-0.01762383,0.01688153,-0.05133898,0.21516090,-0.0378048
 1,0.12773043,-0.15049869,0.00004150,0.00085263,-0.00156840,-0.00695000
 ,0.02125974,-0.01500953,0.00356998,-0.01043326,0.00812647,0.04197580,-
 0.13864400,0.15714527,-0.00720325,0.02585902,-0.02094581,-0.05918322,0
 .04556187,-0.03696287,0.00132671,0.00007628,0.00043883,0.00135222,-0.0
 0039342,-0.00008140,-0.00689350,0.00024359,-0.00052711,0.06630798,-0.0
 0038688,-0.00058770,-0.00025850,0.04667299,-0.20403673,0.12777363,0.00
 025868,-0.00003443,-0.00011809,0.00025515,0.00080625,-0.00030212,0.000
 24263,0.00140860,-0.00030991,-0.05139497,0.21512270,0.00004186,0.00085
 031,-0.00156767,-0.03785229,0.12772965,-0.15050622,-0.00016432,-0.0004
 9969,0.00071655,-0.00014130,0.00004436,-0.00014530,-0.00052714,-0.0003
 0980,0.00123370,0.04202445,-0.13863659,0.15714901,-0.01404332,0.005612
 37,0.02965140,-0.09762458,0.02029682,0.10508311,-0.00662043,0.00054241
 ,-0.00150279,0.00122482,-0.00050416,0.00006548,0.00132743,0.00025764,-
 0.00016393,0.00240790,-0.00195760,-0.00695064,0.10838056,0.00081106,-0
 .00125589,-0.00196672,0.02049661,-0.05480779,-0.04155785,0.00054387,0.
 00098385,0.00020426,-0.00017038,0.00028520,0.00065423,0.00007663,-0.00
 003369,-0.00050000,-0.01137696,0.00496883,0.02125779,-0.02297250,0.053
 31567,-0.00346339,0.00133498,0.00594163,0.10648488,-0.04170161,-0.2613
 1180,-0.00150402,0.00020491,0.00138439,0.00050923,0.00016827,0.0005005
 3,0.00043992,-0.00011838,0.00071710,0.00760224,-0.00503376,-0.01500673
 ,-0.11458219,0.04509834,0.27690253,-0.01238390,-0.02840067,-0.01272439
 ,-0.08556450,-0.08758624,-0.03972539,0.00122604,-0.00017128,0.00050813
 ,-0.00669696,0.00124176,-0.00061016,0.00135112,0.00025452,-0.00014143,
 0.00188517,0.00631000,0.00356938,0.00494761,0.01259167,0.00451334,0.09
 523543,0.00265605,0.00469411,0.00255699,-0.08890899,-0.24114832,-0.088
 56446,-0.00050419,0.00028642,0.00016932,0.00124049,0.00139438,0.000326
 26,-0.00039317,0.00080631,0.00004436,-0.00857542,-0.01764753,-0.010436
 04,-0.00127499,-0.00345618,0.00004724,0.09576023,0.25507081,-0.0005945
 3,-0.00185375,-0.00169484,-0.04024263,-0.08837755,-0.08698889,0.000066
 17,0.00065459,0.00050175,-0.00060932,0.00032688,0.00104989,-0.00008144
 ,-0.00030179,-0.00014592,0.00845168,0.01688534,0.00812667,-0.01160045,
 -0.02319005,-0.00912762,0.04461051,0.09585633,0.08827896\\0.00011826,-
 0.00000224,0.00000303,-0.00000200,0.00005595,0.00002191,-0.00004892,-0
 .00000570,0.00000422,-0.00005619,0.00001220,-0.00001481,-0.00002985,-0
 .00003450,0.00000153,-0.00000293,0.00000255,-0.00001475,-0.00000128,-0
 .00001206,0.00000221,0.00002292,-0.00001621,-0.00000335\\\@


 JUST WHEN YOU THINK YOU'VE GOT THE WORLD ON A STRING,
 YOU FIND OUT IT'S YOUR LEASH.
 Job cpu time:       0 days  0 hours  1 minutes 12.3 seconds.
 File lengths (MBytes):  RWF=      6 Int=      0 D2E=      0 Chk=      1 Scr=      1
 Normal termination of Gaussian 09 at Wed Jun  9 20:39:39 2021.
