 Entering Gaussian System, Link 0=/usr/local/gaussian/g09/g09
 Input=CO2_opt_hess_g09.com
 Output=CO2_opt_hess_g09.log
 Initial command:
 /usr/local/gaussian/g09/l1.exe "/tmp/tmp9g3mtbg7/Gau-225456.inp" -scrdir="/tmp/tmp9g3mtbg7/"
 Entering Link 1 = /usr/local/gaussian/g09/l1.exe PID=    225457.
  
 Copyright (c) 1988,1990,1992,1993,1995,1998,2003,2009,2013,
            Gaussian, Inc.  All Rights Reserved.
  
 This is part of the Gaussian(R) 09 program.  It is based on
 the Gaussian(R) 03 system (copyright 2003, Gaussian, Inc.),
 the Gaussian(R) 98 system (copyright 1998, Gaussian, Inc.),
 the Gaussian(R) 94 system (copyright 1995, Gaussian, Inc.),
 the Gaussian 92(TM) system (copyright 1992, Gaussian, Inc.),
 the Gaussian 90(TM) system (copyright 1990, Gaussian, Inc.),
 the Gaussian 88(TM) system (copyright 1988, Gaussian, Inc.),
 the Gaussian 86(TM) system (copyright 1986, Carnegie Mellon
 University), and the Gaussian 82(TM) system (copyright 1983,
 Carnegie Mellon University). Gaussian is a federally registered
 trademark of Gaussian, Inc.
  
 This software contains proprietary and confidential information,
 including trade secrets, belonging to Gaussian, Inc.
  
 This software is provided under written license and may be
 used, copied, transmitted, or stored only in accord with that
 written license.
  
 The following legend is applicable only to US Government
 contracts under FAR:
  
                    RESTRICTED RIGHTS LEGEND
  
 Use, reproduction and disclosure by the US Government is
 subject to restrictions as set forth in subparagraphs (a)
 and (c) of the Commercial Computer Software - Restricted
 Rights clause in FAR 52.227-19.
  
 Gaussian, Inc.
 340 Quinnipiac St., Bldg. 40, Wallingford CT 06492
  
  
 ---------------------------------------------------------------
 Warning -- This program may not be used in any manner that
 competes with the business of Gaussian, Inc. or will provide
 assistance to any competitor of Gaussian, Inc.  The licensee
 of this program is prohibited from giving any competitor of
 Gaussian, Inc. access to this program.  By using this program,
 the user acknowledges that Gaussian, Inc. is engaged in the
 business of creating and licensing software in the field of
 computational chemistry and represents and warrants to the
 licensee that it is not a competitor of Gaussian, Inc. and that
 it will not use this program in any manner prohibited above.
 ---------------------------------------------------------------
  

 Cite this work as:
 Gaussian 09, Revision D.01,
 M. J. Frisch, G. W. Trucks, H. B. Schlegel, G. E. Scuseria, 
 M. A. Robb, J. R. Cheeseman, G. Scalmani, V. Barone, B. Mennucci, 
 G. A. Petersson, H. Nakatsuji, M. Caricato, X. Li, H. P. Hratchian, 
 A. F. Izmaylov, J. Bloino, G. Zheng, J. L. Sonnenberg, M. Hada, 
 M. Ehara, K. Toyota, R. Fukuda, J. Hasegawa, M. Ishida, T. Nakajima, 
 Y. Honda, O. Kitao, H. Nakai, T. Vreven, J. A. Montgomery, Jr., 
 J. E. Peralta, F. Ogliaro, M. Bearpark, J. J. Heyd, E. Brothers, 
 K. N. Kudin, V. N. Staroverov, T. Keith, R. Kobayashi, J. Normand, 
 K. Raghavachari, A. Rendell, J. C. Burant, S. S. Iyengar, J. Tomasi, 
 M. Cossi, N. Rega, J. M. Millam, M. Klene, J. E. Knox, J. B. Cross, 
 V. Bakken, C. Adamo, J. Jaramillo, R. Gomperts, R. E. Stratmann, 
 O. Yazyev, A. J. Austin, R. Cammi, C. Pomelli, J. W. Ochterski, 
 R. L. Martin, K. Morokuma, V. G. Zakrzewski, G. A. Voth, 
 P. Salvador, J. J. Dannenberg, S. Dapprich, A. D. Daniels, 
 O. Farkas, J. B. Foresman, J. V. Ortiz, J. Cioslowski, 
 and D. J. Fox, Gaussian, Inc., Wallingford CT, 2013.
 
 ******************************************
 Gaussian 09:  EM64L-G09RevD.01 24-Apr-2013
                 9-Jun-2021 
 ******************************************
 %mem=16000MB
 %nprocshared=4
 Will use up to    4 processors via shared memory.
 ----------------------------------------------------------------------
 # PBE1PBE Def2SVP Freq EmpiricalDispersion=GD3BJ integral=ultrafinegri
 d Temperature=298.15
 ----------------------------------------------------------------------
 1/10=4,30=1,38=1,112=298150/1,3;
 2/12=2,17=6,18=5,40=1/2;
 3/5=43,7=101,11=2,16=1,25=1,30=1,71=2,74=-13,75=-5,124=41,140=1/1,2,3;
 4//1;
 5/5=2,38=5,98=1/2;
 8/6=4,10=90,11=11/1;
 11/6=1,8=1,9=11,15=111,16=1/1,2,10;
 10/6=1/2;
 6/7=2,8=2,9=2,10=2,18=1,28=1/1;
 7/8=1,10=1,25=1/1,2,3,16;
 1/10=4,30=1/3;
 99//99;
 ----------------
 CO2_opt_hess_g09
 ----------------
 Symbolic Z-matrix:
 Charge =  0 Multiplicity = 1
 O                     0.        0.        1.1593 
 C                     0.        0.       0. 
 O                     0.        0.       -1.1593 
 

 GradGradGradGradGradGradGradGradGradGradGradGradGradGradGradGradGradGrad
 Berny optimization.
 Initialization pass.
 Trust Radius=3.00D-01 FncErr=1.00D-07 GrdErr=1.00D-07
 Number of steps in this run=      2 maximum allowed number of steps=      2.
 GradGradGradGradGradGradGradGradGradGradGradGradGradGradGradGradGradGrad

                          Input orientation:                          
 ---------------------------------------------------------------------
 Center     Atomic      Atomic             Coordinates (Angstroms)
 Number     Number       Type             X           Y           Z
 ---------------------------------------------------------------------
      1          8           0        0.000000    0.000000    1.159304
      2          6           0        0.000000    0.000000   -0.000003
      3          8           0        0.000000    0.000000   -1.159301
 ---------------------------------------------------------------------
                    Distance matrix (angstroms):
                    1          2          3
     1  O    0.000000
     2  C    1.159307   0.000000
     3  O    2.318605   1.159298   0.000000
 Stoichiometry    CO2
 Framework group  C*V[C*(OCO)]
 Deg. of freedom     2
 Full point group                 C*V     NOp   4
 Largest Abelian subgroup         C2V     NOp   4
 Largest concise Abelian subgroup C1      NOp   1
                         Standard orientation:                         
 ---------------------------------------------------------------------
 Center     Atomic      Atomic             Coordinates (Angstroms)
 Number     Number       Type             X           Y           Z
 ---------------------------------------------------------------------
      1          8           0        0.000000    0.000000    1.159304
      2          6           0        0.000000    0.000000   -0.000003
      3          8           0        0.000000    0.000000   -1.159301
 ---------------------------------------------------------------------
 Rotational constants (GHZ):      0.0000000     11.7547048     11.7547048
 Standard basis: def2SVP (5D, 7F)
 There are    24 symmetry adapted cartesian basis functions of A1  symmetry.
 There are     3 symmetry adapted cartesian basis functions of A2  symmetry.
 There are     9 symmetry adapted cartesian basis functions of B1  symmetry.
 There are     9 symmetry adapted cartesian basis functions of B2  symmetry.
 There are    21 symmetry adapted basis functions of A1  symmetry.
 There are     3 symmetry adapted basis functions of A2  symmetry.
 There are     9 symmetry adapted basis functions of B1  symmetry.
 There are     9 symmetry adapted basis functions of B2  symmetry.
    42 basis functions,    75 primitive gaussians,    45 cartesian basis functions
    11 alpha electrons       11 beta electrons
       nuclear repulsion energy        58.4270996572 Hartrees.
 NAtoms=    3 NActive=    3 NUniq=    3 SFac= 1.00D+00 NAtFMM=   60 NAOKFM=F Big=F
 Integral buffers will be    131072 words long.
 Raffenetti 2 integral format.
 Two-electron integral symmetry is turned on.
 Nuclear repulsion after empirical dispersion term =       58.4263285351 Hartrees.
 One-electron integrals computed using PRISM.
   1 Symmetry operations used in ECPInt.
 ECPInt:  NShTT=     171 NPrTT=     705 LenC2=     171 LenP2D=     627.
 LDataN:  DoStor=T MaxTD1= 4 Len=   56
 NBasis=    42 RedAO= T EigKep=  1.82D-02  NBF=    21     3     9     9
 NBsUse=    42 1.00D-06 EigRej= -1.00D+00 NBFU=    21     3     9     9
 ExpMin= 1.31D-01 ExpMax= 2.27D+03 ExpMxC= 3.41D+02 IAcc=3 IRadAn=         5 AccDes= 0.00D+00
 Harris functional with IExCor= 1009 and IRadAn=       5 diagonalized for initial guess.
 HarFok:  IExCor= 1009 AccDes= 0.00D+00 IRadAn=         5 IDoV= 1 UseB2=F ITyADJ=14
 ICtDFT=  3500011 ScaDFX=  1.000000  1.000000  1.000000  1.000000
 FoFCou: FMM=F IPFlag=           0 FMFlag=      100000 FMFlg1=           0
         NFxFlg=           0 DoJE=T BraDBF=F KetDBF=T FulRan=T
         wScrn=  0.000000 ICntrl=     500 IOpCl=  0 I1Cent=   200000004 NGrid=           0
         NMat0=    1 NMatS0=      1 NMatT0=    0 NMatD0=    1 NMtDS0=    0 NMtDT0=    0
 Petite list used in FoFCou.
 Initial guess orbital symmetries:
       Occupied  (SG) (SG) (SG) (SG) (SG) (SG) (SG) (PI) (PI) (PI)
                 (PI)
       Virtual   (PI) (PI) (SG) (SG) (PI) (PI) (SG) (SG) (SG) (PI)
                 (PI) (SG) (PI) (PI) (SG) (SG) (PI) (PI) (DLTA)
                 (DLTA) (DLTA) (DLTA) (DLTA) (DLTA) (PI) (PI) (SG)
                 (SG) (PI) (PI) (SG)
 The electronic state of the initial guess is 1-SG.
 Keep R1 ints in memory in symmetry-blocked form, NReq=1303967.
 Requested convergence on RMS density matrix=1.00D-08 within 128 cycles.
 Requested convergence on MAX density matrix=1.00D-06.
 Requested convergence on             energy=1.00D-06.
 No special actions if energy rises.
 Integral accuracy reduced to 1.0D-05 until final iterations.
 Initial convergence to 1.0D-05 achieved.  Increase integral accuracy.
 SCF Done:  E(RPBE1PBE) =  -188.244227716     A.U. after   11 cycles
            NFock= 11  Conv=0.11D-08     -V/T= 2.0067
 DoSCS=F DFT=T ScalE2(SS,OS)=  1.000000  1.000000
 Range of M.O.s used for correlation:     1    42
 NBasis=    42 NAE=    11 NBE=    11 NFC=     0 NFV=     0
 NROrb=     42 NOA=    11 NOB=    11 NVA=    31 NVB=    31
   4 Symmetry operations used in ECPInt.
 ECPInt:  NShTT=     171 NPrTT=     705 LenC2=     171 LenP2D=     627.
 LDataN:  DoStor=T MaxTD1= 5 Len=  102
 Symmetrizing basis deriv contribution to polar:
 IMax=3 JMax=2 DiffMx= 0.00D+00
 G2DrvN: will do     4 centers at a time, making    1 passes.
 Calling FoFCou, ICntrl=  3107 FMM=F I1Cent=   0 AccDes= 0.00D+00.
 End of G2Drv F.D. properties file   721 does not exist.
 End of G2Drv F.D. properties file   722 does not exist.
 End of G2Drv F.D. properties file   788 does not exist.
          IDoAtm=111
          Differentiating once with respect to electric field.
                with respect to dipole field.
          Differentiating once with respect to nuclear coordinates.
 Keep R1 ints in memory in symmetry-blocked form, NReq=1276923.
          There are    12 degrees of freedom in the 1st order CPHF.  IDoFFX=6 NUNeed=     3.
      9 vectors produced by pass  0 Test12= 2.84D-15 8.33D-09 XBig12= 2.20D+01 3.15D+00.
 AX will form     9 AO Fock derivatives at one time.
      9 vectors produced by pass  1 Test12= 2.84D-15 8.33D-09 XBig12= 6.82D+00 1.13D+00.
      9 vectors produced by pass  2 Test12= 2.84D-15 8.33D-09 XBig12= 3.14D-02 7.48D-02.
      9 vectors produced by pass  3 Test12= 2.84D-15 8.33D-09 XBig12= 1.12D-04 4.08D-03.
      9 vectors produced by pass  4 Test12= 2.84D-15 8.33D-09 XBig12= 1.70D-07 1.76D-04.
      7 vectors produced by pass  5 Test12= 2.84D-15 8.33D-09 XBig12= 2.98D-10 8.35D-06.
      2 vectors produced by pass  6 Test12= 2.84D-15 8.33D-09 XBig12= 5.24D-12 8.40D-07.
      1 vectors produced by pass  7 Test12= 2.84D-15 8.33D-09 XBig12= 1.11D-14 6.12D-08.
 InvSVY:  IOpt=1 It=  1 EMax= 2.22D-16
 Solved reduced A of dimension    55 with     9 vectors.
 Isotropic polarizability for W=    0.000000       11.96 Bohr**3.
 End of Minotr F.D. properties file   721 does not exist.
 End of Minotr F.D. properties file   722 does not exist.
 End of Minotr F.D. properties file   788 does not exist.

 **********************************************************************

            Population analysis using the SCF density.

 **********************************************************************

 Orbital symmetries:
       Occupied  (SG) (SG) (SG) (SG) (SG) (SG) (PI) (PI) (SG) (PI)
                 (PI)
       Virtual   (PI) (PI) (SG) (SG) (PI) (PI) (SG) (SG) (SG) (PI)
                 (PI) (SG) (PI) (PI) (SG) (DLTA) (DLTA) (SG) (PI)
                 (PI) (DLTA) (DLTA) (DLTA) (DLTA) (PI) (PI) (SG)
                 (PI) (PI) (SG) (SG)
 The electronic state is 1-SG.
 Alpha  occ. eigenvalues --  -19.29272 -19.29266 -10.42285  -1.18156  -1.14080
 Alpha  occ. eigenvalues --   -0.57266  -0.53687  -0.53687  -0.53400  -0.38682
 Alpha  occ. eigenvalues --   -0.38682
 Alpha virt. eigenvalues --    0.04391   0.04391   0.07374   0.35684   0.43536
 Alpha virt. eigenvalues --    0.43536   0.48442   0.77958   0.82500   0.92476
 Alpha virt. eigenvalues --    0.92476   1.11521   1.11689   1.11689   1.24713
 Alpha virt. eigenvalues --    1.52803   1.52803   1.58014   1.58037   1.58037
 Alpha virt. eigenvalues --    2.55501   2.55501   2.67783   2.67783   2.77906
 Alpha virt. eigenvalues --    2.77906   2.86114   3.56220   3.56220   3.56253
 Alpha virt. eigenvalues --    3.86881
          Condensed to atoms (all electrons):
               1          2          3
     1  O    7.512945   0.674351  -0.026903
     2  C    0.674351   4.330519   0.674356
     3  O   -0.026903   0.674356   7.512928
 Mulliken charges:
               1
     1  O   -0.160393
     2  C    0.320774
     3  O   -0.160381
 Sum of Mulliken charges =   0.00000
 Mulliken charges with hydrogens summed into heavy atoms:
               1
     1  O   -0.160393
     2  C    0.320774
     3  O   -0.160381
 APT charges:
               1
     1  O   -0.591647
     2  C    1.183294
     3  O   -0.591647
 Sum of APT charges =   0.00000
 APT charges with hydrogens summed into heavy atoms:
               1
     1  O   -0.591647
     2  C    1.183294
     3  O   -0.591647
 Electronic spatial extent (au):  <R**2>=            112.5252
 Charge=              0.0000 electrons
 Dipole moment (field-independent basis, Debye):
    X=              0.0000    Y=              0.0000    Z=             -0.0001  Tot=              0.0001
 Quadrupole moment (field-independent basis, Debye-Ang):
   XX=            -14.4609   YY=            -14.4609   ZZ=            -19.1417
   XY=              0.0000   XZ=              0.0000   YZ=              0.0000
 Traceless Quadrupole moment (field-independent basis, Debye-Ang):
   XX=              1.5602   YY=              1.5602   ZZ=             -3.1205
   XY=              0.0000   XZ=              0.0000   YZ=              0.0000
 Octapole moment (field-independent basis, Debye-Ang**2):
  XXX=              0.0000  YYY=              0.0000  ZZZ=             -0.0001  XYY=              0.0000
  XXY=              0.0000  XXZ=              0.0000  XZZ=              0.0000  YZZ=              0.0000
  YYZ=              0.0000  XYZ=              0.0000
 Hexadecapole moment (field-independent basis, Debye-Ang**3):
 XXXX=            -10.4591 YYYY=            -10.4591 ZZZZ=            -99.9068 XXXY=              0.0000
 XXXZ=              0.0000 YYYX=              0.0000 YYYZ=              0.0000 ZZZX=              0.0000
 ZZZY=              0.0000 XXYY=             -3.4864 XXZZ=            -17.8667 YYZZ=            -17.8667
 XXYZ=              0.0000 YYXZ=              0.0000 ZZXY=              0.0000
 N-N= 5.842632853511D+01 E-N=-5.596718707695D+02  KE= 1.869979670910D+02
 Symmetry A1   KE= 1.699365614933D+02
 Symmetry A2   KE= 4.753830809639D-54
 Symmetry B1   KE= 8.530702798846D+00
 Symmetry B2   KE= 8.530702798846D+00
  Exact polarizability:   7.342   0.000   7.342   0.000   0.000  21.207
 Approx polarizability:   8.721   0.000   8.721   0.000   0.000  42.018
   4 Symmetry operations used in ECPInt.
 ECPInt:  NShTT=     171 NPrTT=     705 LenC2=     171 LenP2D=     627.
 LDataN:  DoStor=T MaxTD1= 6 Len=  172
 Calling FoFJK, ICntrl=    100127 FMM=F ISym2X=1 I1Cent= 0 IOpClX= 0 NMat=1 NMatS=1 NMatT=0.
 Full mass-weighted force constant matrix:
 Low frequencies ---   -0.0012   -0.0012   -0.0009    5.6714    5.6714  667.5012
 Low frequencies ---  667.5012 1414.6406 2519.6044
 Diagonal vibrational polarizability:
        2.1692135       2.1692135       2.7639576
 Harmonic frequencies (cm**-1), IR intensities (KM/Mole), Raman scattering
 activities (A**4/AMU), depolarization ratios for plane and unpolarized
 incident light, reduced masses (AMU), force constants (mDyne/A),
 and normal coordinates:
                      1                      2                      3
                     PI                     PI                     SG
 Frequencies --    667.5012               667.5012              1414.6406
 Red. masses --     12.8774                12.8774                15.9949
 Frc consts  --      3.3805                 3.3805                18.8592
 IR Inten    --     35.9148                35.9148                 0.0000
  Atom  AN      X      Y      Z        X      Y      Z        X      Y      Z
     1   8     0.33   0.00   0.00     0.00   0.33   0.00     0.00   0.00   0.71
     2   6    -0.88   0.00   0.00     0.00  -0.88   0.00     0.00   0.00   0.00
     3   8     0.33   0.00   0.00     0.00   0.33   0.00     0.00   0.00  -0.71
                      4
                     SG
 Frequencies --   2519.6044
 Red. masses --     12.8774
 Frc consts  --     48.1662
 IR Inten    --    652.0231
  Atom  AN      X      Y      Z
     1   8     0.00   0.00  -0.33
     2   6     0.00   0.00   0.88
     3   8     0.00   0.00  -0.33

 -------------------
 - Thermochemistry -
 -------------------
 Temperature   298.150 Kelvin.  Pressure   1.00000 Atm.
 Atom     1 has atomic number  8 and mass  15.99491
 Atom     2 has atomic number  6 and mass  12.00000
 Atom     3 has atomic number  8 and mass  15.99491
 Molecular mass:    43.98983 amu.
 Principal axes and moments of inertia in atomic units:
                           1         2         3
     Eigenvalues --     0.00000 153.53352 153.53352
           X            0.00000   0.00000   1.00000
           Y            0.00000   1.00000   0.00000
           Z            1.00000   0.00000   0.00000
 This molecule is a prolate symmetric top.
 Rotational symmetry number  1.
 Rotational temperature (Kelvin)      0.56414
 Rotational constant (GHZ):          11.754705
 Zero-point vibrational energy      31517.1 (Joules/Mol)
                                    7.53277 (Kcal/Mol)
 Vibrational temperatures:    960.38   960.38  2035.35  3625.14
          (Kelvin)
 
 Zero-point correction=                           0.012004 (Hartree/Particle)
 Thermal correction to Energy=                    0.014625
 Thermal correction to Enthalpy=                  0.015569
 Thermal correction to Gibbs Free Energy=        -0.009342
 Sum of electronic and zero-point Energies=           -188.232223
 Sum of electronic and thermal Energies=              -188.229603
 Sum of electronic and thermal Enthalpies=            -188.228659
 Sum of electronic and thermal Free Energies=         -188.253569
 
                     E (Thermal)             CV                S
                      KCal/Mol        Cal/Mol-Kelvin    Cal/Mol-Kelvin
 Total                    9.177              6.856             52.428
 Electronic               0.000              0.000              0.000
 Translational            0.889              2.981             37.270
 Rotational               0.592              1.987             14.447
 Vibrational              7.696              1.888              0.711
                       Q            Log10(Q)             Ln(Q)
 Total Bot       0.198077D+05          4.296833          9.893825
 Total V=0       0.658239D+10          9.818384         22.607664
 Vib (Bot)       0.326813D-05         -5.485701        -12.631293
 Vib (V=0)       0.108605D+01          0.035849          0.082546
 Electronic      0.100000D+01          0.000000          0.000000
 Translational   0.114679D+08          7.059484         16.255062
 Rotational      0.528507D+03          2.723051          6.270056
 ***** Axes restored to original set *****
 -------------------------------------------------------------------
 Center     Atomic                   Forces (Hartrees/Bohr)
 Number     Number              X              Y              Z
 -------------------------------------------------------------------
      1        8           0.000000000    0.000000000   -0.000046782
      2        6           0.000000000    0.000000000    0.000017828
      3        8           0.000000000    0.000000000    0.000028954
 -------------------------------------------------------------------
 Cartesian Forces:  Max     0.000046782 RMS     0.000019278

 GradGradGradGradGradGradGradGradGradGradGradGradGradGradGradGradGradGrad
 Berny optimization.
 Search for a local minimum.
 Step number   1 out of a maximum of    2
 All quantities printed in internal units (Hartrees-Bohrs-Radians)
 Second derivative matrix not updated -- analytic derivatives used.
 The second derivative matrix:
                          X1        Y1        Z1        X2        Y2
           X1           0.03680
           Y1           0.00000   0.03680
           Z1           0.00000   0.00000   1.12976
           X2          -0.07357   0.00000   0.00000   0.14714
           Y2           0.00000  -0.07357   0.00000   0.00000   0.14714
           Z2           0.00000   0.00000  -1.04822   0.00000   0.00000
           X3           0.03678   0.00000   0.00000  -0.07357   0.00000
           Y3           0.00000   0.03678   0.00000   0.00000  -0.07357
           Z3           0.00000   0.00000  -0.08154   0.00000   0.00000
                          Z2        X3        Y3        Z3
           Z2           2.09651
           X3           0.00000   0.03679
           Y3           0.00000   0.00000   0.03679
           Z3          -1.04829   0.00000   0.00000   1.12983
 ITU=  0
     Eigenvalues ---    0.21975   0.21975   1.21134   3.13108
 Angle between quadratic step and forces=  13.27 degrees.
 ClnCor:  largest displacement from symmetrization is 1.51D-20 for atom     2.
 Linear search not attempted -- first point.
 ClnCor:  largest displacement from symmetrization is 0.00D+00 for atom     0.
 TrRot=  0.000000  0.000000  0.000000  0.000000  0.000000  0.000000
 Variable       Old X    -DE/DX   Delta X   Delta X   Delta X     New X
                                 (Linear)    (Quad)   (Total)
    X1        0.00000   0.00000   0.00000   0.00000   0.00000   0.00000
    Y1        0.00000   0.00000   0.00000   0.00000   0.00000   0.00000
    Z1        2.19077  -0.00005   0.00000  -0.00003  -0.00003   2.19073
    X2        0.00000   0.00000   0.00000   0.00000   0.00000   0.00000
    Y2        0.00000   0.00000   0.00000   0.00000   0.00000   0.00000
    Z2       -0.00001   0.00002   0.00000   0.00001   0.00001   0.00000
    X3        0.00000   0.00000   0.00000   0.00000   0.00000   0.00000
    Y3        0.00000   0.00000   0.00000   0.00000   0.00000   0.00000
    Z3       -2.19076   0.00003   0.00000   0.00003   0.00003  -2.19073
         Item               Value     Threshold  Converged?
 Maximum Force            0.000047     0.000450     YES
 RMS     Force            0.000019     0.000300     YES
 Maximum Displacement     0.000034     0.001800     YES
 RMS     Displacement     0.000015     0.001200     YES
 Predicted change in Energy=-1.259638D-09
 Optimization completed.
    -- Stationary point found.
 GradGradGradGradGradGradGradGradGradGradGradGradGradGradGradGradGradGrad

 1\1\GINC-ALEPH\Freq\RPBE1PBE\def2SVP\C1O2\BALL4935\09-Jun-2021\0\\# PB
 E1PBE Def2SVP Freq EmpiricalDispersion=GD3BJ integral=ultrafinegrid Te
 mperature=298.15\\CO2_opt_hess_g09\\0,1\O,0.,0.,1.159304\C,0.,0.,-0.00
 0003\O,0.,0.,-1.159301\\Version=EM64L-G09RevD.01\State=1-SG\HF=-188.24
 42277\RMSD=1.119e-09\RMSF=1.928e-05\ZeroPoint=0.0120042\Thermal=0.0146
 246\Dipole=0.,0.,-0.0000205\DipoleDeriv=-0.2835025,0.,0.,0.,-0.2835025
 ,0.,0.,0.,-1.207935,0.5669979,0.,0.,0.,0.5669979,0.,0.,0.,2.4158853,-0
 .2834953,0.,0.,0.,-0.2834953,0.,0.,0.,-1.2079503\Polar=7.3416257,0.,7.
 3416257,0.,0.,21.2066244\PG=C*V [C*(O1C1O1)]\NImag=0\\0.03679900,0.,0.
 03679900,0.,0.,1.12976209,-0.07357474,0.,0.,0.14714191,0.,-0.07357474,
 0.,0.,0.14714191,0.,0.,-1.04822039,0.,0.,2.09651055,0.03677574,0.,0.,-
 0.07356717,0.,0.,0.03679143,0.,0.03677574,0.,0.,-0.07356717,0.,0.,0.03
 679143,0.,0.,-0.08154170,0.,0.,-1.04829016,0.,0.,1.12983186\\0.,0.,0.0
 0004678,0.,0.,-0.00001783,0.,0.,-0.00002895\\\@


 Experience is what you get when you don't get what you want.
 -- Dan Stanford
 Job cpu time:       0 days  0 hours  0 minutes 13.2 seconds.
 File lengths (MBytes):  RWF=      5 Int=      0 D2E=      0 Chk=      1 Scr=      1
 Normal termination of Gaussian 09 at Wed Jun  9 09:56:40 2021.
