
                                 *****************
                                 * O   R   C   A *
                                 *****************

           --- An Ab Initio, DFT and Semiempirical electronic structure package ---

                  #######################################################
                  #                        -***-                        #
                  #          Department of theory and spectroscopy      #
                  #               Directorship: Frank Neese             #
                  #        Max Planck Institute fuer Kohlenforschung    #
                  #                Kaiser Wilhelm Platz 1               #
                  #                 D-45470 Muelheim/Ruhr               #
                  #                      Germany                        #
                  #                                                     #
                  #                  All rights reserved                #
                  #                        -***-                        #
                  #######################################################


                         Program Version 4.2.1 -  RELEASE  -


 With contributions from (in alphabetic order):
   Daniel Aravena         : Magnetic Suceptibility
   Michael Atanasov       : Ab Initio Ligand Field Theory (pilot matlab implementation)
   Alexander A. Auer      : GIAO ZORA, VPT2
   Ute Becker             : Parallelization
   Giovanni Bistoni       : ED, misc. LED, open-shell LED, HFLD
   Martin Brehm           : Molecular dynamics
   Dmytro Bykov           : SCF Hessian
   Vijay G. Chilkuri      : MRCI spin determinant printing, contributions to CSF-ICE
   Dipayan Datta          : RHF DLPNO-CCSD density
   Achintya Kumar Dutta   : EOM-CC, STEOM-CC
   Dmitry Ganyushin       : Spin-Orbit,Spin-Spin,Magnetic field MRCI
   Miquel Garcia          : C-PCM Hessian, Gaussian charge scheme
   Yang Guo               : DLPNO-NEVPT2, CIM, IAO-localization
   Andreas Hansen         : Spin unrestricted coupled pair/coupled cluster methods
   Benjamin Helmich-Paris : CASSCF linear response (MC-RPA)
   Lee Huntington         : MR-EOM, pCC
   Robert Izsak           : Overlap fitted RIJCOSX, COSX-SCS-MP3, EOM
   Christian Kollmar      : KDIIS, OOCD, Brueckner-CCSD(T), CCSD density
   Simone Kossmann        : Meta GGA functionals, TD-DFT gradient, OOMP2, MP2 Hessian
   Martin Krupicka        : AUTO-CI
   Lucas Lang             : DCDCAS
   Dagmar Lenk            : GEPOL surface, SMD
   Dimitrios Liakos       : Extrapolation schemes; Compound Job, initial MDCI parallelization
   Dimitrios Manganas     : Further ROCIS development; embedding schemes
   Dimitrios Pantazis     : SARC Basis sets
   Taras Petrenko         : DFT Hessian,TD-DFT gradient, ASA, ECA, R-Raman, ABS, FL, XAS/XES, NRVS
   Peter Pinski           : DLPNO-MP2, DLPNO-MP2 Gradient
   Christoph Reimann      : Effective Core Potentials
   Marius Retegan         : Local ZFS, SOC
   Christoph Riplinger    : Optimizer, TS searches, QM/MM, DLPNO-CCSD(T), (RO)-DLPNO pert. Triples
   Tobias Risthaus        : Range-separated hybrids, TD-DFT gradient, RPA, STAB
   Michael Roemelt        : Original ROCIS implementation
   Masaaki Saitow         : Open-shell DLPNO-CCSD energy and density
   Barbara Sandhoefer     : DKH picture change effects
   Avijit Sen             : IP-ROCIS
   Kantharuban Sivalingam : CASSCF convergence, NEVPT2, FIC-MRCI
   Bernardo de Souza      : ESD, SOC TD-DFT
   Georgi Stoychev        : AutoAux, RI-MP2 NMR
   Willem Van den Heuvel  : Paramagnetic NMR
   Boris Wezisla          : Elementary symmetry handling
   Frank Wennmohs         : Technical directorship


 We gratefully acknowledge several colleagues who have allowed us to
 interface, adapt or use parts of their codes:
   Stefan Grimme, W. Hujo, H. Kruse,             : VdW corrections, initial TS optimization,
                  C. Bannwarth                     DFT functionals, gCP, sTDA/sTD-DF
   Ed Valeev, F. Pavosevic, A. Kumar             : LibInt (2-el integral package), F12 methods
   Garnet Chan, S. Sharma, J. Yang, R. Olivares  : DMRG
   Ulf Ekstrom                                   : XCFun DFT Library
   Mihaly Kallay                                 : mrcc  (arbitrary order and MRCC methods)
   Andreas Klamt, Michael Diedenhofen            : otool_cosmo (COSMO solvation model)
   Jiri Pittner, Ondrej Demel                    : Mk-CCSD
   Frank Weinhold                                : gennbo (NPA and NBO analysis)
   Christopher J. Cramer and Donald G. Truhlar   : smd solvation model
   Lars Goerigk                                  : TD-DFT with DH, B97 family of functionals
   V. Asgeirsson, H. Jonsson                     : NEB implementation
   FAccTs GmbH                                   : IRC, NEB, NEB-TS, Multilevel, MM, QM/MM, CI optimization
   S Lehtola, MJT Oliveira, MAL Marques          : LibXC Library


 Your calculation uses the libint2 library for the computation of 2-el integrals
 For citations please refer to: http://libint.valeyev.net

 Your ORCA version has been built with support for libXC version: 4.2.3
 For citations please refer to: https://tddft.org/programs/libxc/

 This ORCA versions uses:
   CBLAS   interface :  Fast vector & matrix operations
   LAPACKE interface :  Fast linear algebra routines
   SCALAPACK package :  Parallel linear algebra routines


Your calculation utilizes the atom-pairwise dispersion correction
with the Becke-Johnson damping scheme (D3BJ)
Cite in your paper:
S.Grimme, S.Ehrlich, L.Goerigk, J Comput Chem, (2011), 32, 1456–1465 
S.Grimme, J.Antony, S.Ehrlich and H.Krieg, J.Chem.Phys., 132, (2010), 154104 
   

----- Orbital basis set information -----
Your calculation utilizes the basis: def2-SVP
   F. Weigend and R. Ahlrichs, Phys. Chem. Chem. Phys. 7, 3297 (2005).

----- AuxJ basis set information -----
Your calculation utilizes the auxiliary basis: def2/J
   F. Weigend, Phys. Chem. Chem. Phys. 8, 1057 (2006).

================================================================================
                                        WARNINGS
                       Please study these warnings very carefully!
================================================================================


INFO   : the flag for use of LIBINT has been found!

================================================================================
                                       INPUT FILE
================================================================================
NAME = H2O_hess_orca.inp
|  1> ! Freq PBE0 RIJCOSX D3BJ def2-SVP def2/J
|  2> %geom MaxIter 100 end
|  3> %output 
|  4> xyzfile=True 
|  5> end 
|  6> %scf 
|  7> maxiter 250 
|  8> end
|  9> %output
| 10> Print[P_Hirshfeld] = 1
| 11> end
| 12> % maxcore
| 13> 4000
| 14> %pal nprocs 4
| 15> end
| 16> %freq  Temp 298.15
| 17> end
| 18> *xyz 0 1
| 19> O   -0.00030711   0.39939477   0.00000000 
| 20> H   -0.75345739  -0.20028157   0.00000000 
| 21> H    0.75376450  -0.19911321   0.00000000 
| 22> *
| 23> 
| 24>                          ****END OF INPUT****
================================================================================

                       ****************************
                       * Single Point Calculation *
                       ****************************

---------------------------------
CARTESIAN COORDINATES (ANGSTROEM)
---------------------------------
  O     -0.000307    0.399395    0.000000
  H     -0.753457   -0.200282    0.000000
  H      0.753764   -0.199113    0.000000

----------------------------
CARTESIAN COORDINATES (A.U.)
----------------------------
  NO LB      ZA    FRAG     MASS         X           Y           Z
   0 O     8.0000    0    15.999   -0.000580    0.754747    0.000000
   1 H     1.0000    0     1.008   -1.423828   -0.378477    0.000000
   2 H     1.0000    0     1.008    1.424408   -0.376269    0.000000

--------------------------------
INTERNAL COORDINATES (ANGSTROEM)
--------------------------------
 O      0   0   0     0.000000000000     0.00000000     0.00000000
 H      1   0   0     0.962728963426     0.00000000     0.00000000
 H      1   2   0     0.962723114468   103.03326063     0.00000000

---------------------------
INTERNAL COORDINATES (A.U.)
---------------------------
 O      0   0   0     0.000000000000     0.00000000     0.00000000
 H      1   0   0     1.819294082070     0.00000000     0.00000000
 H      1   2   0     1.819283029141   103.03326063     0.00000000

---------------------
BASIS SET INFORMATION
---------------------
There are 2 groups of distinct atoms

 Group   1 Type O   : 7s4p1d contracted to 3s2p1d pattern {511/31/1}
 Group   2 Type H   : 4s1p contracted to 2s1p pattern {31/1}

Atom   0O    basis set group =>   1
Atom   1H    basis set group =>   2
Atom   2H    basis set group =>   2
---------------------------------
AUXILIARY/J BASIS SET INFORMATION
---------------------------------
There are 2 groups of distinct atoms

 Group   1 Type O   : 12s5p4d2f1g contracted to 6s4p3d1f1g pattern {711111/2111/211/2/1}
 Group   2 Type H   : 5s2p1d contracted to 3s1p1d pattern {311/2/1}

Atom   0O    basis set group =>   1
Atom   1H    basis set group =>   2
Atom   2H    basis set group =>   2

           ************************************************************
           *        Program running with 4 parallel MPI-processes     *
           *              working on a common directory               *
           ************************************************************
------------------------------------------------------------------------------
                           ORCA GTO INTEGRAL CALCULATION
                           -- RI-GTO INTEGRALS CHOSEN --
------------------------------------------------------------------------------

                         BASIS SET STATISTICS AND STARTUP INFO

Gaussian basis set:
 # of primitive gaussian shells          ...   22
 # of primitive gaussian functions       ...   38
 # of contracted shells                  ...   12
 # of contracted basis functions         ...   24
 Highest angular momentum                ...    2
 Maximum contraction depth               ...    5
Auxiliary gaussian basis set:
 # of primitive gaussian shells          ...   40
 # of primitive gaussian functions       ...  102
 # of contracted shells                  ...   25
 # of contracted aux-basis functions     ...   71
 Highest angular momentum                ...    4
 Maximum contraction depth               ...    7
Ratio of auxiliary to basis functions    ...  2.96
Integral package used                  ... LIBINT
 One Electron integrals                  ... done
 Ordering auxiliary basis shells         ... done
 Integral threshhold             Thresh  ...  1.000e-10
 Primitive cut-off               TCut    ...  1.000e-11
 Pre-screening matrix                    ... done
 Shell pair data                         ... 
 Ordering of the shell pairs             ... done (   0.000 sec) 78 of 78 pairs
 Determination of significant pairs      ... done (   0.000 sec)
 Creation of shell pair data             ... done (   0.000 sec)
 Storage of shell pair data              ... done (   0.001 sec)
 Shell pair data done in (   0.001 sec)
 Computing two index integrals           ... done
 Cholesky decomposition of the V-matrix  ... done


Timings:
 Total evaluation time                   ...   0.170 sec (  0.003 min)
 One electron matrix time                ...   0.008 sec (  0.000 min) =  4.4%
 Schwartz matrix evaluation time         ...   0.121 sec (  0.002 min) = 71.1%
 Two index repulsion integral time       ...   0.000 sec (  0.000 min) =  0.2%
 Cholesky decomposition of V             ...   0.000 sec (  0.000 min) =  0.2%
 Three index repulsion integral time     ...   0.000 sec (  0.000 min) =  0.0%
         ************************************************************
           *        Program running with 4 parallel MPI-processes     *
           *              working on a common directory               *
           ************************************************************
-------------------------------------------------------------------------------
                                 ORCA SCF
-------------------------------------------------------------------------------

------------
SCF SETTINGS
------------
Hamiltonian:
 Density Functional     Method          .... DFT(GTOs)
 Exchange Functional    Exchange        .... PBE
   PBE kappa parameter   XKappa         ....  0.804000
   PBE mue parameter    XMuePBE         ....  0.219520
 Correlation Functional Correlation     .... PBE
   PBE beta parameter  CBetaPBE         ....  0.066725
 LDA part of GGA corr.  LDAOpt          .... PW91-LDA
 Gradients option       PostSCFGGA      .... off
 Hybrid DFT is turned on
   Fraction HF Exchange ScalHFX         ....  0.250000
   Scaling of DF-GGA-X  ScalDFX         ....  0.750000
   Scaling of DF-GGA-C  ScalDFC         ....  1.000000
   Scaling of DF-LDA-C  ScalLDAC        ....  1.000000
   Perturbative correction              ....  0.000000
   Density functional embedding theory  .... OFF
   NL short-range parameter             ....  6.900000
 RI-approximation to the Coulomb term is turned on
   Number of auxiliary basis functions  .... 71
   RIJ-COSX (HFX calculated with COS-X)).... on


General Settings:
 Integral files         IntName         .... H2O_hess_orca
 Hartree-Fock type      HFTyp           .... RHF
 Total Charge           Charge          ....    0
 Multiplicity           Mult            ....    1
 Number of Electrons    NEL             ....   10
 Basis Dimension        Dim             ....   24
 Nuclear Repulsion      ENuc            ....      9.1457409727 Eh

Convergence Acceleration:
 DIIS                   CNVDIIS         .... on
   Start iteration      DIISMaxIt       ....    12
   Startup error        DIISStart       ....  0.200000
   # of expansion vecs  DIISMaxEq       ....     5
   Bias factor          DIISBfac        ....   1.050
   Max. coefficient     DIISMaxC        ....  10.000
 Newton-Raphson         CNVNR           .... off
 SOSCF                  CNVSOSCF        .... on
   Start iteration      SOSCFMaxIt      ....   150
   Startup grad/error   SOSCFStart      ....  0.003300
 Level Shifting         CNVShift        .... on
   Level shift para.    LevelShift      ....    0.2500
   Turn off err/grad.   ShiftErr        ....    0.0010
 Zerner damping         CNVZerner       .... off
 Static damping         CNVDamp         .... on
   Fraction old density DampFac         ....    0.7000
   Max. Damping (<1)    DampMax         ....    0.9800
   Min. Damping (>=0)   DampMin         ....    0.0000
   Turn off err/grad.   DampErr         ....    0.1000
 Fernandez-Rico         CNVRico         .... off

SCF Procedure:
 Maximum # iterations   MaxIter         ....   250
 SCF integral mode      SCFMode         .... Direct
   Integral package                     .... LIBINT
 Reset frequency        DirectResetFreq ....    20
 Integral Threshold     Thresh          ....  1.000e-10 Eh
 Primitive CutOff       TCut            ....  1.000e-11 Eh

Convergence Tolerance:
 Convergence Check Mode ConvCheckMode   .... Total+1el-Energy
 Convergence forced     ConvForced      .... 0
 Energy Change          TolE            ....  1.000e-06 Eh
 1-El. energy change                    ....  1.000e-03 Eh
 Orbital Gradient       TolG            ....  5.000e-05
 Orbital Rotation angle TolX            ....  5.000e-05
 DIIS Error             TolErr          ....  1.000e-06


Diagonalization of the overlap matrix:
Smallest eigenvalue                        ... 3.763e-02
Time for diagonalization                   ...    0.001 sec
Threshold for overlap eigenvalues          ... 1.000e-08
Number of eigenvalues below threshold      ... 0
Time for construction of square roots      ...    0.001 sec
Total time needed                          ...    0.001 sec

-------------------
DFT GRID GENERATION
-------------------

General Integration Accuracy     IntAcc      ...  4.340
Radial Grid Type                 RadialGrid  ... Gauss-Chebyshev
Angular Grid (max. acc.)         AngularGrid ... Lebedev-110
Angular grid pruning method      GridPruning ... 3 (G Style)
Weight generation scheme         WeightScheme... Becke
Basis function cutoff            BFCut       ...    1.0000e-10
Integration weight cutoff        WCut        ...    1.0000e-14
Grids for H and He will be reduced by one unit

# of grid points (after initial pruning)     ...   3304 (   0.0 sec)
# of grid points (after weights+screening)   ...   3251 (   0.0 sec)
nearest neighbour list constructed           ...    0.0 sec
Grid point re-assignment to atoms done       ...    0.0 sec
Grid point division into batches done        ...    0.0 sec
Reduced shell lists constructed in    0.0 sec

Total number of grid points                  ...     3251
Total number of batches                      ...       52
Average number of points per batch           ...       62
Average number of grid points per atom       ...     1084
Average number of shells per batch           ...    10.57 (88.10%)
Average number of basis functions per batch  ...    21.00 (87.50%)
Average number of large shells per batch     ...    10.29 (97.30%)
Average number of large basis fcns per batch ...    20.71 (98.64%)
Maximum spatial batch extension              ...  11.04, 13.67, 21.59 au
Average spatial batch extension              ...   1.13,  1.23,  1.58 au

Time for grid setup =    0.014 sec

------------------------------
INITIAL GUESS: MODEL POTENTIAL
------------------------------
Loading Hartree-Fock densities                     ... done
Calculating cut-offs                               ... done
Setting up the integral package                    ... done
Initializing the effective Hamiltonian             ... done
Starting the Coulomb interaction                   ... done (   0.0 sec)
Reading the grid                                   ... done
Mapping shells                                     ... done
Starting the XC term evaluation                    ... done (   0.0 sec)
  promolecular density results
     # of electrons  =      9.996369559
     EX              =     -8.729243033
     EC              =     -0.316221613
     EX+EC           =     -9.045464646
Transforming the Hamiltonian                       ... done (   0.0 sec)
Diagonalizing the Hamiltonian                      ... done (   0.0 sec)
Back transforming the eigenvectors                 ... done (   0.0 sec)
Now organizing SCF variables                       ... done
                      ------------------
                      INITIAL GUESS DONE (   0.1 sec)
                      ------------------
--------------------
COSX GRID GENERATION
--------------------

General Integration Accuracy     IntAcc      ...  3.340
Radial Grid Type                 RadialGrid  ... Gauss-Chebyshev
Angular Grid (max. acc.)         AngularGrid ... Lebedev-50
Angular grid pruning method      GridPruning ... 3 (G Style)
Weight generation scheme         WeightScheme... Becke
Basis function cutoff            BFCut       ...    1.0000e-10
Integration weight cutoff        WCut        ...    1.0000e-14
Grids for H and He will be reduced by one unit

# of grid points (after initial pruning)     ...   1220 (   0.0 sec)
# of grid points (after weights+screening)   ...   1193 (   0.0 sec)
nearest neighbour list constructed           ...    0.0 sec
Grid point re-assignment to atoms done       ...    0.0 sec
Grid point division into batches done        ...    0.0 sec
Reduced shell lists constructed in    0.0 sec

Total number of grid points                  ...     1193
Total number of batches                      ...       20
Average number of points per batch           ...       59
Average number of grid points per atom       ...      398
Average number of shells per batch           ...     9.83 (81.94%)
Average number of basis functions per batch  ...    19.83 (82.64%)
Average number of large shells per batch     ...     9.83 (100.00%)
Average number of large basis fcns per batch ...    19.83 (100.00%)
Maximum spatial batch extension              ...  10.79, 12.22, 20.72 au
Average spatial batch extension              ...   1.45,  1.41,  2.58 au

Overlap Fitting                  UseSFitting ... on
Constructing numerical overlap ... done (      0.0 sec)
Inverting numerical overlap    ... done (      0.0 sec)
Obtaining analytic overlap     ... done (      0.0 sec)
Final contraction and storage  ... done (      0.0 sec)


General Integration Accuracy     IntAcc      ...  3.670
Radial Grid Type                 RadialGrid  ... Gauss-Chebyshev
Angular Grid (max. acc.)         AngularGrid ... Lebedev-50
Angular grid pruning method      GridPruning ... 3 (G Style)
Weight generation scheme         WeightScheme... Becke
Basis function cutoff            BFCut       ...    1.0000e-10
Integration weight cutoff        WCut        ...    1.0000e-14
Grids for H and He will be reduced by one unit

# of grid points (after initial pruning)     ...   1602 (   0.0 sec)
# of grid points (after weights+screening)   ...   1566 (   0.0 sec)
nearest neighbour list constructed           ...    0.0 sec
Grid point re-assignment to atoms done       ...    0.0 sec
Grid point division into batches done        ...    0.0 sec
Reduced shell lists constructed in    0.0 sec

Total number of grid points                  ...     1566
Total number of batches                      ...       26
Average number of points per batch           ...       60
Average number of grid points per atom       ...      522
Average number of shells per batch           ...    10.38 (86.46%)
Average number of basis functions per batch  ...    20.88 (86.98%)
Average number of large shells per batch     ...    10.38 (100.00%)
Average number of large basis fcns per batch ...    20.88 (100.00%)
Maximum spatial batch extension              ...  12.19, 13.23, 22.67 au
Average spatial batch extension              ...   1.66,  1.42,  2.33 au

Overlap Fitting                  UseSFitting ... on
Constructing numerical overlap ... done (      0.0 sec)
Inverting numerical overlap    ... done (      0.0 sec)
Obtaining analytic overlap     ... done (      0.0 sec)
Final contraction and storage  ... done (      0.0 sec)


General Integration Accuracy     IntAcc      ...  4.010
Radial Grid Type                 RadialGrid  ... Gauss-Chebyshev
Angular Grid (max. acc.)         AngularGrid ... Lebedev-110
Angular grid pruning method      GridPruning ... 3 (G Style)
Weight generation scheme         WeightScheme... Becke
Basis function cutoff            BFCut       ...    1.0000e-10
Integration weight cutoff        WCut        ...    1.0000e-14
Grids for H and He will be reduced by one unit

# of grid points (after initial pruning)     ...   2758 (   0.0 sec)
# of grid points (after weights+screening)   ...   2714 (   0.0 sec)
nearest neighbour list constructed           ...    0.0 sec
Grid point re-assignment to atoms done       ...    0.0 sec
Grid point division into batches done        ...    0.0 sec
Reduced shell lists constructed in    0.0 sec

Total number of grid points                  ...     2714
Total number of batches                      ...       44
Average number of points per batch           ...       61
Average number of grid points per atom       ...      905
Average number of shells per batch           ...    10.75 (89.58%)
Average number of basis functions per batch  ...    21.75 (90.62%)
Average number of large shells per batch     ...    10.25 (95.35%)
Average number of large basis fcns per batch ...    20.42 (93.87%)
Maximum spatial batch extension              ...  11.98, 13.15, 24.28 au
Average spatial batch extension              ...   1.27,  1.10,  1.73 au

Overlap Fitting                  UseSFitting ... on
Constructing numerical overlap ... done (      0.0 sec)
Inverting numerical overlap    ... done (      0.0 sec)
Obtaining analytic overlap     ... done (      0.0 sec)
Final contraction and storage  ... done (      0.0 sec)

Time for X-Grid setup             =    0.097 sec
--------------
SCF ITERATIONS
--------------
ITER       Energy         Delta-E        Max-DP      RMS-DP      [F,P]     Damp
               ***  Starting incremental Fock matrix formation  ***
  0    -76.1900669308   0.000000000000 0.08151840  0.00854265  0.2910104 0.7000
  1    -76.2313837802  -0.041316849359 0.04719735  0.00494721  0.1290129 0.7000
                               ***Turning on DIIS***
  2    -76.2462749233  -0.014891143103 0.05966735  0.00612248  0.0392914 0.0000
  3    -76.2705605847  -0.024285661410 0.03125534  0.00331619  0.0725385 0.0000
  4    -76.2756302175  -0.005069632864 0.00458488  0.00055496  0.0095733 0.0000
                      *** Initiating the SOSCF procedure ***
                           *** Shutting down DIIS ***
                      *** Re-Reading the Fockian *** 
                      *** Removing any level shift *** 
ITER      Energy       Delta-E        Grad      Rot      Max-DP    RMS-DP
  5    -76.27574392  -0.0001137074  0.000666  0.000666  0.001241  0.000142
               *** Restarting incremental Fock matrix formation ***
  6    -76.27574786  -0.0000039370  0.000274  0.000613  0.000928  0.000088
  7    -76.27574800  -0.0000001401  0.000264  0.000116  0.000318  0.000028
                 **** Energy Check signals convergence ****
              ***Rediagonalizing the Fockian in SOSCF/NRSCF***

               *****************************************************
               *                     SUCCESS                       *
               *           SCF CONVERGED AFTER   8 CYCLES          *
               *****************************************************

Setting up the final grid:

General Integration Accuracy     IntAcc      ...  4.670
Radial Grid Type                 RadialGrid  ... Gauss-Chebyshev
Angular Grid (max. acc.)         AngularGrid ... Lebedev-302
Angular grid pruning method      GridPruning ... 3 (G Style)
Weight generation scheme         WeightScheme... Becke
Basis function cutoff            BFCut       ...    1.0000e-10
Integration weight cutoff        WCut        ...    1.0000e-14
Grids for H and He will be reduced by one unit

# of grid points (after initial pruning)     ...  13000 (   0.0 sec)
# of grid points (after weights+screening)   ...  12901 (   0.0 sec)
nearest neighbour list constructed           ...    0.0 sec
Grid point re-assignment to atoms done       ...    0.0 sec
Grid point division into batches done        ...    0.0 sec
Reduced shell lists constructed in    0.0 sec

Total number of grid points                  ...    12901
Total number of batches                      ...      203
Average number of points per batch           ...       63
Average number of grid points per atom       ...     4300
Average number of shells per batch           ...    10.25 (85.42%)
Average number of basis functions per batch  ...    20.44 (85.18%)
Average number of large shells per batch     ...     9.50 (92.68%)
Average number of large basis fcns per batch ...    18.65 (91.25%)
Maximum spatial batch extension              ...  16.88, 11.55, 13.13 au
Average spatial batch extension              ...   0.88,  0.84,  0.86 au

Final grid set up in    0.0 sec
Final integration                            ... done (   0.0 sec)
Change in XC energy                          ...    -0.000457821
Integrated number of electrons               ...     9.999974694
Previous integrated no of electrons          ...     9.997363766
Old exchange energy                            =     -2.237938834 Eh
New exchange energy                            =     -2.238158819 Eh
Exchange energy change after final integration =     -0.000219985 Eh
Total energy after final integration           =    -76.276426104 Eh
Final COS-X integration done in                =     0.036 sec

----------------
TOTAL SCF ENERGY
----------------

Total Energy       :          -76.27642610 Eh           -2075.58708 eV

Components:
Nuclear Repulsion  :            9.14574097 Eh             248.86826 eV
Electronic Energy  :          -85.42216708 Eh           -2324.45534 eV
One Electron Energy:         -123.00339501 Eh           -3347.09254 eV
Two Electron Energy:           37.58122794 Eh            1022.63720 eV

Virial components:
Potential Energy   :         -152.08190582 Eh           -4138.35905 eV
Kinetic Energy     :           75.80547971 Eh            2062.77197 eV
Virial Ratio       :            2.00621256


DFT components:
N(Alpha)           :        4.999987347097 electrons
N(Beta)            :        4.999987347097 electrons
N(Total)           :        9.999974694195 electrons
E(X)               :       -6.701197613373 Eh       
E(C)               :       -0.331258406097 Eh       
E(XC)              :       -7.032456019470 Eh       
DFET-embed. en.    :        0.000000000000 Eh       

---------------
SCF CONVERGENCE
---------------

  Last Energy change         ...   -2.9606e-07  Tolerance :   1.0000e-06
  Last MAX-Density change    ...    1.3323e-15  Tolerance :   1.0000e-05
  Last RMS-Density change    ...    6.7767e-17  Tolerance :   1.0000e-06
  Last Orbital Gradient      ...    4.2457e-05  Tolerance :   5.0000e-05
  Last Orbital Rotation      ...    6.3076e-05  Tolerance :   5.0000e-05

             **** THE GBW FILE WAS UPDATED (H2O_hess_orca.gbw) ****
             **** DENSITY FILE WAS UPDATED (H2O_hess_orca.scfp) ****
             **** ENERGY FILE WAS UPDATED (H2O_hess_orca.en.tmp) ****
             **** THE GBW FILE WAS UPDATED (H2O_hess_orca.gbw) ****
             **** DENSITY FILE WAS UPDATED (H2O_hess_orca.scfp) ****
----------------
ORBITAL ENERGIES
----------------

  NO   OCC          E(Eh)            E(eV) 
   0   2.0000     -19.192665      -522.2590 
   1   2.0000      -1.007062       -27.4036 
   2   2.0000      -0.526006       -14.3134 
   3   2.0000      -0.383044       -10.4232 
   4   2.0000      -0.305032        -8.3004 
   5   0.0000       0.064280         1.7491 
   6   0.0000       0.141867         3.8604 
   7   0.0000       0.575914        15.6714 
   8   0.0000       0.644953        17.5501 
   9   0.0000       0.941411        25.6171 
  10   0.0000       0.947869        25.7928 
  11   0.0000       1.031242        28.0615 
  12   0.0000       1.112472        30.2719 
  13   0.0000       1.358441        36.9651 
  14   0.0000       1.408307        38.3220 
  15   0.0000       1.553865        42.2828 
  16   0.0000       1.805156        49.1208 
  17   0.0000       2.228699        60.6460 
  18   0.0000       2.275251        61.9127 
  19   0.0000       2.980727        81.1097 
  20   0.0000       3.015438        82.0542 
  21   0.0000       3.206883        87.2637 
  22   0.0000       3.510147        95.5160 
  23   0.0000       3.848992       104.7364 

                    ********************************
                    * MULLIKEN POPULATION ANALYSIS *
                    ********************************

-----------------------
MULLIKEN ATOMIC CHARGES
-----------------------
   0 O :   -0.303780
   1 H :    0.151890
   2 H :    0.151890
Sum of atomic charges:   -0.0000000

--------------------------------
MULLIKEN REDUCED ORBITAL CHARGES
--------------------------------
  0 O s       :     3.688244  s :     3.688244
      pz      :     1.957344  p :     4.604747
      px      :     1.151319
      py      :     1.496083
      dz2     :     0.001908  d :     0.010789
      dxz     :     0.000000
      dyz     :     0.001245
      dx2y2   :     0.000401
      dxy     :     0.007235
  1 H s       :     0.774478  s :     0.774478
      pz      :     0.020705  p :     0.073632
      px      :     0.029897
      py      :     0.023029
  2 H s       :     0.774479  s :     0.774479
      pz      :     0.020705  p :     0.073631
      px      :     0.029926
      py      :     0.023000


                     *******************************
                     * LOEWDIN POPULATION ANALYSIS *
                     *******************************

----------------------
LOEWDIN ATOMIC CHARGES
----------------------
   0 O :   -0.147812
   1 H :    0.073908
   2 H :    0.073905

-------------------------------
LOEWDIN REDUCED ORBITAL CHARGES
-------------------------------
  0 O s       :     3.435106  s :     3.435106
      pz      :     1.888929  p :     4.692465
      px      :     1.233895
      py      :     1.569641
      dz2     :     0.004224  d :     0.020241
      dxz     :     0.000000
      dyz     :     0.000373
      dx2y2   :     0.000022
      dxy     :     0.015621
  1 H s       :     0.746411  s :     0.746411
      pz      :     0.055348  p :     0.179682
      px      :     0.061344
      py      :     0.062989
  2 H s       :     0.746411  s :     0.746411
      pz      :     0.055350  p :     0.179685
      px      :     0.061434
      py      :     0.062901


                      *****************************
                      * MAYER POPULATION ANALYSIS *
                      *****************************

  NA   - Mulliken gross atomic population
  ZA   - Total nuclear charge
  QA   - Mulliken gross atomic charge
  VA   - Mayer's total valence
  BVA  - Mayer's bonded valence
  FA   - Mayer's free valence

  ATOM       NA         ZA         QA         VA         BVA        FA
  0 O      8.3038     8.0000    -0.3038     2.0166     2.0166     0.0000
  1 H      0.8481     1.0000     0.1519     1.0150     1.0150    -0.0000
  2 H      0.8481     1.0000     0.1519     1.0150     1.0150    -0.0000

  Mayer bond orders larger than 0.100000
B(  0-O ,  1-H ) :   1.0083 B(  0-O ,  2-H ) :   1.0083 


------------------
HIRSHFELD ANALYSIS
------------------

Total integrated alpha density =      4.998681883
Total integrated beta density  =      4.998681883

  ATOM     CHARGE      SPIN    
   0 O   -0.317924    0.000000
   1 H    0.160280    0.000000
   2 H    0.160281    0.000000

  TOTAL   0.002636    0.000000

-------
TIMINGS
-------

Total SCF time: 0 days 0 hours 0 min 1 sec 

Total time                  ....       1.396 sec
Sum of individual times     ....       1.323 sec  ( 94.8%)

Fock matrix formation       ....       1.025 sec  ( 73.4%)
  Split-RI-J                ....       0.677 sec  ( 66.0% of F)
  Chain of spheres X        ....       0.300 sec  ( 29.2% of F)
  COS-X 1 center corr.      ....       0.000 sec  (  0.0% of F)
  XC integration            ....       0.035 sec  (  3.4% of F)
    Basis function eval.    ....       0.010 sec  ( 28.4% of XC)
    Density eval.           ....       0.004 sec  ( 12.5% of XC)
    XC-Functional eval.     ....       0.009 sec  ( 25.2% of XC)
    XC-Potential eval.      ....       0.003 sec  (  8.5% of XC)
Diagonalization             ....       0.001 sec  (  0.1%)
Density matrix formation    ....       0.000 sec  (  0.0%)
Population analysis         ....       0.003 sec  (  0.2%)
Initial guess               ....       0.134 sec  (  9.6%)
Orbital Transformation      ....       0.000 sec  (  0.0%)
Orbital Orthonormalization  ....       0.000 sec  (  0.0%)
DIIS solution               ....       0.001 sec  (  0.1%)
SOSCF solution              ....       0.000 sec  (  0.0%)
Grid generation             ....       0.159 sec  ( 11.4%)


-------------------------------------------------------------------------------
                          DFT DISPERSION CORRECTION                            
                                                                               
                              DFTD3 V3.1  Rev 1                                
                          USING Becke-Johnson damping                          
-------------------------------------------------------------------------------
The PBE0 functional is recognized
Active option DFTDOPT                   ...         4   

molecular C6(AA) [au] = 44.533528 


            DFT-D V3
 parameters
 s6 scaling factor         :     1.0000 
 a1 scaling factor         :     0.4145 
 s8 scaling factor         :     1.2177 
 a2 scaling factor         :     4.8593 
 ad hoc parameters k1-k3   :    16.0000     1.3333    -4.0000 

 Edisp/kcal,au: -0.173755366439  -0.000276896772 
 E6   /kcal   :  -0.121413518 
 E8   /kcal   :  -0.052341849 
 % E8         :  30.123874736 

-------------------------   ----------------
Dispersion correction           -0.000276897
-------------------------   ----------------


-------------------------   --------------------
FINAL SINGLE POINT ENERGY       -76.276703000871
-------------------------   --------------------


                            ***************************************
                            *     ORCA property calculations      *
                            ***************************************

                                    ---------------------
                                    Active property flags
                                    ---------------------
   (+) Dipole Moment


------------------------------------------------------------------------------
                       ORCA ELECTRIC PROPERTIES CALCULATION
------------------------------------------------------------------------------

Dipole Moment Calculation                       ... on
Quadrupole Moment Calculation                   ... off
Polarizability Calculation                      ... off
GBWName                                         ... H2O_hess_orca.gbw
Electron density file                           ... H2O_hess_orca.scfp
The origin for moment calculation is the CENTER OF MASS  = (-0.000483,  0.628055  0.000000)

-------------
DIPOLE MOMENT
-------------
                                X             Y             Z
Electronic contribution:     -0.00016       0.19916      -0.00000
Nuclear contribution   :      0.00077      -0.99732       0.00000
                        -----------------------------------------
Total Dipole Moment    :      0.00061      -0.79816      -0.00000
                        -----------------------------------------
Magnitude (a.u.)       :      0.79816
Magnitude (Debye)      :      2.02875



--------------------
Rotational spectrum 
--------------------
 
Rotational constants in cm-1:    26.233744    14.723522     9.430637 
Rotational constants in MHz : 786467.852144 441400.093331 282723.386190 

 Dipole components along the rotational axes: 
x,y,z [a.u.] :     0.000016    -0.798157    -0.000000 
x,y,z [Debye]:     0.000042    -2.028754    -0.000000 

 
[1623603523.616595] [comp0805:75565:0]            sys.c:618  UCX  ERROR shmget(size=2097152 flags=0xfb0) for mm_recv_desc failed: Operation not permitted, please check shared memory limits by 'ipcs -l'
[1623603523.617640] [comp0805:75563:0]            sys.c:618  UCX  ERROR shmget(size=2097152 flags=0xfb0) for mm_recv_desc failed: Operation not permitted, please check shared memory limits by 'ipcs -l'
[1623603523.640369] [comp0805:75564:0]            sys.c:618  UCX  ERROR shmget(size=2097152 flags=0xfb0) for mm_recv_desc failed: Operation not permitted, please check shared memory limits by 'ipcs -l'
[1623603523.640948] [comp0805:75566:0]            sys.c:618  UCX  ERROR shmget(size=2097152 flags=0xfb0) for mm_recv_desc failed: Operation not permitted, please check shared memory limits by 'ipcs -l'
[1623603523.649008] [comp0805:75563:0]            sys.c:618  UCX  ERROR shmget(size=2097152 flags=0xb80) for ucp_am_bufs failed: Operation not permitted, please check shared memory limits by 'ipcs -l'
[1623603523.649860] [comp0805:75564:0]            sys.c:618  UCX  ERROR shmget(size=2097152 flags=0xb80) for ucp_am_bufs failed: Operation not permitted, please check shared memory limits by 'ipcs -l'


           ************************************************************
           *        Program running with 4 parallel MPI-processes     *
           *              working on a common directory               *
           ************************************************************
[1623603523.681658] [comp0805:75565:0]            sys.c:618  UCX  ERROR shmget(size=2097152 flags=0xb80) for ucp_am_bufs failed: Operation not permitted, please check shared memory limits by 'ipcs -l'

-------------------------------------------------------------------------------
                               ORCA SCF HESSIAN
-------------------------------------------------------------------------------

Hessian of the Kohn-Sham DFT energy:
Kohn-Sham wavefunction type                      ... RKS
Hartree-Fock exchange scaling                    ...    0.250
Number of operators                              ...    1
Number of atoms                                  ...    3
Basis set dimensions                             ...   24
Integral neglect threshold                       ... 1.0e-10
Integral primitive cutoff                        ... 1.0e-11

Setting up DFT Hessian calculations              ... 
Electron density on the grid                     ... found on disk
Electron density on the final grid               ... found on disk
Building xc-kernel on the grid                   ... done   (      0.1 sec)
Building xc-kernel on the final grid             ... done   (      0.0 sec)
[1623603523.790766] [comp0805:75566:0]            sys.c:618  UCX  ERROR shmget(size=2097152 flags=0xb80) for ucp_am_bufs failed: Operation not permitted, please check shared memory limits by 'ipcs -l'
                                                     done   (      0.1 sec)

Nuclear repulsion Hessian                        ... done   (      0.0 sec)

----------------------------------------------
Forming right-hand sides of CP-SCF equations     ...
----------------------------------------------
One electron integral derivatives                ... done   (      0.1 sec)
Transforming the overlap derivative matrices     ... done   (      1.6 sec)
Making the Q(x) pseudodensities                  ... done   (      0.0 sec)
Adding the E*S(x)*S(y) terms to the Hessian      ... done   (      0.0 sec)
Calculating energy weighted overlap derivatives  ... done   (      0.0 sec)
Two electron integral derivatives (RI)           ... done   (      0.3 sec)
Exchange-correlation integral derivatives        ... done   (      0.1 sec)
tr(F(y)Q(x)) contribution to the Hessian         ... done   (      0.0 sec)
Response fock operator R(S(x)) (RIJCOSX)         ... done   (      0.3 sec)
XC Response fock operator R(S(x))                ... done   (      0.0 sec)
tr(F(y)S(x)) contribution to the Hessian         ... done   (      0.0 sec)
Transforming and finalizing RHSs                 ... done   (      0.0 sec)

----------------------------------------------
Solving the CP-SCF equations (RIJCOSX)           ...
----------------------------------------------
     CP-SCF ITERATION   0: 
     CP-SCF ITERATION   1:      0.000416802077
     CP-SCF ITERATION   2:      0.000007091317
     CP-SCF ITERATION   3:      0.000000192865

                                                 ... done   (      0.6 sec)
Forming perturbed density Hessian contributions  ... done   (      0.0 sec)
2nd integral derivative contribs (RI)            ... done   (      0.2 sec)
Exchange-correlation Hessian                     ... done   (      0.1 sec)
Dispersion correction in the Hessian             ... done   (      0.2 sec)
Dipol derivatives                                ... done   (      0.1 sec)

Total SCF Hessian time: 0 days 0 hours 0 min 4 sec 

Writing the Hessian file to the disk             ... done


Maximum memory used throughout the entire calculation: 131.3 MB

-----------------------
VIBRATIONAL FREQUENCIES
-----------------------

Scaling factor for frequencies =  1.000000000  (already applied!)

   0:         0.00 cm**-1
   1:         0.00 cm**-1
   2:         0.00 cm**-1
   3:         0.00 cm**-1
   4:         0.00 cm**-1
   5:         0.00 cm**-1
   6:      1646.05 cm**-1
   7:      3864.98 cm**-1
   8:      3962.59 cm**-1


------------
NORMAL MODES
------------

These modes are the Cartesian displacements weighted by the diagonal matrix
M(i,i)=1/sqrt(m[i]) where m[i] is the mass of the displaced atom
Thus, these vectors are normalized but *not* orthogonal

                  0          1          2          3          4          5    
      0       0.000000   0.000000   0.000000   0.000000   0.000000   0.000000
      1       0.000000   0.000000   0.000000   0.000000   0.000000   0.000000
      2       0.000000   0.000000   0.000000   0.000000   0.000000   0.000000
      3       0.000000   0.000000   0.000000   0.000000   0.000000   0.000000
      4       0.000000   0.000000   0.000000   0.000000   0.000000   0.000000
      5       0.000000   0.000000   0.000000   0.000000   0.000000   0.000000
      6       0.000000   0.000000   0.000000   0.000000   0.000000   0.000000
      7       0.000000   0.000000   0.000000   0.000000   0.000000   0.000000
      8       0.000000   0.000000   0.000000   0.000000   0.000000   0.000000
                   6          7          8    
      0      -0.000054   0.000012  -0.069578
      1       0.070046  -0.050721  -0.000033
      2       0.000000   0.000000   0.000000
      3       0.434634   0.580160   0.551598
      4      -0.555551   0.403141   0.439217
      5       0.000000   0.000000   0.000000
      6      -0.433780  -0.580344   0.552750
      7      -0.556223   0.401896  -0.438697
      8       0.000000   0.000000   0.000000


-----------
IR SPECTRUM
-----------

 Mode    freq (cm**-1)   T**2         TX         TY         TZ
-------------------------------------------------------------------
   6:      1646.05   58.695663  (  0.005900  -7.661307  -0.000000)
   7:      3864.98    8.837755  (  0.000377   2.972836  -0.000000)
   8:      3962.59   38.194245  (  6.180148   0.003899   0.000000)

The first frequency considered to be a vibration is 6
The total number of vibrations considered is 3


--------------------------
THERMOCHEMISTRY AT 298.15K
--------------------------

Temperature         ... 298.15 K
Pressure            ... 1.00 atm
Total Mass          ... 18.02 AMU

Throughout the following assumptions are being made:
  (1) The electronic state is orbitally nondegenerate
  (2) There are no thermally accessible electronically excited states
  (3) Hindered rotations indicated by low frequency modes are not
      treated as such but are treated as vibrations and this may
      cause some error
  (4) All equations used are the standard statistical mechanics
      equations for an ideal gas
  (5) All vibrations are strictly harmonic

freq.    1646.05  E(vib)   ...       0.00 
freq.    3864.98  E(vib)   ...       0.00 
freq.    3962.59  E(vib)   ...       0.00 

------------
INNER ENERGY
------------

The inner energy is: U= E(el) + E(ZPE) + E(vib) + E(rot) + E(trans)
    E(el)   - is the total energy from the electronic structure calculation
              = E(kin-el) + E(nuc-el) + E(el-el) + E(nuc-nuc)
    E(ZPE)  - the the zero temperature vibrational energy from the frequency calculation
    E(vib)  - the the finite temperature correction to E(ZPE) due to population
              of excited vibrational states
    E(rot)  - is the rotational thermal energy
    E(trans)- is the translational thermal energy

Summary of contributions to the inner energy U:
Electronic energy                ...    -76.27670300 Eh
Zero point energy                ...      0.02158247 Eh      13.54 kcal/mol
Thermal vibrational correction   ...      0.00000266 Eh       0.00 kcal/mol
Thermal rotational correction    ...      0.00141627 Eh       0.89 kcal/mol
Thermal translational correction ...      0.00141627 Eh       0.89 kcal/mol
-----------------------------------------------------------------------
Total thermal energy                    -76.25228532 Eh


Summary of corrections to the electronic energy:
(perhaps to be used in another calculation)
Total thermal correction                  0.00283521 Eh       1.78 kcal/mol
Non-thermal (ZPE) correction              0.02158247 Eh      13.54 kcal/mol
-----------------------------------------------------------------------
Total correction                          0.02441768 Eh      15.32 kcal/mol


--------
ENTHALPY
--------

The enthalpy is H = U + kB*T
                kB is Boltzmann's constant
Total free energy                 ...    -76.25228532 Eh 
Thermal Enthalpy correction       ...      0.00094421 Eh       0.59 kcal/mol
-----------------------------------------------------------------------
Total Enthalpy                    ...    -76.25134111 Eh


Note: Rotational entropy computed according to Herzberg 
Infrared and Raman Spectra, Chapter V,1, Van Nostrand Reinhold, 1945 
Point Group:  Cs, Symmetry Number:   1  
Rotational constants in cm-1:    26.233744    14.723522     9.430637 

Vibrational entropy computed according to the QRRHO of S. Grimme
Chem.Eur.J. 2012 18 9955


-------
ENTROPY
-------

The entropy contributions are T*S = T*(S(el)+S(vib)+S(rot)+S(trans))
     S(el)   - electronic entropy
     S(vib)  - vibrational entropy
     S(rot)  - rotational entropy
     S(trans)- translational entropy
The entropies will be listed as mutliplied by the temperature to get
units of energy

Electronic entropy                ...      0.00000000 Eh      0.00 kcal/mol
Vibrational entropy               ...      0.00000300 Eh      0.00 kcal/mol
Rotational entropy                ...      0.00563945 Eh      3.54 kcal/mol
Translational entropy             ...      0.01644380 Eh     10.32 kcal/mol
-----------------------------------------------------------------------
Final entropy term                ...      0.02208625 Eh     13.86 kcal/mol

In case the symmetry of your molecule has not been determined correctly
or in case you have a reason to use a different symmetry number we print 
out the resulting rotational entropy values for sn=1,12 :
 --------------------------------------------------------
|  sn= 1 | S(rot)=       0.00563945 Eh      3.54 kcal/mol|
|  sn= 2 | S(rot)=       0.00498500 Eh      3.13 kcal/mol|
|  sn= 3 | S(rot)=       0.00460216 Eh      2.89 kcal/mol|
|  sn= 4 | S(rot)=       0.00433054 Eh      2.72 kcal/mol|
|  sn= 5 | S(rot)=       0.00411985 Eh      2.59 kcal/mol|
|  sn= 6 | S(rot)=       0.00394771 Eh      2.48 kcal/mol|
|  sn= 7 | S(rot)=       0.00380216 Eh      2.39 kcal/mol|
|  sn= 8 | S(rot)=       0.00367608 Eh      2.31 kcal/mol|
|  sn= 9 | S(rot)=       0.00356488 Eh      2.24 kcal/mol|
|  sn=10 | S(rot)=       0.00346540 Eh      2.17 kcal/mol|
|  sn=11 | S(rot)=       0.00337541 Eh      2.12 kcal/mol|
|  sn=12 | S(rot)=       0.00329325 Eh      2.07 kcal/mol|
 --------------------------------------------------------


-------------------
GIBBS FREE ENERGY
-------------------

The Gibbs free energy is G = H - T*S

Total enthalpy                    ...    -76.25134111 Eh 
Total entropy correction          ...     -0.02208625 Eh    -13.86 kcal/mol
-----------------------------------------------------------------------
Final Gibbs free energy         ...    -76.27342736 Eh

For completeness - the Gibbs free energy minus the electronic energy
G-E(el)                           ...      0.00327564 Eh      2.06 kcal/mol

Timings for individual modules:

Sum of individual times         ...       24.545 sec (=   0.409 min)
GTO integral calculation        ...        1.132 sec (=   0.019 min)   4.6 %
SCF iterations                  ...        2.527 sec (=   0.042 min)  10.3 %
Analytical frequency calculation...       20.886 sec (=   0.348 min)  85.1 %
                             ****ORCA TERMINATED NORMALLY****
TOTAL RUN TIME: 0 days 0 hours 0 minutes 26 seconds 257 msec
