 argument  1 = H2O_hess_nwchem.nw



============================== echo of input deck ==============================
start H2O_hess_nwchem_nwchem
echo
geometry
O    0.00000000   0.00000000   0.14524294
H    0.75400004   0.00000000  -0.45387478
H   -0.75400004   0.00000000  -0.45387478
end
charge 0
memory 4000 mb
basis
  *   library Def2-SVP
end
dft
  mult 1
  maxiter 100
  xc pbe0
end
task dft freq
task esp
================================================================================


                                         
                                         


              Northwest Computational Chemistry Package (NWChem) 6.6
              ------------------------------------------------------


                    Environmental Molecular Sciences Laboratory
                       Pacific Northwest National Laboratory
                                Richland, WA 99352

                              Copyright (c) 1994-2015
                       Pacific Northwest National Laboratory
                            Battelle Memorial Institute

             NWChem is an open-source computational chemistry package
                        distributed under the terms of the
                      Educational Community License (ECL) 2.0
             A copy of the license is included with this distribution
                              in the LICENSE.TXT file

                                  ACKNOWLEDGMENT
                                  --------------

            This software and its documentation were developed at the
            EMSL at Pacific Northwest National Laboratory, a multiprogram
            national laboratory, operated for the U.S. Department of Energy
            by Battelle under Contract Number DE-AC05-76RL01830. Support
            for this work was provided by the Department of Energy Office
            of Biological and Environmental Research, Office of Basic
            Energy Sciences, and the Office of Advanced Scientific Computing.


           Job information
           ---------------

    hostname        = comp0807
    program         = /usr/local/NWChem/bin/nwchem
    date            = Thu Jun 10 21:11:10 2021

    compiled        = Mon_Apr_24_13:40:06_2017
    source          = /root/nwchem-6.6
    nwchem branch   = 6.6
    nwchem revision = 27746
    ga revision     = 10594
    input           = H2O_hess_nwchem.nw
    prefix          = H2O_hess_nwchem_nwchem.
    data base       = ./H2O_hess_nwchem_nwchem.db
    status          = startup
    nproc           =        8
    time left       =     -1s



           Memory information
           ------------------

    heap     =  131072000 doubles =   1000.0 Mbytes
    stack    =  131071997 doubles =   1000.0 Mbytes
    global   =  262144000 doubles =   2000.0 Mbytes (distinct from heap & stack)
    total    =  524287997 doubles =   4000.0 Mbytes
    verify   = yes
    hardfail = no 


           Directory information
           ---------------------

  0 permanent = .
  0 scratch   = .




                                NWChem Input Module
                                -------------------



 Scaling coordinates for geometry "geometry" by  1.889725989
 (inverse scale =  0.529177249)

 C2V symmetry detected

          ------
          auto-z
          ------


                             Geometry "geometry" -> ""
                             -------------------------

 Output coordinates in angstroms (scale by  1.889725989 to convert to a.u.)

  No.       Tag          Charge          X              Y              Z
 ---- ---------------- ---------- -------------- -------------- --------------
    1 O                    8.0000     0.00000000     0.00000000     0.11982354
    2 H                    1.0000     0.75400004     0.00000000    -0.47929418
    3 H                    1.0000    -0.75400004     0.00000000    -0.47929418

      Atomic Mass 
      ----------- 

      O                 15.994910
      H                  1.007825


 Effective nuclear repulsion energy (a.u.)       9.1426362893

            Nuclear Dipole moment (a.u.) 
            ----------------------------
        X                 Y               Z
 ---------------- ---------------- ----------------
     0.0000000000     0.0000000000     0.0000000000

      Symmetry information
      --------------------

 Group name             C2v       
 Group number             16
 Group order               4
 No. of unique centers     2

      Symmetry unique atoms

     1    2



                                Z-matrix (autoz)
                                -------- 

 Units are Angstrom for bonds and degrees for angles

      Type          Name      I     J     K     L     M      Value
      ----------- --------  ----- ----- ----- ----- ----- ----------
    1 Stretch                  1     2                       0.96305
    2 Stretch                  1     3                       0.96305
    3 Bend                     2     1     3               103.05969


            XYZ format geometry
            -------------------
     3
 geometry
 O                     0.00000000     0.00000000     0.11982354
 H                     0.75400004     0.00000000    -0.47929418
 H                    -0.75400004     0.00000000    -0.47929418

 ==============================================================================
                                internuclear distances
 ------------------------------------------------------------------------------
       center one      |      center two      | atomic units |  angstroms
 ------------------------------------------------------------------------------
    2 H                |   1 O                |     1.81989  |     0.96305
    3 H                |   1 O                |     1.81989  |     0.96305
 ------------------------------------------------------------------------------
                         number of included internuclear distances:          2
 ==============================================================================



 ==============================================================================
                                 internuclear angles
 ------------------------------------------------------------------------------
        center 1       |       center 2       |       center 3       |  degrees
 ------------------------------------------------------------------------------
    2 H                |   1 O                |   3 H                |   103.06
 ------------------------------------------------------------------------------
                            number of included internuclear angles:          1
 ==============================================================================



  library name resolved from: environment
  library file name is: </usr/local/NWChem/data/libraries/>
  


 Summary of "ao basis" -> "" (cartesian)
 ------------------------------------------------------------------------------
       Tag                 Description            Shells   Functions and Types
 ---------------- ------------------------------  ------  ---------------------
 *                          Def2-SVP                  on all atoms 




                   NWChem Nuclear Hessian and Frequency Analysis
                   ---------------------------------------------



                              NWChem Analytic Hessian
                              -----------------------

  itol2e modified to match energy
  convergence criterion.

                                 NWChem DFT Module
                                 -----------------


                      Basis "ao basis" -> "ao basis" (cartesian)
                      -----
  O (Oxygen)
  ----------
            Exponent  Coefficients 
       -------------- ---------------------------------------------------------
  1 S  2.26617678E+03 -0.005343
  1 S  3.40870102E+02 -0.039890
  1 S  7.73631352E+01 -0.178539
  1 S  2.14796449E+01 -0.464277
  1 S  6.65894331E+00 -0.443097

  2 S  8.09759757E-01  1.000000

  3 S  2.55307722E-01  1.000000

  4 P  1.77215043E+01  0.043395
  4 P  3.86355054E+00  0.230941
  4 P  1.04809209E+00  0.513753

  5 P  2.76415444E-01  1.000000

  6 D  1.20000000E+00  1.000000

  H (Hydrogen)
  ------------
            Exponent  Coefficients 
       -------------- ---------------------------------------------------------
  1 S  1.30107010E+01  0.019682
  1 S  1.96225720E+00  0.137965
  1 S  4.44537960E-01  0.478319

  2 S  1.21949620E-01  1.000000

  3 P  8.00000000E-01  1.000000



 Summary of "ao basis" -> "ao basis" (cartesian)
 ------------------------------------------------------------------------------
       Tag                 Description            Shells   Functions and Types
 ---------------- ------------------------------  ------  ---------------------
 O                          Def2-SVP                 6       15   3s2p1d
 H                          Def2-SVP                 3        5   2s1p




 Summary of "ao basis" -> "ao basis" (cartesian)
 ------------------------------------------------------------------------------
       Tag                 Description            Shells   Functions and Types
 ---------------- ------------------------------  ------  ---------------------
 O                          Def2-SVP                 6       15   3s2p1d
 H                          Def2-SVP                 3        5   2s1p


  Caching 1-el integrals 
  itol2e modified to match energy
  convergence criterion.

            General Information
            -------------------
          SCF calculation type: DFT
          Wavefunction type:  closed shell.
          No. of atoms     :     3
          No. of electrons :    10
           Alpha electrons :     5
            Beta electrons :     5
          Charge           :     0
          Spin multiplicity:     1
          Use of symmetry is: off; symmetry adaption is: off
          Maximum number of iterations: 100
          AO basis - number of functions:    25
                     number of shells:    12
          Convergence on energy requested: 1.00D-07
          Convergence on density requested: 1.00D-05
          Convergence on gradient requested: 1.00D-06

              XC Information
              --------------
                         PBE0 Method XC Functional
                     Hartree-Fock (Exact) Exchange  0.250          
          PerdewBurkeErnzerhof Exchange Functional  0.750          
            Perdew 1991 LDA Correlation Functional  1.000 local    
           PerdewBurkeErnz. Correlation Functional  1.000 non-local

             Grid Information
             ----------------
          Grid used for XC integration:  fine      
          Radial quadrature: Mura-Knowles        
          Angular quadrature: Lebedev. 
          Tag              B.-S. Rad. Rad. Pts. Rad. Cut. Ang. Pts.
          ---              ---------- --------- --------- ---------
          O                   0.60       70           7.0       590
          H                   0.35       60           9.0       590
          Grid pruning is: on 
          Number of quadrature shells:   190
          Spatial weights used:  Erf1

          Convergence Information
          -----------------------
          Convergence aids based upon iterative change in 
          total energy or number of iterations. 
          Levelshifting, if invoked, occurs when the 
          HOMO/LUMO gap drops below (HL_TOL): 1.00D-02
          DIIS, if invoked, will attempt to extrapolate 
          using up to (NFOCK): 10 stored Fock matrices.

                    Damping( 0%)  Levelshifting(0.5)       DIIS
                  --------------- ------------------- ---------------
          dE  on:    start            ASAP                start   
          dE off:    2 iters        100 iters           100 iters 


      Screening Tolerance Information
      -------------------------------
          Density screening/tol_rho: 1.00D-11
          AO Gaussian exp screening on grid/accAOfunc:  16
          CD Gaussian exp screening on grid/accCDfunc:  20
          XC Gaussian exp screening on grid/accXCfunc:  20
          Schwarz screening/accCoul: 1.00D-08


      Superposition of Atomic Density Guess
      -------------------------------------

 Sum of atomic energies:         -75.68971188

      Non-variational initial energy
      ------------------------------

 Total energy =     -75.849078
 1-e energy   =    -121.580647
 2-e energy   =      36.588933
 HOMO         =      -0.473153
 LUMO         =       0.088784

   Time after variat. SCF:      0.1
   Time prior to 1st pass:      0.1

 #quartets = 3.081D+03 #integrals = 2.937D+04 #direct =  0.0% #cached =100.0%


 Integral file          = ./H2O_hess_nwchem_nwchem.aoints.0
 Record size in doubles =  65536        No. of integs per rec  =  43688
 Max. records in memory =      2        Max. records in file   = 209369
 No. of bits per label  =      8        No. of bits per value  =     64


File balance: exchanges=     0  moved=     0  time=   0.0


 Grid_pts file          = ./H2O_hess_nwchem_nwchem.gridpts.0
 Record size in doubles =  12289        No. of grid_pts per rec  =   3070
 Max. records in memory =      7        Max. recs in file   =   1116552

 Grid integrated density:      10.000000360288
 Requested integration accuracy:   0.10E-13

           Memory utilization after 1st SCF pass: 
           Heap Space remaining (MW):      130.85           130853216
          Stack Space remaining (MW):      131.07           131071724

   convergence    iter        energy       DeltaE   RMS-Dens  Diis-err    time
 ---------------- ----- ----------------- --------- --------- ---------  ------
 d= 0,ls=0.0,diis     1    -76.2409260769 -8.54D+01  2.47D-02  3.87D-01     0.2
 Grid integrated density:      10.000000398184
 Requested integration accuracy:   0.10E-13
 d= 0,ls=0.0,diis     2    -76.2403366406  5.89D-04  1.27D-02  4.35D-01     0.2
 Grid integrated density:      10.000000352946
 Requested integration accuracy:   0.10E-13
 d= 0,ls=0.0,diis     3    -76.2772169600 -3.69D-02  1.51D-03  7.50D-03     0.2
 Grid integrated density:      10.000000358754
 Requested integration accuracy:   0.10E-13
 d= 0,ls=0.0,diis     4    -76.2778444387 -6.27D-04  1.32D-04  5.17D-05     0.3
 Grid integrated density:      10.000000358605
 Requested integration accuracy:   0.10E-13
 d= 0,ls=0.0,diis     5    -76.2778489042 -4.47D-06  1.09D-05  1.51D-07     0.3
 Grid integrated density:      10.000000358581
 Requested integration accuracy:   0.10E-13
 d= 0,ls=0.0,diis     6    -76.2778489226 -1.84D-08  1.23D-06  8.92D-10     0.3


         Total DFT energy =      -76.277848922646
      One electron energy =     -122.981220545386
           Coulomb energy =       46.817876826992
    Exchange-Corr. energy =       -9.257141493573
 Nuclear repulsion energy =        9.142636289322

 Numeric. integr. density =       10.000000358581

     Total iterative time =      0.2s



                       DFT Final Molecular Orbital Analysis
                       ------------------------------------

 Vector    1  Occ=2.000000D+00  E=-1.920659D+01
              MO Center=  8.1D-16,  3.5D-16,  1.2D-01, r^2= 1.5D-02
   Bfn.  Coefficient  Atom+Function         Bfn.  Coefficient  Atom+Function  
  ----- ------------  ---------------      ----- ------------  ---------------
     1      0.986006  1 O  s          

 Vector    2  Occ=2.000000D+00  E=-1.007158D+00
              MO Center= -9.6D-13,  1.7D-13, -9.3D-02, r^2= 5.1D-01
   Bfn.  Coefficient  Atom+Function         Bfn.  Coefficient  Atom+Function  
  ----- ------------  ---------------      ----- ------------  ---------------
     2      0.539744  1 O  s                  1      0.272309  1 O  s          
     3      0.251859  1 O  s                 16      0.202992  2 H  s          
    21      0.202992  3 H  s          

 Vector    3  Occ=2.000000D+00  E=-5.258934D-01
              MO Center=  1.8D-14, -3.0D-14, -1.1D-01, r^2= 7.8D-01
   Bfn.  Coefficient  Atom+Function         Bfn.  Coefficient  Atom+Function  
  ----- ------------  ---------------      ----- ------------  ---------------
     4      0.503243  1 O  px                16      0.328518  2 H  s          
    21     -0.328518  3 H  s                  7      0.210085  1 O  px         

 Vector    4  Occ=2.000000D+00  E=-3.824503D-01
              MO Center=  1.6D-13,  1.2D-12,  2.0D-01, r^2= 6.7D-01
   Bfn.  Coefficient  Atom+Function         Bfn.  Coefficient  Atom+Function  
  ----- ------------  ---------------      ----- ------------  ---------------
     6      0.544601  1 O  pz                 3      0.365193  1 O  s          
     9      0.343810  1 O  pz                 2      0.221182  1 O  s          
    16     -0.202378  2 H  s                 21     -0.202378  3 H  s          

 Vector    5  Occ=2.000000D+00  E=-3.051989D-01
              MO Center= -5.1D-14, -8.2D-13,  9.5D-02, r^2= 5.9D-01
   Bfn.  Coefficient  Atom+Function         Bfn.  Coefficient  Atom+Function  
  ----- ------------  ---------------      ----- ------------  ---------------
     5      0.635193  1 O  py                 8      0.492636  1 O  py         

 Vector    6  Occ=0.000000D+00  E= 6.330398D-02
              MO Center= -1.7D-11, -5.4D-13, -6.7D-01, r^2= 2.8D+00
   Bfn.  Coefficient  Atom+Function         Bfn.  Coefficient  Atom+Function  
  ----- ------------  ---------------      ----- ------------  ---------------
     3      0.990160  1 O  s                 17     -0.831355  2 H  s          
    22     -0.831355  3 H  s                  9     -0.344661  1 O  pz         
     6     -0.240922  1 O  pz                 2      0.170361  1 O  s          

 Vector    7  Occ=0.000000D+00  E= 1.424965D-01
              MO Center=  1.8D-11, -1.1D-14, -5.8D-01, r^2= 3.2D+00
   Bfn.  Coefficient  Atom+Function         Bfn.  Coefficient  Atom+Function  
  ----- ------------  ---------------      ----- ------------  ---------------
    17      1.307727  2 H  s                 22     -1.307727  3 H  s          
     7     -0.611284  1 O  px                 4     -0.362482  1 O  px         

 Vector    8  Occ=0.000000D+00  E= 5.757347D-01
              MO Center= -2.2D-11, -6.9D-15, -2.7D-01, r^2= 1.9D+00
   Bfn.  Coefficient  Atom+Function         Bfn.  Coefficient  Atom+Function  
  ----- ------------  ---------------      ----- ------------  ---------------
    16      0.960461  2 H  s                 21     -0.960461  3 H  s          
    17     -0.840951  2 H  s                 22      0.840951  3 H  s          
     7     -0.382955  1 O  px                 4     -0.288319  1 O  px         
    12     -0.181322  1 O  dxz        

 Vector    9  Occ=0.000000D+00  E= 6.434975D-01
              MO Center=  2.1D-11, -8.0D-13, -5.1D-01, r^2= 1.7D+00
   Bfn.  Coefficient  Atom+Function         Bfn.  Coefficient  Atom+Function  
  ----- ------------  ---------------      ----- ------------  ---------------
    16      0.832444  2 H  s                 21      0.832444  3 H  s          
    17     -0.642772  2 H  s                 22     -0.642772  3 H  s          
     3      0.484434  1 O  s                  2     -0.397566  1 O  s          
     6      0.377180  1 O  pz                18      0.210807  2 H  px         
    23     -0.210807  3 H  px         

 Vector   10  Occ=0.000000D+00  E= 9.199906D-01
              MO Center= -8.4D-14,  4.0D-11,  5.2D-01, r^2= 1.1D+00
   Bfn.  Coefficient  Atom+Function         Bfn.  Coefficient  Atom+Function  
  ----- ------------  ---------------      ----- ------------  ---------------
     9      0.944687  1 O  pz                 3      0.839863  1 O  s          
     2     -0.790341  1 O  s                  6     -0.711424  1 O  pz         
    16      0.259819  2 H  s                 21      0.259819  3 H  s          

 Vector   11  Occ=0.000000D+00  E= 9.475735D-01
              MO Center= -4.4D-13, -8.8D-12,  1.1D-01, r^2= 1.1D+00
   Bfn.  Coefficient  Atom+Function         Bfn.  Coefficient  Atom+Function  
  ----- ------------  ---------------      ----- ------------  ---------------
     8     -1.017953  1 O  py                 5      0.966159  1 O  py         

 Vector   12  Occ=0.000000D+00  E= 1.031199D+00
              MO Center=  6.5D-13, -1.5D-14,  1.4D-01, r^2= 1.7D+00
   Bfn.  Coefficient  Atom+Function         Bfn.  Coefficient  Atom+Function  
  ----- ------------  ---------------      ----- ------------  ---------------
     7      1.734612  1 O  px                17     -0.820805  2 H  s          
    22      0.820805  3 H  s                  4     -0.776077  1 O  px         
    16     -0.342802  2 H  s                 21      0.342802  3 H  s          
    18      0.226001  2 H  px                23      0.226001  3 H  px         

 Vector   13  Occ=0.000000D+00  E= 1.056916D+00
              MO Center= -9.7D-13, -2.8D-11, -4.1D-01, r^2= 1.3D+00
   Bfn.  Coefficient  Atom+Function         Bfn.  Coefficient  Atom+Function  
  ----- ------------  ---------------      ----- ------------  ---------------
     3      2.847787  1 O  s                  2     -1.198288  1 O  s          
     9     -0.924817  1 O  pz                16     -0.612697  2 H  s          
    21     -0.612697  3 H  s                 17     -0.511238  2 H  s          
    22     -0.511238  3 H  s                  6      0.301512  1 O  pz         
    20     -0.276414  2 H  pz                25     -0.276414  3 H  pz         

 Vector   14  Occ=0.000000D+00  E= 1.358310D+00
              MO Center= -7.0D-12,  5.0D-14, -4.2D-01, r^2= 9.8D-01
   Bfn.  Coefficient  Atom+Function         Bfn.  Coefficient  Atom+Function  
  ----- ------------  ---------------      ----- ------------  ---------------
    19      0.667653  2 H  py                24     -0.667653  3 H  py         
    11      0.302009  1 O  dxy        

 Vector   15  Occ=0.000000D+00  E= 1.397497D+00
              MO Center= -1.6D-12, -1.4D-12, -1.7D-01, r^2= 1.2D+00
   Bfn.  Coefficient  Atom+Function         Bfn.  Coefficient  Atom+Function  
  ----- ------------  ---------------      ----- ------------  ---------------
     3      1.522884  1 O  s                  9     -1.177887  1 O  pz         
    16     -0.702065  2 H  s                 21     -0.702065  3 H  s          
     2     -0.487333  1 O  s                 20      0.460199  2 H  pz         
    25      0.460199  3 H  pz                18      0.424733  2 H  px         
    23     -0.424733  3 H  px                15     -0.260924  1 O  dzz        


 center of mass
 --------------
 x =   0.00000000 y =   0.00000000 z =   0.09972716

 moments of inertia (a.u.)
 ------------------
           2.294519264581           0.000000000000           0.000000000000
           0.000000000000           6.386706838125           0.000000000000
           0.000000000000           0.000000000000           4.092187573543

     Multipole analysis of the density
     ---------------------------------

     L   x y z        total         alpha         beta         nuclear
     -   - - -        -----         -----         ----         -------
     0   0 0 0     -0.000000     -5.000000     -5.000000     10.000000

     1   1 0 0      0.000000      0.000000      0.000000      0.000000
     1   0 1 0     -0.000000     -0.000000     -0.000000      0.000000
     1   0 0 1     -0.799208     -0.399604     -0.399604      0.000000

     2   2 0 0     -3.200742     -3.630579     -3.630579      4.060415
     2   1 1 0     -0.000000     -0.000000     -0.000000      0.000000
     2   1 0 1     -0.000000     -0.000000     -0.000000      0.000000
     2   0 2 0     -5.205163     -2.602582     -2.602582      0.000000
     2   0 1 1     -0.000000     -0.000000     -0.000000      0.000000
     2   0 0 2     -4.398856     -3.224872     -3.224872      2.050888


 Parallel integral file used       8 records with       0 large values


 HESSIAN: the one electron contributions are done in       0.0s


 HESSIAN: 2-el 1st deriv. term done in                     0.0s


 HESSIAN: 2-el 2nd deriv. term done in                     0.0s

  stpr_wrt_fd_from_sq: overwrite of existing file:./H2O_hess_nwchem_nwchem.hess
 stpr_wrt_fd_dipole: overwrite of existing file./H2O_hess_nwchem_nwchem.fd_ddipole

 HESSIAN: the two electron contributions are done in       0.5s

                                NWChem CPHF Module
                                ------------------


  scftype          =     RHF 
  nclosed          =        5
  nopen            =        0
  variables        =      100
  # of vectors     =        9
  tolerance        = 0.10D-03
  level shift      = 0.00D+00
  max iterations   =       50
  max subspace     =       90


 #quartets = 3.081D+03 #integrals = 2.937D+04 #direct =  0.0% #cached =100.0%


 Integral file          = ./H2O_hess_nwchem_nwchem.aoints.0
 Record size in doubles =  65536        No. of integs per rec  =  43688
 Max. records in memory =      2        Max. records in file   = 209369
 No. of bits per label  =      8        No. of bits per value  =     64


File balance: exchanges=     0  moved=     0  time=   0.0

 Grid integrated density:      10.000000358580
 Requested integration accuracy:   0.10E-13
 SCF residual:    6.5943105665229396E-006


Iterative solution of linear equations
  No. of variables      100
  No. of equations        9
  Maximum subspace       90
        Iterations       50
       Convergence  1.0D-04
        Start time      2.0


   iter   nsub   residual    time
   ----  ------  --------  ---------
     1      9    2.51D-01       2.2
     2     18    5.25D-02       6.1
     3     27    2.55D-03       6.3
     4     36    5.22D-04       6.5
     5     45    1.57D-05       6.8

 Parallel integral file used       8 records with       0 large values

 HESSIAN: the CPHF contributions are done
  stpr_wrt_fd_from_sq: overwrite of existing file:./H2O_hess_nwchem_nwchem.hess
 stpr_wrt_fd_dipole: overwrite of existing file./H2O_hess_nwchem_nwchem.fd_ddipole

 Derivative Dipole

  
  
 X vector of derivative dipole (au) [debye/angstrom]
 d_dipole_x/<atom=   1,x> =    -0.4660     [   -2.2382]
 d_dipole_x/<atom=   1,y> =    -0.0000     [   -0.0000]
 d_dipole_x/<atom=   1,z> =     0.0000     [    0.0000]
 d_dipole_x/<atom=   2,x> =     0.2330     [    1.1191]
 d_dipole_x/<atom=   2,y> =    -0.0000     [   -0.0000]
 d_dipole_x/<atom=   2,z> =     0.0953     [    0.4578]
 d_dipole_x/<atom=   3,x> =     0.2330     [    1.1191]
 d_dipole_x/<atom=   3,y> =     0.0000     [    0.0000]
 d_dipole_x/<atom=   3,z> =    -0.0953     [   -0.4578]
  
 Y vector of derivative dipole (au) [debye/angstrom]
 d_dipole_y/<atom=   1,x> =     0.0000     [    0.0000]
 d_dipole_y/<atom=   1,y> =    -0.7059     [   -3.3906]
 d_dipole_y/<atom=   1,z> =    -0.0000     [   -0.0000]
 d_dipole_y/<atom=   2,x> =    -0.0000     [   -0.0000]
 d_dipole_y/<atom=   2,y> =     0.3530     [    1.6953]
 d_dipole_y/<atom=   2,z> =     0.0000     [    0.0000]
 d_dipole_y/<atom=   3,x> =     0.0000     [    0.0000]
 d_dipole_y/<atom=   3,y> =     0.3530     [    1.6953]
 d_dipole_y/<atom=   3,z> =     0.0000     [    0.0000]
  
 Z vector of derivative dipole (au) [debye/angstrom]
 d_dipole_z/<atom=   1,x> =    -0.0000     [   -0.0000]
 d_dipole_z/<atom=   1,y> =     0.0000     [    0.0000]
 d_dipole_z/<atom=   1,z> =    -0.3407     [   -1.6366]
 d_dipole_z/<atom=   2,x> =     0.0482     [    0.2313]
 d_dipole_z/<atom=   2,y> =    -0.0000     [   -0.0000]
 d_dipole_z/<atom=   2,z> =     0.1704     [    0.8183]
 d_dipole_z/<atom=   3,x> =    -0.0482     [   -0.2313]
 d_dipole_z/<atom=   3,y> =    -0.0000     [   -0.0000]
 d_dipole_z/<atom=   3,z> =     0.1704     [    0.8183]
  
  
 HESSIAN: the Hessian is done


  Vibrational analysis via the FX method 

  See chapter 2 in "Molecular Vibrations" by Wilson, Decius and Cross

  Vib: Default input used 

  Nuclear Hessian passed symmetry test 



 ---------------------------- Atom information ----------------------------
     atom    #        X              Y              Z            mass
 --------------------------------------------------------------------------
    O        1  0.0000000D+00  0.0000000D+00  2.2643367D-01  1.5994910D+01
    H        2  1.4248535D+00  0.0000000D+00 -9.0573466D-01  1.0078250D+00
    H        3 -1.4248535D+00  0.0000000D+00 -9.0573466D-01  1.0078250D+00
 --------------------------------------------------------------------------




          ----------------------------------------------------
          MASS-WEIGHTED NUCLEAR HESSIAN (Hartree/Bohr/Bohr/Kamu)
          ----------------------------------------------------


               1            2            3            4            5            6            7            8            9
   ----- ----- ----- ----- -----
    1    4.25381D+01
    2   -8.96428D-10 -4.68356D-04
    3   -6.30176D-08  9.12591D-08  2.96598D+01
    4   -8.47303D+01  1.62171D-07  5.22000D+01  3.69313D+02
    5   -2.16267D-09  2.28277D-04  1.93319D-08  5.40471D-08  1.84130D-03
    6    6.73257D+01 -1.83247D-07 -5.90786D+01 -2.38084D+02  3.95724D-07  2.24240D+02
    7   -8.47303D+01 -1.61873D-07 -5.22000D+01 -3.17637D+01  2.04811D-07 -3.01291D+01  3.69313D+02
    8    5.75522D-09  2.28277D-04  1.95638D-08  3.81409D-08 -2.80376D-03 -3.23093D-08 -6.11032D-08  1.84130D-03
    9   -6.73257D+01 -1.83120D-07 -5.90786D+01  3.01291D+01  3.32370D-07  1.11175D+01  2.38084D+02  3.97504D-07  2.24240D+02



          -------------------------------------------------
          NORMAL MODE EIGENVECTORS IN CARTESIAN COORDINATES
          -------------------------------------------------
                 (Frequencies expressed in cm-1)

                    1           2           3           4           5           6
 
 Frequency         -5.44       -2.86        3.20        4.10        8.15       11.08
 
           1    -0.00001    -0.00000     0.00267    -0.23161     0.06623     0.00000
           2    -0.11074     0.22418    -0.00002    -0.00000     0.00000    -0.00000
           3    -0.00003    -0.00003    -0.23562    -0.00286    -0.00049    -0.00000
           4     0.00000     0.00000     0.00397    -0.26243    -0.38070    -0.00005
           5     0.63152     0.31194    -0.00011    -0.00001     0.00011    -0.70436
           6    -0.00002    -0.00002    -0.23398    -0.04164    -0.56296    -0.00008
           7     0.00000     0.00000     0.00397    -0.26243    -0.38070    -0.00005
           8     0.63152     0.31194    -0.00013    -0.00003    -0.00007     0.70436
           9    -0.00004    -0.00004    -0.23725     0.03593     0.56198     0.00007

                    7           8           9
 
 Frequency       1642.78     3860.38     3959.20
 
           1     0.00000     0.00000    -0.06696
           2    -0.00000     0.00000     0.00000
           3    -0.06730     0.04968     0.00000
           4     0.41831     0.56669     0.53132
           5     0.00000    -0.00000     0.00000
           6     0.53404    -0.39420    -0.42218
           7    -0.41831    -0.56669     0.53132
           8     0.00000    -0.00000     0.00000
           9     0.53404    -0.39420     0.42218



 ----------------------------------------------------------------------------
 Normal Eigenvalue ||         Derivative Dipole Moments (debye/angs)
  Mode   [cm**-1]  ||      [d/dqX]             [d/dqY]           [d/dqZ]
 ------ ---------- || ------------------ ------------------ -----------------
    1       -5.445 ||       0.000               2.517            -0.000
    2       -2.857 ||       0.000               0.298            -0.000
    3        3.205 ||      -0.004               0.000             0.000
    4        4.104 ||      -0.104              -0.000             0.000
    5        8.145 ||      -1.515               0.000            -0.000
    6       11.079 ||      -0.000              -0.000             0.000
    7     1642.781 ||      -0.000               0.000             1.178
    8     3860.379 ||       0.000               0.000             0.464
    9     3959.199 ||       0.953               0.000             0.000
 ----------------------------------------------------------------------------



  
  
 ----------------------------------------------------------------------------
 Normal Eigenvalue ||                 Infra Red Intensities
  Mode   [cm**-1]  || [atomic units] [(debye/angs)**2] [(KM/mol)] [arbitrary]
 ------ ---------- || -------------- ----------------- ---------- -----------
    1       -5.445 ||    0.274536           6.334       267.631      50.718
    2       -2.857 ||    0.003838           0.089         3.741       0.709
    3        3.205 ||    0.000001           0.000         0.001       0.000
    4        4.104 ||    0.000473           0.011         0.461       0.087
    5        8.145 ||    0.099536           2.296        97.033      18.389
    6       11.079 ||    0.000000           0.000         0.000       0.000
    7     1642.781 ||    0.060113           1.387        58.601      11.105
    8     3860.379 ||    0.009342           0.216         9.107       1.726
    9     3959.199 ||    0.039326           0.907        38.337       7.265
 ----------------------------------------------------------------------------





        Vibrational analysis via the FX method 
  --- with translations and rotations projected out ---
  --- via the Eckart algorithm                      ---
 Projected Nuclear Hessian trans-rot subspace norm:1.0207D-32
                         (should be close to zero!) 

          --------------------------------------------------------
          MASS-WEIGHTED PROJECTED HESSIAN (Hartree/Bohr/Bohr/Kamu)
          --------------------------------------------------------


               1            2            3            4            5            6            7            8            9
   ----- ----- ----- ----- -----
    1    4.25376D+01
    2    2.02013D-25  0.00000D+00
    3    2.52851D-07 -1.29288D-23  2.96595D+01
    4   -8.47309D+01 -2.57529D-23  5.22000D+01  3.69314D+02
    5    0.00000D+00 -2.63710D-20 -5.15059D-23 -7.69461D-23  0.00000D+00
    6    6.73260D+01  5.15059D-23 -5.90789D+01 -2.38084D+02  1.02595D-22  2.24239D+02
    7   -8.47309D+01  2.57529D-23 -5.22000D+01 -3.17626D+01  5.12974D-23 -3.01295D+01  3.69314D+02
    8    3.21912D-24  0.00000D+00 -5.79441D-23 -9.61826D-23  0.00000D+00  1.02595D-22  8.33583D-23  0.00000D+00
    9   -6.73260D+01  5.15059D-23 -5.90789D+01  3.01295D+01  1.53892D-22  1.11202D+01  2.38084D+02  5.12974D-23  2.24239D+02

 center of mass
 --------------
 x =   0.00000000 y =   0.00000000 z =   0.09972716

 moments of inertia (a.u.)
 ------------------
           2.294519264581           0.000000000000           0.000000000000
           0.000000000000           6.386706838125           0.000000000000
           0.000000000000           0.000000000000           4.092187573543

 Rotational Constants
 --------------------
 A=  26.236509 cm-1  ( 37.747641 K)
 B=  14.711001 cm-1  ( 21.165376 K)
 C=   9.425855 cm-1  ( 13.561400 K)


 Temperature                      =   298.15K
 frequency scaling parameter      =   1.0000

 Zero-Point correction to Energy  =   13.521 kcal/mol  (  0.021547 au)
 Thermal correction to Energy     =   15.299 kcal/mol  (  0.024381 au)
 Thermal correction to Enthalpy   =   15.891 kcal/mol  (  0.025324 au)

 Total Entropy                    =   45.088 cal/mol-K
   - Translational                =   34.593 cal/mol-K (mol. weight =  18.0106)
   - Rotational                   =   10.489 cal/mol-K (symmetry #  =        2)
   - Vibrational                  =    0.006 cal/mol-K

 Cv (constant volume heat capacity) =    6.004 cal/mol-K
   - Translational                  =    2.979 cal/mol-K
   - Rotational                     =    2.979 cal/mol-K
   - Vibrational                    =    0.045 cal/mol-K



          -------------------------------------------------
          NORMAL MODE EIGENVECTORS IN CARTESIAN COORDINATES
          -------------------------------------------------
             (Projected Frequencies expressed in cm-1)

                    1           2           3           4           5           6
 
 P.Frequency       -0.00        0.00        0.00        0.00        0.00        0.00
 
           1    -0.04606     0.00000     0.00000     0.00000     0.01798    -0.23578
           2     0.00000     0.25004     0.00000     0.00000     0.00000     0.00000
           3    -0.08569     0.00000     0.00000     0.00000    -0.21950    -0.00000
           4     0.37126     0.00000     0.00000     0.00000    -0.14493    -0.23446
           5     0.00000     0.00000     0.99611     0.00000     0.00000     0.00000
           6     0.43951     0.00000     0.00000     0.00000    -0.42453     0.00165
           7     0.37126     0.00000     0.00000     0.00000    -0.14493    -0.23446
           8     0.00000     0.00000     0.00000     0.99611     0.00000     0.00000
           9    -0.61089     0.00000     0.00000     0.00000    -0.01447    -0.00166

                    7           8           9
 
 P.Frequency     1642.79     3860.38     3959.20
 
           1     0.00000     0.00000    -0.06696
           2     0.00000     0.00000     0.00000
           3    -0.06730     0.04968     0.00000
           4     0.41831     0.56669     0.53132
           5     0.00000     0.00000     0.00000
           6     0.53404    -0.39420    -0.42218
           7    -0.41831    -0.56669     0.53132
           8     0.00000     0.00000     0.00000
           9     0.53404    -0.39420     0.42218



 ----------------------------------------------------------------------------
 Normal Eigenvalue ||    Projected Derivative Dipole Moments (debye/angs)
  Mode   [cm**-1]  ||      [d/dqX]             [d/dqY]           [d/dqZ]
 ------ ---------- || ------------------ ------------------ -----------------
    1       -0.000 ||      -1.415               0.000             0.000
    2        0.000 ||      -0.000              -0.848             0.000
    3        0.000 ||      -0.000               1.689            -0.000
    4        0.000 ||       0.000               1.689            -0.000
    5        0.000 ||       0.552               0.000             0.000
    6        0.000 ||      -0.004               0.000            -0.000
    7     1642.790 ||      -0.000               0.000             1.178
    8     3860.381 ||       0.000               0.000             0.464
    9     3959.202 ||       0.953              -0.000            -0.000
 ----------------------------------------------------------------------------



  
  
 ----------------------------------------------------------------------------
 Normal Eigenvalue ||           Projected Infra Red Intensities
  Mode   [cm**-1]  || [atomic units] [(debye/angs)**2] [(KM/mol)] [arbitrary]
 ------ ---------- || -------------- ----------------- ---------- -----------
    1       -0.000 ||    0.086783           2.002        84.601      16.033
    2        0.000 ||    0.031154           0.719        30.371       5.755
    3        0.000 ||    0.123610           2.852       120.501      22.836
    4        0.000 ||    0.123610           2.852       120.501      22.836
    5        0.000 ||    0.013226           0.305        12.893       2.443
    6        0.000 ||    0.000001           0.000         0.001       0.000
    7     1642.790 ||    0.060113           1.387        58.601      11.105
    8     3860.381 ||    0.009342           0.216         9.107       1.726
    9     3959.202 ||    0.039327           0.907        38.338       7.265
 ----------------------------------------------------------------------------



 vib:animation  F

 Task  times  cpu:        2.6s     wall:        6.7s


                                NWChem Input Module
                                -------------------




                     NWChem Electrostatic Potential Fit Module
                     -----------------------------------------


 Atom parameters

 Number of atoms is                                    3
 Number of basis functions is                         25


 Grid parameters

 Maximum number of grid points is                   1203
 Number of grid points is                           1202
 Grid range                                     0.300000 nm
 Grid spacing                                   0.050000 nm
 Probe radius                                   0.070000 nm
 Atom radius factor                             1.000000

 Atomic radii

    1    0.100000
    8    0.136000
 FASTESP  F


    Atom              Coordinates                           Charge

                                                  ESP   
                                                        
 
    1 O     0.000000    0.000000    0.011982   -0.724419
    2 H     0.075400    0.000000   -0.047929    0.361725
    3 H    -0.075400    0.000000   -0.047929    0.362694
                                            ------------
                                               -0.000000

 Dipole moment                                  0.820166

 Quadrupole moment Qxx                          2.941438
                   Qyy                         -1.470719
                   Qzz                         -1.470719

 RMS deviation kJ/mol                           0.245613

 ABS deviation %                               28.145314

 Task  times  cpu:        0.1s     wall:        0.3s


                                NWChem Input Module
                                -------------------


 Summary of allocated global arrays
-----------------------------------
  No active global arrays



                         GA Statistics for process    0
                         ------------------------------

       create   destroy   get      put      acc     scatter   gather  read&inc
calls:  721      723     2.21e+04 2582     1.09e+04  272        0      357     
number of processes/call 1.26e+00 2.61e+00 1.74e+00 0.00e+00 0.00e+00
bytes total:             1.30e+07 1.03e+06 6.98e+06 6.40e+01 0.00e+00 2.86e+03
bytes remote:            5.07e+06 3.78e+05 3.02e+06 -2.56e+02 0.00e+00 0.00e+00
Max memory consumed for GA by this process: 150792 bytes

MA_summarize_allocated_blocks: starting scan ...
MA_summarize_allocated_blocks: scan completed: 0 heap blocks, 0 stack blocks
MA usage statistics:

	allocation statistics:
					      heap	     stack
					      ----	     -----
	current number of blocks	         0	         0
	maximum number of blocks	        26	        52
	current total bytes		         0	         0
	maximum total bytes		   1750240	  68836104
	maximum total K-bytes		      1751	     68837
	maximum total M-bytes		         2	        69


                                     CITATION
                                     --------
                Please cite the following reference when publishing
                           results obtained with NWChem:

                 M. Valiev, E.J. Bylaska, N. Govind, K. Kowalski,
              T.P. Straatsma, H.J.J. van Dam, D. Wang, J. Nieplocha,
                        E. Apra, T.L. Windus, W.A. de Jong
                 "NWChem: a comprehensive and scalable open-source
                  solution for large scale molecular simulations"
                      Comput. Phys. Commun. 181, 1477 (2010)
                           doi:10.1016/j.cpc.2010.04.018

                                      AUTHORS
                                      -------
          E. Apra, E. J. Bylaska, W. A. de Jong, N. Govind, K. Kowalski,
       T. P. Straatsma, M. Valiev, H. J. J. van Dam, D. Wang, T. L. Windus,
        J. Hammond, J. Autschbach, K. Bhaskaran-Nair, J. Brabec, K. Lopata,
       S. A. Fischer, S. Krishnamoorthy, W. Ma, M. Klemm, O. Villa, Y. Chen,
    V. Anisimov, F. Aquino, S. Hirata, M. T. Hackler, T. Risthaus, M. Malagoli,
       A. Marenich, A. Otero-de-la-Roza, J. Mullin, P. Nichols, R. Peverati,
     J. Pittner, Y. Zhao, P.-D. Fan, A. Fonari, M. Williamson, R. J. Harrison,
       J. R. Rehr, M. Dupuis, D. Silverstein, D. M. A. Smith, J. Nieplocha,
        V. Tipparaju, M. Krishnan, B. E. Van Kuiken, A. Vazquez-Mayagoitia,
        L. Jensen, M. Swart, Q. Wu, T. Van Voorhis, A. A. Auer, M. Nooijen,
      L. D. Crosby, E. Brown, G. Cisneros, G. I. Fann, H. Fruchtl, J. Garza,
        K. Hirao, R. A. Kendall, J. A. Nichols, K. Tsemekhman, K. Wolinski,
     J. Anchell, D. E. Bernholdt, P. Borowski, T. Clark, D. Clerc, H. Dachsel,
   M. J. O. Deegan, K. Dyall, D. Elwood, E. Glendening, M. Gutowski, A. C. Hess,
         J. Jaffe, B. G. Johnson, J. Ju, R. Kobayashi, R. Kutteh, Z. Lin,
   R. Littlefield, X. Long, B. Meng, T. Nakajima, S. Niu, L. Pollack, M. Rosing,
   K. Glaesemann, G. Sandrone, M. Stave, H. Taylor, G. Thomas, J. H. van Lenthe,
                               A. T. Wong, Z. Zhang.

 Total times  cpu:        2.8s     wall:        7.1s
