
                                 *****************
                                 * O   R   C   A *
                                 *****************

           --- An Ab Initio, DFT and Semiempirical electronic structure package ---

                  #######################################################
                  #                        -***-                        #
                  #          Department of theory and spectroscopy      #
                  #               Directorship: Frank Neese             #
                  #        Max Planck Institute fuer Kohlenforschung    #
                  #                Kaiser Wilhelm Platz 1               #
                  #                 D-45470 Muelheim/Ruhr               #
                  #                      Germany                        #
                  #                                                     #
                  #                  All rights reserved                #
                  #                        -***-                        #
                  #######################################################


                         Program Version 4.2.1 -  RELEASE  -


 With contributions from (in alphabetic order):
   Daniel Aravena         : Magnetic Suceptibility
   Michael Atanasov       : Ab Initio Ligand Field Theory (pilot matlab implementation)
   Alexander A. Auer      : GIAO ZORA, VPT2
   Ute Becker             : Parallelization
   Giovanni Bistoni       : ED, misc. LED, open-shell LED, HFLD
   Martin Brehm           : Molecular dynamics
   Dmytro Bykov           : SCF Hessian
   Vijay G. Chilkuri      : MRCI spin determinant printing, contributions to CSF-ICE
   Dipayan Datta          : RHF DLPNO-CCSD density
   Achintya Kumar Dutta   : EOM-CC, STEOM-CC
   Dmitry Ganyushin       : Spin-Orbit,Spin-Spin,Magnetic field MRCI
   Miquel Garcia          : C-PCM Hessian, Gaussian charge scheme
   Yang Guo               : DLPNO-NEVPT2, CIM, IAO-localization
   Andreas Hansen         : Spin unrestricted coupled pair/coupled cluster methods
   Benjamin Helmich-Paris : CASSCF linear response (MC-RPA)
   Lee Huntington         : MR-EOM, pCC
   Robert Izsak           : Overlap fitted RIJCOSX, COSX-SCS-MP3, EOM
   Christian Kollmar      : KDIIS, OOCD, Brueckner-CCSD(T), CCSD density
   Simone Kossmann        : Meta GGA functionals, TD-DFT gradient, OOMP2, MP2 Hessian
   Martin Krupicka        : AUTO-CI
   Lucas Lang             : DCDCAS
   Dagmar Lenk            : GEPOL surface, SMD
   Dimitrios Liakos       : Extrapolation schemes; Compound Job, initial MDCI parallelization
   Dimitrios Manganas     : Further ROCIS development; embedding schemes
   Dimitrios Pantazis     : SARC Basis sets
   Taras Petrenko         : DFT Hessian,TD-DFT gradient, ASA, ECA, R-Raman, ABS, FL, XAS/XES, NRVS
   Peter Pinski           : DLPNO-MP2, DLPNO-MP2 Gradient
   Christoph Reimann      : Effective Core Potentials
   Marius Retegan         : Local ZFS, SOC
   Christoph Riplinger    : Optimizer, TS searches, QM/MM, DLPNO-CCSD(T), (RO)-DLPNO pert. Triples
   Tobias Risthaus        : Range-separated hybrids, TD-DFT gradient, RPA, STAB
   Michael Roemelt        : Original ROCIS implementation
   Masaaki Saitow         : Open-shell DLPNO-CCSD energy and density
   Barbara Sandhoefer     : DKH picture change effects
   Avijit Sen             : IP-ROCIS
   Kantharuban Sivalingam : CASSCF convergence, NEVPT2, FIC-MRCI
   Bernardo de Souza      : ESD, SOC TD-DFT
   Georgi Stoychev        : AutoAux, RI-MP2 NMR
   Willem Van den Heuvel  : Paramagnetic NMR
   Boris Wezisla          : Elementary symmetry handling
   Frank Wennmohs         : Technical directorship


 We gratefully acknowledge several colleagues who have allowed us to
 interface, adapt or use parts of their codes:
   Stefan Grimme, W. Hujo, H. Kruse,             : VdW corrections, initial TS optimization,
                  C. Bannwarth                     DFT functionals, gCP, sTDA/sTD-DF
   Ed Valeev, F. Pavosevic, A. Kumar             : LibInt (2-el integral package), F12 methods
   Garnet Chan, S. Sharma, J. Yang, R. Olivares  : DMRG
   Ulf Ekstrom                                   : XCFun DFT Library
   Mihaly Kallay                                 : mrcc  (arbitrary order and MRCC methods)
   Andreas Klamt, Michael Diedenhofen            : otool_cosmo (COSMO solvation model)
   Jiri Pittner, Ondrej Demel                    : Mk-CCSD
   Frank Weinhold                                : gennbo (NPA and NBO analysis)
   Christopher J. Cramer and Donald G. Truhlar   : smd solvation model
   Lars Goerigk                                  : TD-DFT with DH, B97 family of functionals
   V. Asgeirsson, H. Jonsson                     : NEB implementation
   FAccTs GmbH                                   : IRC, NEB, NEB-TS, Multilevel, MM, QM/MM, CI optimization
   S Lehtola, MJT Oliveira, MAL Marques          : LibXC Library


 Your calculation uses the libint2 library for the computation of 2-el integrals
 For citations please refer to: http://libint.valeyev.net

 Your ORCA version has been built with support for libXC version: 4.2.3
 For citations please refer to: https://tddft.org/programs/libxc/

 This ORCA versions uses:
   CBLAS   interface :  Fast vector & matrix operations
   LAPACKE interface :  Fast linear algebra routines
   SCALAPACK package :  Parallel linear algebra routines


Your calculation utilizes the atom-pairwise dispersion correction
with the Becke-Johnson damping scheme (D3BJ)
Cite in your paper:
S.Grimme, S.Ehrlich, L.Goerigk, J Comput Chem, (2011), 32, 1456–1465 
S.Grimme, J.Antony, S.Ehrlich and H.Krieg, J.Chem.Phys., 132, (2010), 154104 
   

----- Orbital basis set information -----
Your calculation utilizes the basis: def2-TZVP
   F. Weigend and R. Ahlrichs, Phys. Chem. Chem. Phys. 7, 3297 (2005).

----- AuxJ basis set information -----
Your calculation utilizes the auxiliary basis: def2/J
   F. Weigend, Phys. Chem. Chem. Phys. 8, 1057 (2006).

================================================================================
                                        WARNINGS
                       Please study these warnings very carefully!
================================================================================


INFO   : the flag for use of LIBINT has been found!

================================================================================
                                       INPUT FILE
================================================================================
NAME = water_sp_orca.inp
|  1> ! SP PBE0 RIJCOSX D3BJ def2/J def2-TZVP
|  2> %geom MaxIter 100 end
|  3> % pointcharges "water_sp_orca.pc"
|  4> %pal nprocs 16
|  5> end
|  6> %output 
|  7> xyzfile=True 
|  8> end 
|  9> %scf 
| 10> maxiter 250 
| 11> end
| 12> % maxcore 4000
| 13> *xyz 0 1
| 14> O   -0.00103000   0.39939000   0.00000000 
| 15> H    0.75412000  -0.19773000   0.00000000 
| 16> H   -0.75309000  -0.20166000   0.00000000 
| 17> O   -0.22538000  -1.86866000  -2.13145000 
| 18> H   -1.09912000  -1.93471000  -1.62551000 
| 19> H   -0.22036000  -0.99323000  -2.63876000 
| 20> O    2.94221000  -1.03512000   0.62416000 
| 21> H    3.65824000  -1.41436000   1.23016000 
| 22> H    2.63733000  -0.15139000   1.01124000 
| 23> O    1.08507000   3.12086000  -0.12875000 
| 24> H    0.59754000   2.67341000  -0.89417000 
| 25> H    1.66090000   2.42528000   0.32771000 
| 26> O   -2.44212000   0.20781000   2.48252000 
| 27> H   -1.59464000  -0.34105000   2.41715000 
| 28> H   -2.41795000   0.91253000   1.75688000 
| 29> O    1.53511000  -3.07003000  -0.45772000 
| 30> H    0.95527000  -2.65082000  -1.17313000 
| 31> H    2.11869000  -2.34529000  -0.06029000 
| 32> O   -2.76137000  -1.55501000  -1.03465000 
| 33> H   -2.90209000  -2.37052000  -1.61680000 
| 34> H   -3.19846000  -1.72814000  -0.13869000 
| 35> O    2.30571000   0.18531000  -2.54618000 
| 36> H    1.34090000   0.38176000  -2.77923000 
| 37> H    2.74290000   1.05110000  -2.25802000 
| 38> O   -0.44392000  -1.78247000   2.37369000 
| 39> H   -0.51514000  -2.59852000   1.77976000 
| 40> H    0.49162000  -1.75301000   2.75795000 
| 41> O   -2.33005000   2.15511000   0.56782000 
| 42> H   -2.48956000   1.75000000  -0.34553000 
| 43> H   -2.93800000   2.95779000   0.66710000 
| 44> O    2.53038000   1.47470000   1.73445000 
| 45> H    1.57841000   1.56849000   2.06417000 
| 46> H    3.14648000   1.86740000   2.43443000 
| 47> O    0.04502000   2.04224000   2.68134000 
| 48> H   -0.69101000   2.22448000   2.01140000 
| 49> H    0.10401000   2.83443000   3.30801000 
| 50> O   -3.36395000   0.98937000  -1.74194000 
| 51> H   -4.36106000   1.09236000  -1.60438000 
| 52> H   -3.11179000   0.03542000  -1.51802000 
| 53> O   -0.38633000   0.40114000  -3.51882000 
| 54> H   -0.45768000   1.34078000  -3.15038000 
| 55> H   -0.24644000   0.46453000  -4.51890000 
| 56> O   -3.86013000  -1.91620000   1.42998000 
| 57> H   -3.51177000  -1.12491000   1.95560000 
| 58> H   -3.58273000  -2.76148000   1.91198000 
| 59> O   -0.62295000  -4.02142000   0.82992000 
| 60> H   -1.22109000  -4.48652000   0.15934000 
| 61> H    0.23642000  -3.76528000   0.36126000 
| 62> O   -0.10195000   2.87121000  -2.57354000 
| 63> H   -0.81755000   3.56001000  -2.76649000 
| 64> H    0.75482000   3.17363000  -3.01879000 
| 65> O    3.94993000  -2.06814000  -2.38372000 
| 66> H    3.29395000  -1.31268000  -2.23292000 
| 67> H    3.42281000  -2.92187000  -2.51432000 
| 68> O   -0.41531000   5.00641000   1.02286000 
| 69> H   -1.13905000   4.60266000   1.60333000 
| 70> H    0.03070000   4.25767000   0.50882000 
| 71> O    5.17041000   1.23422000   0.68986000 
| 72> H    4.21439000   1.20868000   1.02024000 
| 73> H    5.43044000   0.29886000   0.40482000 
| 74> O    1.41881000  -1.78974000  -4.44541000 
| 75> H    2.08115000  -1.14185000  -4.03881000 
| 76> H    0.87004000  -2.19116000  -3.69609000 
| 77> O    1.95873000  -1.57987000   3.78171000 
| 78> H    1.36833000  -0.87569000   4.20515000 
| 79> H    2.36077000  -2.14064000   4.52175000 
| 80> O    0.35036000   0.38566000   4.82318000 
| 81> H   -0.29681000   0.63289000   5.56062000 
| 82> H    0.10530000   0.91685000   3.99762000 
| 83> O    4.47711000  -2.05015000   2.62081000 
| 84> H    3.57503000  -2.04023000   3.07899000 
| 85> H    4.59874000  -2.95462000   2.18389000 
| 86> O   -2.47489000  -1.08748000  -4.82022000 
| 87> H   -1.97190000  -0.55655000  -4.12103000 
| 88> H   -3.03935000  -1.77958000  -4.34468000 
| 89> O   -2.26672000  -2.41088000   4.25947000 
| 90> H   -1.60530000  -2.12620000   3.54866000 
| 91> H   -2.36216000  -3.41725000   4.21623000 
| 92> O    5.77844000  -1.17328000  -0.50449000 
| 93> H    6.08518000  -0.45682000  -1.14975000 
| 94> H    5.03027000  -1.69378000  -0.94389000 
| 95> O    4.40064000   3.21588000  -1.02039000 
| 96> H    4.13933000   3.94944000  -0.37435000 
| 97> H    4.81368000   2.46035000  -0.48904000 
| 98> O   -2.66445000  -3.68897000  -2.64980000 
| 99> H   -3.40522000  -3.77746000  -3.33331000 
|100> H   -2.71435000  -4.48422000  -2.02622000 
|101> O   -2.97682000   2.18936000  -4.14500000 
|102> H   -3.69831000   1.75686000  -4.70727000 
|103> H   -2.98253000   1.75079000  -3.23319000 
|104> O   -2.18783000   4.13207000   2.83997000 
|105> H   -2.93479000   4.25627000   2.16886000 
|106> H   -2.45456000   3.39073000   3.47481000 
|107> O   -6.03206000  -1.38470000  -0.23840000 
|108> H   -5.37397000  -1.37432000   0.53009000 
|109> H   -6.02089000  -2.30874000  -0.65043000 
|110> O    1.60295000   5.50672000  -1.37477000 
|111> H    0.73652000   5.99745000  -1.55435000 
|112> H    1.37636000   4.58731000  -1.01825000 
|113> O    2.46591000  -5.60239000   0.05885000 
|114> H    2.09515000  -4.67638000  -0.11090000 
|115> H    2.58519000  -6.06271000  -0.83425000 
|116> O    1.74752000   5.24574000   2.62458000 
|117> H    1.02626000   5.26398000   1.91520000 
|118> H    1.40887000   4.69702000   3.40431000 
|119> O   -3.18833000   2.18939000   4.40549000 
|120> H   -3.05036000   1.35044000   3.85695000 
|121> H   -3.88094000   1.99108000   5.11593000 
|122> O   -5.85850000   2.24560000   1.28597000 
|123> H   -5.79193000   1.46502000   1.92631000 
|124> H   -6.01331000   1.87808000   0.35607000 
|125> O    2.54048000  -4.30037000  -3.40138000 
|126> H    2.85983000  -4.08502000  -4.33700000 
|127> H    1.53194000  -4.37880000  -3.42285000 
|128> O    2.22781000   3.46906000  -3.75126000 
|129> H    2.15072000   3.44382000  -4.75981000 
|130> H    2.76651000   4.28684000  -3.49672000 
|131> O   -0.16106000  -4.58965000  -3.66453000 
|132> H   -0.83288000  -3.96132000  -3.24307000 
|133> H   -0.63712000  -5.45263000  -3.89342000 
|134> O    2.81967000   1.17287000   5.64254000 
|135> H    3.23635000   1.65238000   4.85501000 
|136> H    1.89162000   0.87261000   5.37360000 
|137> O    4.65657000  -4.40575000   1.19220000 
|138> H    3.75582000  -4.85422000   1.08595000 
|139> H    5.12617000  -4.42561000   0.29618000 
|140> O    4.61649000   1.87964000  -4.18156000 
|141> H    3.93938000   1.33437000  -4.69921000 
|142> H    4.11684000   2.58260000  -3.65245000 
|143> O   -6.11011000   1.17182000  -1.23551000 
|144> H   -6.08265000   0.20642000  -0.93386000 
|145> H   -6.81588000   1.25710000  -1.95548000 
|146> O   -2.19840000   4.57507000  -3.22026000 
|147> H   -2.52232000   3.68967000  -3.58753000 
|148> H   -1.91097000   5.15322000  -3.99929000 
|149> O   -2.46263000  -5.56739000  -0.55110000 
|150> H   -2.95636000  -5.38742000   0.31353000 
|151> H   -2.16172000  -6.53342000  -0.54700000 
|152> O    3.55205000   5.33577000   0.50590000 
|153> H    2.97467000   5.24640000   1.33199000 
|154> H    2.95412000   5.58637000  -0.27091000 
|155> O    4.32976000   2.25245000   3.64444000 
|156> H    4.91937000   1.43397000   3.56562000 
|157> H    4.92555000   3.05727000   3.78956000 
|158> O   -5.76775000   0.14181000   2.95306000 
|159> H   -5.12967000  -0.06621000   3.71025000 
|160> H   -6.42060000  -0.62682000   2.87092000 
|161> O   -4.03421000   4.29724000   0.93987000 
|162> H   -4.29535000   5.26059000   0.77392000 
|163> H   -4.88158000   3.75605000   1.05321000 
|164> *
|165> 
|166>                          ****END OF INPUT****
================================================================================

                       ****************************
                       * Single Point Calculation *
                       ****************************

---------------------------------
CARTESIAN COORDINATES (ANGSTROEM)
---------------------------------
  O     -0.001030    0.399390    0.000000
  H      0.754120   -0.197730    0.000000
  H     -0.753090   -0.201660    0.000000
  O     -0.225380   -1.868660   -2.131450
  H     -1.099120   -1.934710   -1.625510
  H     -0.220360   -0.993230   -2.638760
  O      2.942210   -1.035120    0.624160
  H      3.658240   -1.414360    1.230160
  H      2.637330   -0.151390    1.011240
  O      1.085070    3.120860   -0.128750
  H      0.597540    2.673410   -0.894170
  H      1.660900    2.425280    0.327710
  O     -2.442120    0.207810    2.482520
  H     -1.594640   -0.341050    2.417150
  H     -2.417950    0.912530    1.756880
  O      1.535110   -3.070030   -0.457720
  H      0.955270   -2.650820   -1.173130
  H      2.118690   -2.345290   -0.060290
  O     -2.761370   -1.555010   -1.034650
  H     -2.902090   -2.370520   -1.616800
  H     -3.198460   -1.728140   -0.138690
  O      2.305710    0.185310   -2.546180
  H      1.340900    0.381760   -2.779230
  H      2.742900    1.051100   -2.258020
  O     -0.443920   -1.782470    2.373690
  H     -0.515140   -2.598520    1.779760
  H      0.491620   -1.753010    2.757950
  O     -2.330050    2.155110    0.567820
  H     -2.489560    1.750000   -0.345530
  H     -2.938000    2.957790    0.667100
  O      2.530380    1.474700    1.734450
  H      1.578410    1.568490    2.064170
  H      3.146480    1.867400    2.434430
  O      0.045020    2.042240    2.681340
  H     -0.691010    2.224480    2.011400
  H      0.104010    2.834430    3.308010
  O     -3.363950    0.989370   -1.741940
  H     -4.361060    1.092360   -1.604380
  H     -3.111790    0.035420   -1.518020
  O     -0.386330    0.401140   -3.518820
  H     -0.457680    1.340780   -3.150380
  H     -0.246440    0.464530   -4.518900
  O     -3.860130   -1.916200    1.429980
  H     -3.511770   -1.124910    1.955600
  H     -3.582730   -2.761480    1.911980
  O     -0.622950   -4.021420    0.829920
  H     -1.221090   -4.486520    0.159340
  H      0.236420   -3.765280    0.361260
  O     -0.101950    2.871210   -2.573540
  H     -0.817550    3.560010   -2.766490
  H      0.754820    3.173630   -3.018790
  O      3.949930   -2.068140   -2.383720
  H      3.293950   -1.312680   -2.232920
  H      3.422810   -2.921870   -2.514320
  O     -0.415310    5.006410    1.022860
  H     -1.139050    4.602660    1.603330
  H      0.030700    4.257670    0.508820
  O      5.170410    1.234220    0.689860
  H      4.214390    1.208680    1.020240
  H      5.430440    0.298860    0.404820
  O      1.418810   -1.789740   -4.445410
  H      2.081150   -1.141850   -4.038810
  H      0.870040   -2.191160   -3.696090
  O      1.958730   -1.579870    3.781710
  H      1.368330   -0.875690    4.205150
  H      2.360770   -2.140640    4.521750
  O      0.350360    0.385660    4.823180
  H     -0.296810    0.632890    5.560620
  H      0.105300    0.916850    3.997620
  O      4.477110   -2.050150    2.620810
  H      3.575030   -2.040230    3.078990
  H      4.598740   -2.954620    2.183890
  O     -2.474890   -1.087480   -4.820220
  H     -1.971900   -0.556550   -4.121030
  H     -3.039350   -1.779580   -4.344680
  O     -2.266720   -2.410880    4.259470
  H     -1.605300   -2.126200    3.548660
  H     -2.362160   -3.417250    4.216230
  O      5.778440   -1.173280   -0.504490
  H      6.085180   -0.456820   -1.149750
  H      5.030270   -1.693780   -0.943890
  O      4.400640    3.215880   -1.020390
  H      4.139330    3.949440   -0.374350
  H      4.813680    2.460350   -0.489040
  O     -2.664450   -3.688970   -2.649800
  H     -3.405220   -3.777460   -3.333310
  H     -2.714350   -4.484220   -2.026220
  O     -2.976820    2.189360   -4.145000
  H     -3.698310    1.756860   -4.707270
  H     -2.982530    1.750790   -3.233190
  O     -2.187830    4.132070    2.839970
  H     -2.934790    4.256270    2.168860
  H     -2.454560    3.390730    3.474810
  O     -6.032060   -1.384700   -0.238400
  H     -5.373970   -1.374320    0.530090
  H     -6.020890   -2.308740   -0.650430
  O      1.602950    5.506720   -1.374770
  H      0.736520    5.997450   -1.554350
  H      1.376360    4.587310   -1.018250
  O      2.465910   -5.602390    0.058850
  H      2.095150   -4.676380   -0.110900
  H      2.585190   -6.062710   -0.834250
  O      1.747520    5.245740    2.624580
  H      1.026260    5.263980    1.915200
  H      1.408870    4.697020    3.404310
  O     -3.188330    2.189390    4.405490
  H     -3.050360    1.350440    3.856950
  H     -3.880940    1.991080    5.115930
  O     -5.858500    2.245600    1.285970
  H     -5.791930    1.465020    1.926310
  H     -6.013310    1.878080    0.356070
  O      2.540480   -4.300370   -3.401380
  H      2.859830   -4.085020   -4.337000
  H      1.531940   -4.378800   -3.422850
  O      2.227810    3.469060   -3.751260
  H      2.150720    3.443820   -4.759810
  H      2.766510    4.286840   -3.496720
  O     -0.161060   -4.589650   -3.664530
  H     -0.832880   -3.961320   -3.243070
  H     -0.637120   -5.452630   -3.893420
  O      2.819670    1.172870    5.642540
  H      3.236350    1.652380    4.855010
  H      1.891620    0.872610    5.373600
  O      4.656570   -4.405750    1.192200
  H      3.755820   -4.854220    1.085950
  H      5.126170   -4.425610    0.296180
  O      4.616490    1.879640   -4.181560
  H      3.939380    1.334370   -4.699210
  H      4.116840    2.582600   -3.652450
  O     -6.110110    1.171820   -1.235510
  H     -6.082650    0.206420   -0.933860
  H     -6.815880    1.257100   -1.955480
  O     -2.198400    4.575070   -3.220260
  H     -2.522320    3.689670   -3.587530
  H     -1.910970    5.153220   -3.999290
  O     -2.462630   -5.567390   -0.551100
  H     -2.956360   -5.387420    0.313530
  H     -2.161720   -6.533420   -0.547000
  O      3.552050    5.335770    0.505900
  H      2.974670    5.246400    1.331990
  H      2.954120    5.586370   -0.270910
  O      4.329760    2.252450    3.644440
  H      4.919370    1.433970    3.565620
  H      4.925550    3.057270    3.789560
  O     -5.767750    0.141810    2.953060
  H     -5.129670   -0.066210    3.710250
  H     -6.420600   -0.626820    2.870920
  O     -4.034210    4.297240    0.939870
  H     -4.295350    5.260590    0.773920
  H     -4.881580    3.756050    1.053210

----------------------------
CARTESIAN COORDINATES (A.U.)
----------------------------
  NO LB      ZA    FRAG     MASS         X           Y           Z
   0 O     8.0000    0    15.999   -0.001946    0.754738    0.000000
   1 H     1.0000    0     1.008    1.425080   -0.373656    0.000000
   2 H     1.0000    0     1.008   -1.423134   -0.381082    0.000000
   3 O     8.0000    0    15.999   -0.425906   -3.531256   -4.027857
   4 H     1.0000    0     1.008   -2.077036   -3.656072   -3.071769
   5 H     1.0000    0     1.008   -0.416420   -1.876933   -4.986534
   6 O     8.0000    0    15.999    5.559971   -1.956093    1.179491
   7 H     1.0000    0     1.008    6.913072   -2.672753    2.324666
   8 H     1.0000    0     1.008    4.983831   -0.286086    1.910967
   9 O     8.0000    0    15.999    2.050485    5.897571   -0.243302
  10 H     1.0000    0     1.008    1.129187    5.052013   -1.689736
  11 H     1.0000    0     1.008    3.138646    4.583115    0.619282
  12 O     8.0000    0    15.999   -4.614938    0.392704    4.691283
  13 H     1.0000    0     1.008   -3.013433   -0.644491    4.567752
  14 H     1.0000    0     1.008   -4.569263    1.724432    3.320022
  15 O     8.0000    0    15.999    2.900937   -5.801516   -0.864965
  16 H     1.0000    0     1.008    1.805199   -5.009324   -2.216894
  17 H     1.0000    0     1.008    4.003744   -4.431956   -0.113932
  18 O     8.0000    0    15.999   -5.218233   -2.938543   -1.955205
  19 H     1.0000    0     1.008   -5.484155   -4.479634   -3.055309
  20 H     1.0000    0     1.008   -6.044213   -3.265711   -0.262086
  21 O     8.0000    0    15.999    4.357160    0.350185   -4.811583
  22 H     1.0000    0     1.008    2.533934    0.721422   -5.251984
  23 H     1.0000    0     1.008    5.183330    1.986291   -4.267039
  24 O     8.0000    0    15.999   -0.838887   -3.368380    4.485624
  25 H     1.0000    0     1.008   -0.973474   -4.910491    3.363259
  26 H     1.0000    0     1.008    0.929027   -3.312709    5.211770
  27 O     8.0000    0    15.999   -4.403156    4.072568    1.073024
  28 H     1.0000    0     1.008   -4.704587    3.307021   -0.652957
  29 H     1.0000    0     1.008   -5.552015    5.589413    1.260636
  30 O     8.0000    0    15.999    4.781725    2.786779    3.277635
  31 H     1.0000    0     1.008    2.982763    2.964017    3.900716
  32 H     1.0000    0     1.008    5.945985    3.528875    4.600406
  33 O     8.0000    0    15.999    0.085075    3.859274    5.066998
  34 H     1.0000    0     1.008   -1.305820    4.203658    3.800995
  35 H     1.0000    0     1.008    0.196550    5.356296    6.251233
  36 O     8.0000    0    15.999   -6.356944    1.869638   -3.291790
  37 H     1.0000    0     1.008   -8.241209    2.064261   -3.031839
  38 H     1.0000    0     1.008   -5.880431    0.066934   -2.868642
  39 O     8.0000    0    15.999   -0.730058    0.758045   -6.649606
  40 H     1.0000    0     1.008   -0.864890    2.533707   -5.953355
  41 H     1.0000    0     1.008   -0.465704    0.877834   -8.539483
  42 O     8.0000    0    15.999   -7.294589   -3.621093    2.702271
  43 H     1.0000    0     1.008   -6.636284   -2.125772    3.695548
  44 H     1.0000    0     1.008   -6.770379   -5.218441    3.613119
  45 O     8.0000    0    15.999   -1.177205   -7.599382    1.568322
  46 H     1.0000    0     1.008   -2.307526   -8.478294    0.301109
  47 H     1.0000    0     1.008    0.446769   -7.115348    0.682682
  48 O     8.0000    0    15.999   -0.192658    5.425801   -4.863286
  49 H     1.0000    0     1.008   -1.544946    6.727444   -5.227908
  50 H     1.0000    0     1.008    1.426403    5.997292   -5.704686
  51 O     8.0000    0    15.999    7.464286   -3.908218   -4.504578
  52 H     1.0000    0     1.008    6.224663   -2.480606   -4.219607
  53 H     1.0000    0     1.008    6.468174   -5.521534   -4.751376
  54 O     8.0000    0    15.999   -0.784822    9.460744    1.932925
  55 H     1.0000    0     1.008   -2.152493    8.697767    3.029855
  56 H     1.0000    0     1.008    0.058015    8.045830    0.961530
  57 O     8.0000    0    15.999    9.770659    2.332338    1.303646
  58 H     1.0000    0     1.008    7.964043    2.284074    1.927974
  59 H     1.0000    0     1.008   10.262044    0.564764    0.764999
  60 O     8.0000    0    15.999    2.681162   -3.382118   -8.400607
  61 H     1.0000    0     1.008    3.932804   -2.157784   -7.632245
  62 H     1.0000    0     1.008    1.644137   -4.140692   -6.984598
  63 O     8.0000    0    15.999    3.701463   -2.985522    7.146396
  64 H     1.0000    0     1.008    2.585769   -1.654814    7.946582
  65 H     1.0000    0     1.008    4.461209   -4.045223    8.544869
  66 O     8.0000    0    15.999    0.662084    0.728792    9.114489
  67 H     1.0000    0     1.008   -0.560890    1.195989   10.508049
  68 H     1.0000    0     1.008    0.198988    1.732595    7.554407
  69 O     8.0000    0    15.999    8.460512   -3.874222    4.952613
  70 H     1.0000    0     1.008    6.755828   -3.855476    5.818448
  71 H     1.0000    0     1.008    8.690359   -5.583423    4.126954
  72 O     8.0000    0    15.999   -4.676864   -2.055039   -9.108896
  73 H     1.0000    0     1.008   -3.726351   -1.051727   -7.787618
  74 H     1.0000    0     1.008   -5.743539   -3.362919   -8.210255
  75 O     8.0000    0    15.999   -4.283480   -4.555903    8.049232
  76 H     1.0000    0     1.008   -3.033577   -4.017936    6.705996
  77 H     1.0000    0     1.008   -4.463835   -6.457667    7.967520
  78 O     8.0000    0    15.999   10.919669   -2.217178   -0.953348
  79 H     1.0000    0     1.008   11.499324   -0.863265   -2.172713
  80 H     1.0000    0     1.008    9.505833   -3.200780   -1.783694
  81 O     8.0000    0    15.999    8.316004    6.077132   -1.928258
  82 H     1.0000    0     1.008    7.822200    7.463360   -0.707419
  83 H     1.0000    0     1.008    9.096537    4.649388   -0.924152
  84 O     8.0000    0    15.999   -5.035081   -6.971143   -5.007396
  85 H     1.0000    0     1.008   -6.434933   -7.138365   -6.299043
  86 H     1.0000    0     1.008   -5.129378   -8.473948   -3.829001
  87 O     8.0000    0    15.999   -5.625375    4.137291   -7.832915
  88 H     1.0000    0     1.008   -6.988793    3.319984   -8.895451
  89 H     1.0000    0     1.008   -5.636165    3.308514   -6.109844
  90 O     8.0000    0    15.999   -4.134400    7.808481    5.366766
  91 H     1.0000    0     1.008   -5.545949    8.043185    4.098551
  92 H     1.0000    0     1.008   -4.638446    6.407551    6.566439
  93 O     8.0000    0    15.999  -11.398941   -2.616704   -0.450511
  94 H     1.0000    0     1.008  -10.155332   -2.597088    1.001725
  95 H     1.0000    0     1.008  -11.377833   -4.362886   -1.229135
  96 O     8.0000    0    15.999    3.029137   10.406193   -2.597939
  97 H     1.0000    0     1.008    1.391821   11.333538   -2.937296
  98 H     1.0000    0     1.008    2.600943    8.668760   -1.924214
  99 O     8.0000    0    15.999    4.659895  -10.586983    0.111210
 100 H     1.0000    0     1.008    3.959260   -8.837077   -0.209571
 101 H     1.0000    0     1.008    4.885301  -11.456862   -1.576504
 102 O     8.0000    0    15.999    3.302334    9.913012    4.959737
 103 H     1.0000    0     1.008    1.939350    9.947481    3.619203
 104 H     1.0000    0     1.008    2.662378    8.876081    6.433214
 105 O     8.0000    0    15.999   -6.025071    4.137348    8.325170
 106 H     1.0000    0     1.008   -5.764345    2.551962    7.288579
 107 H     1.0000    0     1.008   -7.333914    3.762596    9.667707
 108 O     8.0000    0    15.999  -11.070961    4.243569    2.430131
 109 H     1.0000    0     1.008  -10.945161    2.768487    3.640198
 110 H     1.0000    0     1.008  -11.363509    3.549057    0.672875
 111 O     8.0000    0    15.999    4.800811   -8.126522   -6.427677
 112 H     1.0000    0     1.008    5.404295   -7.719569   -8.195742
 113 H     1.0000    0     1.008    2.894947   -8.274733   -6.468249
 114 O     8.0000    0    15.999    4.209951    6.555573   -7.088854
 115 H     1.0000    0     1.008    4.064272    6.507877   -8.994737
 116 H     1.0000    0     1.008    5.227946    8.100954   -6.607843
 117 O     8.0000    0    15.999   -0.304359   -8.673182   -6.924958
 118 H     1.0000    0     1.008   -1.573915   -7.485810   -6.128514
 119 H     1.0000    0     1.008   -1.203982  -10.303977   -7.357498
 120 O     8.0000    0    15.999    5.328404    2.216403   10.662855
 121 H     1.0000    0     1.008    6.115815    3.122546    9.174639
 122 H     1.0000    0     1.008    3.574644    1.648994   10.154632
 123 O     8.0000    0    15.999    8.799642   -8.325661    2.252931
 124 H     1.0000    0     1.008    7.097471   -9.173146    2.052148
 125 H     1.0000    0     1.008    9.687057   -8.363191    0.559699
 126 O     8.0000    0    15.999    8.723902    3.552005   -7.902003
 127 H     1.0000    0     1.008    7.444349    2.521594   -8.880220
 128 H     1.0000    0     1.008    7.779700    4.880407   -6.902130
 129 O     8.0000    0    15.999  -11.546435    2.214419   -2.334776
 130 H     1.0000    0     1.008  -11.494543    0.390077   -1.764740
 131 H     1.0000    0     1.008  -12.880147    2.375575   -3.695322
 132 O     8.0000    0    15.999   -4.154374    8.645629   -6.085409
 133 H     1.0000    0     1.008   -4.766494    6.972466   -6.779449
 134 H     1.0000    0     1.008   -3.611210    9.738175   -7.557563
 135 O     8.0000    0    15.999   -4.653696  -10.520842   -1.041428
 136 H     1.0000    0     1.008   -5.586711  -10.180748    0.592486
 137 H     1.0000    0     1.008   -4.085059  -12.346375   -1.033680
 138 O     8.0000    0    15.999    6.712402   10.083144    0.956012
 139 H     1.0000    0     1.008    5.621312    9.914259    2.517096
 140 H     1.0000    0     1.008    5.582478   10.556709   -0.511946
 141 O     8.0000    0    15.999    8.182061    4.256514    6.886994
 142 H     1.0000    0     1.008    9.296262    2.709811    6.738045
 143 H     1.0000    0     1.008    9.307941    5.777403    7.161231
 144 O     8.0000    0    15.999  -10.899468    0.267982    5.580475
 145 H     1.0000    0     1.008   -9.693671   -0.125119    7.011356
 146 H     1.0000    0     1.008  -12.133176   -1.184518    5.425253
 147 O     8.0000    0    15.999   -7.623552    8.120607    1.776097
 148 H     1.0000    0     1.008   -8.117035    9.941074    1.462497
 149 H     1.0000    0     1.008   -9.224849    7.097906    1.990278

--------------------------------
INTERNAL COORDINATES (ANGSTROEM)
--------------------------------
 O      0   0   0     0.000000000000     0.00000000     0.00000000
 H      1   0   0     0.962706506107     0.00000000     0.00000000
 H      1   2   0     0.962733268408   103.03349128     0.00000000
 O      3   1   2     2.756890630148   103.17789956   307.43483898
 H      4   3   1     1.011809998814    59.17502978   185.58980536
 H      4   3   1     1.011813382695    82.26605077   302.14639018
 O      2   1   3     2.424569150550   157.23759176   221.70923985
 H      7   2   1     1.011809240173   157.26244749    65.13741070
 H      7   2   1     1.011810977258    61.63377590   357.01036183
 O      1   2   3     2.933017001894   106.56181031   182.62487912
 H     10   1   2     1.011812620894    56.25151647   109.19390551
 H     10   1   2     1.011813943816    63.45266675   330.38056482
 O      3   1   2     3.030411452625   110.55069833   118.96948152
 H     13   3   1     1.011801802183    53.62514882   278.19404886
 H     13   3   1     1.011814151364    59.55513132    70.03615485
 O      7   2   1     2.700232110856    71.75126786   160.99616793
 H     16   7   2     1.011811700763   105.64579547    34.03686142
 H     16   7   2     1.011812378309     3.86710674   164.81015180
 O      5   4   3     1.804539468147   160.98638808    75.03617649
 H     19   5   4     1.011808925143    76.71062903   108.83121083
 H     19   5   4     1.011813217249   130.68195402   211.48259816
 O      6   4   3     2.789006495672   110.69899291    86.27380642
 H     22   6   4     1.011811860525    37.88434803   193.85975036
 H     22   6   4     1.011812040747   139.67509356   236.94063641
 O     14  13   3     1.844921924202   161.39962318   249.58462555
 H     25  14  13     1.011811610825   126.87375959    53.37036216
 H     25  14  13     1.011809631700   123.02552722   215.55027568
 O     15  13   3     1.722090343159   177.38796262   255.86995388
 H     28  15  13     1.011813112536   109.04676645   154.09421673
 H     28  15  13     1.011807740285   118.29412176   278.15514138
 O      9   7   2     1.782873998548   165.89855235   203.85393422
 H     31   9   7     1.011809628043   105.85304282   196.95231183
 H     31   9   7     1.011812482825   126.73287726   324.97246708
 O     32  31   9     1.719483283868   168.97288029   187.89565976
 H     34  32  31     1.011815784666   117.43096408   101.26720334
 H     34  32  31     1.011810310829   112.70754791   334.56749373
 O     29  28  15     1.814683652073   159.78530747    71.81208275
 H     37  29  28     1.011809293197   109.12068269    14.89644704
 H     37  29  28     1.011803061124    96.01593061   263.30248696
 O      6   4   3     1.657202263274   173.59197216   261.48750506
 H     40   6   4     1.011811338986   126.51759524   109.01082995
 H     40   6   4     1.011804087064   124.31662036   276.08686269
 O     21  19   5     1.712862902103   175.28555914    74.11936946
 H     43  21  19     1.011815664091   104.88555477     8.47515275
 H     43  21  19     1.011816701977   114.96622441   249.83759340
 O     26  25  14     1.714194688972   177.64262606   226.12798233
 H     46  26  25     1.011813720998   141.81035657   129.20251339
 H     46  26  25     1.011813565881    89.60496659   248.87481716
 O     41  40   6     1.673769459454   163.66811381    88.47390313
 H     49  41  40     1.011809518882   113.98057438   150.04527133
 H     49  41  40     1.011810383323   107.55381931    30.15938436
 O     22   6   4     2.794260110029   101.19224595    30.26421440
 H     52  22   6     1.011815305281    12.85000552   290.80938701
 H     52  22   6     1.011813603042   111.49392933     8.03476367
 O     10   1   2     2.670701132474   115.34896206   209.14670841
 H     55  10   1     1.011809799814   111.56141527    13.38430405
 H     55  10   1     1.011816993977     8.44733546   305.77323747
 O     33  31   9     2.746039701497    85.39917796    54.46891007
 H     58  33  31     1.011818895060    26.10224147   349.53886814
 H     58  33  31     1.011811114833   125.55924848   295.61348686
 O      6   4   3     2.566182123603    95.02595766   151.32630644
 H     61   6   4     1.011819790131    86.35775904   248.68645913
 H     61   6   4     1.011813713932    41.86867927    11.27764111
 O     27  25  14     1.797351871310   166.86939940    54.60447567
 H     64  27  25     1.011801890688    80.16092036   330.03692372
 H     64  27  25     1.011809446536   133.43672060    75.76975008
 O     65  64  27     1.734712605679   176.00730864   301.22042548
 H     67  65  64     1.011814921515   144.35752779   157.90995437
 H     67  65  64     1.011813487408   103.48371112     5.77369598
 O      8   7   2     1.734555973009   162.11066410     1.93307719
 H     70   8   7     1.011817990154    86.47770233     6.00251662
 H     70   8   7     1.011809727271    92.18945327   114.05822577
 O     42  40   6     2.732310045548    87.74503322    67.52423949
 H     73  42  40     1.011806434601    38.76548382    11.94702879
 H     73  42  40     1.011808180042   142.34515038   335.03123277
 O     25  14  13     2.696973336260    75.16828215   321.78904629
 H     76  25  14     1.011815188115     3.05383328   353.45765460
 H     76  25  14     1.011809798381   105.40400634   147.64384559
 O     60  58  33     1.764977296086   165.21067518   119.63126288
 H     79  60  58     1.011812644119    78.32949818    36.31070572
 H     79  60  58     1.011805791098   120.46527532   291.98082288
 O     58  33  31     2.728456939554    91.30733574    71.16548073
 H     82  58  33     1.011810689457   101.49012530    38.40807466
 H     82  58  33     1.011810478795     9.36443204   174.53168459
 O     20  19   5     1.691706881259   163.72935635   359.45088650
 H     85  20  19     1.011808575324   112.19837442   220.14325673
 H     85  20  19     1.011812526558   103.25553390   103.92725273
 O     37  29  28     2.713769150204   115.29775558   129.52142258
 H     88  37  29     1.011806119274   101.61578579   192.57580326
 H     88  37  29     1.011817041317     7.92336550    46.48926560
 O     56  55  10     1.688393593360   167.35184171   122.50640005
 H     91  56  55     1.011811995234    86.47713157   136.49369672
 H     91  56  55     1.011806164292   145.84493924   254.21116880
 O     43  21  19     2.789850175063    74.46320331   121.27978818
 H     94  43  21     1.011813753909    16.54446326   227.19162822
 H     94  43  21     1.011802061374    93.49407283    74.27613805
 O     10   1   2     2.741002275519   153.84064931   108.74971293
 H     97  10   1     1.011813151822   109.94095971    66.47800761
 H     97  10   1     1.011812377173     6.57102794   351.19687317
 O     16   7   2     2.747012991323   116.28291091   197.69179488
 H    100  16   7     1.011816465670     1.99878705   110.60168578
 H    100  16   7     1.011805233629   107.05913495   233.88883652
 O     55  10   1     2.701965842900    82.44116808   117.15682613
 H    103  55  10     1.011814543086    10.06363354    83.82272406
 H    103  55  10     1.011808447188    98.09863852   260.85525847
 O     93  91  56     1.687543027866   169.18751561   235.52280629
 H    106  93  91     1.011814684120   103.41399288    91.11346593
 H    106  93  91     1.011810487097   145.52801166   295.17087043
 O     30  28  15     3.069126084572   114.04510240   312.99636879
 H    109  30  28     1.011816197192   104.12417677    38.93601348
 H    109  30  28     1.011805859096    92.55403111   289.50137666
 O     54  52  22     1.861624001376   158.94093095    81.16400073
 H    112  54  52     1.011802762103    97.66756063    11.33495624
 H    112  54  52     1.011812807490   122.67908267   253.96355022
 O     51  49  41     1.671373903679   172.72237789   326.98771328
 H    115  51  49     1.011806813675   111.42464860    92.10433331
 H    115  51  49     1.011806518066   120.12135400   220.02021476
 O    114 112  54     1.723112284472   172.66098527   144.56751607
 H    118 114 112     1.011814821447   121.19556615   213.48352664
 H    118 114 112     1.011809387237   126.75374602    58.43161353
 O     67  65  64     2.718187313229    77.57746473   259.64770688
 H    121  67  65     1.011808066483   106.06579925    82.97105561
 H    121  67  65     1.011811046441     2.14240320   249.47502659
 O     72  70   8     1.758570908977   170.09681957   358.05158438
 H    124  72  70     1.011812712857   113.30888042   290.47478659
 H    124  72  70     1.011815408066   122.06225766    62.54807611
 O     24  22   6     2.810128849590   110.20805499   223.24216047
 H    127  24  22     1.011809689369    75.23394687    27.08265558
 H    127  24  22     1.011810395380    61.16103107   147.93704677
 O    111 109  30     1.743932431031   173.90926281    39.70976640
 H    130 111 109     1.011802319675    96.47766008    65.47847121
 H    130 111 109     1.011800757165   130.84333528   186.31273682
 O     50  49  41     1.772851019968   171.67028822   359.84638010
 H    133  50  49     1.011802638512    80.86463984     1.51436143
 H    133  50  49     1.011810836224   107.63591325   255.25870392
 O     47  46  26     1.792882182995   161.64142635   264.82217502
 H    136  47  46     1.011802130211    83.80346302    34.77483862
 H    136  47  46     1.011818955644   111.59469173   287.67817425
 O     83  82  58     1.744032319024   170.24094652   196.03323169
 H    139  83  82     1.011819820620   122.27734519   123.13744151
 H    139  83  82     1.011807501949    90.47988672    11.19301953
 O     33  31   9     1.735666805870   169.58062212   353.43713625
 H    142  33  31     1.011811274349    99.41049324    13.01888833
 H    142  33  31     1.011810639843   132.67860299   138.63078624
 O    110 109  30     1.675017892143   176.67081839   208.34223550
 H    145 110 109     1.011807838920   129.06780421   189.04642022
 H    145 110 109     1.011806394030   122.75384115    11.28660676
 O     92  91  56     1.649490617554   171.60670607    57.71011061
 H    148  92  91     1.011818523551   108.53421700   222.69320772
 H    148  92  91     1.011814453643   117.48067971    99.69043694

---------------------------
INTERNAL COORDINATES (A.U.)
---------------------------
 O      0   0   0     0.000000000000     0.00000000     0.00000000
 H      1   0   0     1.819251643886     0.00000000     0.00000000
 H      1   2   0     1.819302217306   103.03349128     0.00000000
 O      3   1   2     5.209768272154   103.17789956   307.43483898
 H      4   3   1     1.912043797322    59.17502978   185.58980536
 H      4   3   1     1.912050191929    82.26605077   302.14639018
 O      2   1   3     4.581771687294   157.23759176   221.70923985
 H      7   2   1     1.912042363698   157.26244749    65.13741070
 H      7   2   1     1.912045646313    61.63377590   357.01036183
 O      1   2   3     5.542598879715   106.56181031   182.62487912
 H     10   1   2     1.912048752334    56.25151647   109.19390551
 H     10   1   2     1.912051252295    63.45266675   330.38056482
 O      3   1   2     5.726647718559   110.55069833   118.96948152
 H     13   3   1     1.912028307933    53.62514882   278.19404886
 H     13   3   1     1.912051644503    59.55513132    70.03615485
 O      7   2   1     5.102699187539    71.75126786   160.99616793
 H     16   7   2     1.912047013538   105.64579547    34.03686142
 H     16   7   2     1.912048293916     3.86710674   164.81015180
 O      5   4   3     3.410085392650   160.98638808    75.03617649
 H     19   5   4     1.912041768378    76.71062903   108.83121083
 H     19   5   4     1.912049879283   130.68195402   211.48259816
 O      6   4   3     5.270458462547   110.69899291    86.27380642
 H     22   6   4     1.912047315446    37.88434803   193.85975036
 H     22   6   4     1.912047656015   139.67509356   236.94063641
 O     14  13   3     3.486397175208   161.39962318   249.58462555
 H     25  14  13     1.912046843581   126.87375959    53.37036216
 H     25  14  13     1.912043103576   123.02552722   215.55027568
 O     15  13   3     3.254279126440   177.38796262   255.86995388
 H     28  15  13     1.912049681404   109.04676645   154.09421673
 H     28  15  13     1.912039529320   118.29412176   278.15514138
 O      9   7   2     3.369143588546   165.89855235   203.85393422
 H     31   9   7     1.912043096666   105.85304282   196.95231183
 H     31   9   7     1.912048491422   126.73287726   324.97246708
 O     32  31   9     3.249352498365   168.97288029   187.89565976
 H     34  32  31     1.912054730998   117.43096408   101.26720334
 H     34  32  31     1.912044386945   112.70754791   334.56749373
 O     29  28  15     3.429255122121   159.78530747    71.81208275
 H     37  29  28     1.912042463899   109.12068269    14.89644704
 H     37  29  28     1.912030686988    96.01593061   263.30248696
 O      6   4   3     3.131658426102   173.59197216   261.48750506
 H     40   6   4     1.912046329879   126.51759524   109.01082995
 H     40   6   4     1.912032625734   124.31662036   276.08686269
 O     21  19   5     3.236841789928   175.28555914    74.11936946
 H     43  21  19     1.912054503144   104.88555477     8.47515275
 H     43  21  19     1.912056464464   114.96622441   249.83759340
 O     26  25  14     3.239358502380   177.64262606   226.12798233
 H     46  26  25     1.912050831230   141.81035657   129.20251339
 H     46  26  25     1.912050538101    89.60496659   248.87481716
 O     41  40   6     3.162965889689   163.66811381    88.47390313
 H     49  41  40     1.912042890381   113.98057438   150.04527133
 H     49  41  40     1.912044523938   107.55381931    30.15938436
 O     22   6   4     5.280386354896   101.19224595    30.26421440
 H     52  22   6     1.912053825090    12.85000552   290.80938701
 H     52  22   6     1.912050608325   111.49392933     8.03476367
 O     10   1   2     5.046893725930   115.34896206   209.14670841
 H     55  10   1     1.912043421266   111.56141527    13.38430405
 H     55  10   1     1.912057016263     8.44733546   305.77323747
 O     33  31   9     5.189262988705    85.39917796    54.46891007
 H     58  33  31     1.912060608790    26.10224147   349.53886814
 H     58  33  31     1.912045906292   125.55924848   295.61348686
 O      6   4   3     4.849381423374    95.02595766   151.32630644
 H     61   6   4     1.912062300229    86.35775904   248.68645913
 H     61   6   4     1.912050817876    41.86867927    11.27764111
 O     27  25  14     3.396502803066   166.86939940    54.60447567
 H     64  27  25     1.912028475184    80.16092036   330.03692372
 H     64  27  25     1.912042753668   133.43672060    75.76975008
 O     65  64  27     3.278131745793   176.00730864   301.22042548
 H     67  65  64     1.912053099878   144.35752779   157.90995437
 H     67  65  64     1.912050389808   103.48371112     5.77369598
 O      8   7   2     3.277835752944   162.11066410     1.93307719
 H     70   8   7     1.912058898766    86.47770233     6.00251662
 H     70   8   7     1.912043284180    92.18945327   114.05822577
 O     42  40   6     5.163317699047    87.74503322    67.52423949
 H     73  42  40     1.912037061935    38.76548382    11.94702879
 H     73  42  40     1.912040360341   142.34515038   335.03123277
 O     25  14  13     5.096540996020    75.16828215   321.78904629
 H     76  25  14     1.912053603679     3.05383328   353.45765460
 H     76  25  14     1.912043418558   105.40400634   147.64384559
 O     60  58  33     3.335323722192   165.21067518   119.63126288
 H     79  60  58     1.912048796224    78.32949818    36.31070572
 H     79  60  58     1.912035845891   120.46527532   291.98082288
 O     58  33  31     5.156036383954    91.30733574    71.16548073
 H     82  58  33     1.912045102448   101.49012530    38.40807466
 H     82  58  33     1.912044704355     9.36443204   174.53168459
 O     20  19   5     3.196862704450   163.72935635   359.45088650
 H     85  20  19     1.912041107316   112.19837442   220.14325673
 H     85  20  19     1.912048574066   103.25553390   103.92725273
 O     37  29  28     5.128280484570   115.29775558   129.52142258
 H     88  37  29     1.912036466053   101.61578579   192.57580326
 H     88  37  29     1.912057105724     7.92336550    46.48926560
 O     56  55  10     3.190601497718   167.35184171   122.50640005
 H     91  56  55     1.912047570009    86.47713157   136.49369672
 H     91  56  55     1.912036551126   145.84493924   254.21116880
 O     43  21  19     5.272052785542    74.46320331   121.27978818
 H     94  43  21     1.912050893423    16.54446326   227.19162822
 H     94  43  21     1.912028797733    93.49407283    74.27613805
 O     10   1   2     5.179743633186   153.84064931   108.74971293
 H     97  10   1     1.912049755643   109.94095971    66.47800761
 H     97  10   1     1.912048291768     6.57102794   351.19687317
 O     16   7   2     5.191102239925   116.28291091   197.69179488
 H    100  16   7     1.912056017908     1.99878705   110.60168578
 H    100  16   7     1.912034792428   107.05913495   233.88883652
 O     55  10   1     5.105975466291    82.44116808   117.15682613
 H    103  55  10     1.912052384751    10.06363354    83.82272406
 H    103  55  10     1.912040865173    98.09863852   260.85525847
 O     93  91  56     3.188994161875   169.18751561   235.52280629
 H    106  93  91     1.912052651266   103.41399288    91.11346593
 H    106  93  91     1.912044720043   145.52801166   295.17087043
 O     30  28  15     5.799807770315   114.04510240   312.99636879
 H    109  30  28     1.912055510558   104.12417677    38.93601348
 H    109  30  28     1.912035974387    92.55403111   289.50137666
 O     54  52  22     3.517959526936   158.94093095    81.16400073
 H    112  54  52     1.912030121920    97.66756063    11.33495624
 H    112  54  52     1.912049104949   122.67908267   253.96355022
 O     51  49  41     3.158438945337   172.72237789   326.98771328
 H    115  51  49     1.912037778282   111.42464860    92.10433331
 H    115  51  49     1.912037219660   120.12135400   220.02021476
 O    114 112  54     3.256210315648   172.66098527   144.56751607
 H    118 114 112     1.912052910777   121.19556615   213.48352664
 H    118 114 112     1.912042641608   126.75374602    58.43161353
 O     67  65  64     5.136629602702    77.57746473   259.64770688
 H    121  67  65     1.912040145745   106.06579925    82.97105561
 H    121  67  65     1.912045777050     2.14240320   249.47502659
 O     72  70   8     3.323217405047   170.09681957   358.05158438
 H    124  72  70     1.912048926121   113.30888042   290.47478659
 H    124  72  70     1.912054019327   122.06225766    62.54807611
 O     24  22   6     5.310373926757   110.20805499   223.24216047
 H    127  24  22     1.912043212554    75.23394687    27.08265558
 H    127  24  22     1.912044546724    61.16103107   147.93704677
 O    111 109  30     3.295554690711   173.90926281    39.70976640
 H    130 111 109     1.912029285852    96.47766008    65.47847121
 H    130 111 109     1.912026333136   130.84333528   186.31273682
 O     50  49  41     3.350202903982   171.67028822   359.84638010
 H    133  50  49     1.912029888367    80.86463984     1.51436143
 H    133  50  49     1.912045379797   107.63591325   255.25870392
 O     47  46  26     3.388056316247   161.64142635   264.82217502
 H    136  47  46     1.912028927817    83.80346302    34.77483862
 H    136  47  46     1.912060723277   111.59469173   287.67817425
 O     83  82  58     3.295743451663   170.24094652   196.03323169
 H    139  83  82     1.912062357846   122.27734519   123.13744151
 H    139  83  82     1.912039078930    90.47988672    11.19301953
 O     33  31   9     3.279934922833   169.58062212   353.43713625
 H    142  33  31     1.912046207734    99.41049324    13.01888833
 H    142  33  31     1.912045008691   132.67860299   138.63078624
 O    110 109  30     3.165325085569   176.67081839   208.34223550
 H    145 110 109     1.912039715714   129.06780421   189.04642022
 H    145 110 109     1.912036985267   122.75384115    11.28660676
 O     92  91  56     3.117085527650   171.60670607    57.71011061
 H    148  92  91     1.912059906739   108.53421700   222.69320772
 H    148  92  91     1.912052215728   117.48067971    99.69043694

---------------------
BASIS SET INFORMATION
---------------------
There are 2 groups of distinct atoms

 Group   1 Type O   : 11s6p2d1f contracted to 5s3p2d1f pattern {62111/411/11/1}
 Group   2 Type H   : 5s1p contracted to 3s1p pattern {311/1}

Atom   0O    basis set group =>   1
Atom   1H    basis set group =>   2
Atom   2H    basis set group =>   2
Atom   3O    basis set group =>   1
Atom   4H    basis set group =>   2
Atom   5H    basis set group =>   2
Atom   6O    basis set group =>   1
Atom   7H    basis set group =>   2
Atom   8H    basis set group =>   2
Atom   9O    basis set group =>   1
Atom  10H    basis set group =>   2
Atom  11H    basis set group =>   2
Atom  12O    basis set group =>   1
Atom  13H    basis set group =>   2
Atom  14H    basis set group =>   2
Atom  15O    basis set group =>   1
Atom  16H    basis set group =>   2
Atom  17H    basis set group =>   2
Atom  18O    basis set group =>   1
Atom  19H    basis set group =>   2
Atom  20H    basis set group =>   2
Atom  21O    basis set group =>   1
Atom  22H    basis set group =>   2
Atom  23H    basis set group =>   2
Atom  24O    basis set group =>   1
Atom  25H    basis set group =>   2
Atom  26H    basis set group =>   2
Atom  27O    basis set group =>   1
Atom  28H    basis set group =>   2
Atom  29H    basis set group =>   2
Atom  30O    basis set group =>   1
Atom  31H    basis set group =>   2
Atom  32H    basis set group =>   2
Atom  33O    basis set group =>   1
Atom  34H    basis set group =>   2
Atom  35H    basis set group =>   2
Atom  36O    basis set group =>   1
Atom  37H    basis set group =>   2
Atom  38H    basis set group =>   2
Atom  39O    basis set group =>   1
Atom  40H    basis set group =>   2
Atom  41H    basis set group =>   2
Atom  42O    basis set group =>   1
Atom  43H    basis set group =>   2
Atom  44H    basis set group =>   2
Atom  45O    basis set group =>   1
Atom  46H    basis set group =>   2
Atom  47H    basis set group =>   2
Atom  48O    basis set group =>   1
Atom  49H    basis set group =>   2
Atom  50H    basis set group =>   2
Atom  51O    basis set group =>   1
Atom  52H    basis set group =>   2
Atom  53H    basis set group =>   2
Atom  54O    basis set group =>   1
Atom  55H    basis set group =>   2
Atom  56H    basis set group =>   2
Atom  57O    basis set group =>   1
Atom  58H    basis set group =>   2
Atom  59H    basis set group =>   2
Atom  60O    basis set group =>   1
Atom  61H    basis set group =>   2
Atom  62H    basis set group =>   2
Atom  63O    basis set group =>   1
Atom  64H    basis set group =>   2
Atom  65H    basis set group =>   2
Atom  66O    basis set group =>   1
Atom  67H    basis set group =>   2
Atom  68H    basis set group =>   2
Atom  69O    basis set group =>   1
Atom  70H    basis set group =>   2
Atom  71H    basis set group =>   2
Atom  72O    basis set group =>   1
Atom  73H    basis set group =>   2
Atom  74H    basis set group =>   2
Atom  75O    basis set group =>   1
Atom  76H    basis set group =>   2
Atom  77H    basis set group =>   2
Atom  78O    basis set group =>   1
Atom  79H    basis set group =>   2
Atom  80H    basis set group =>   2
Atom  81O    basis set group =>   1
Atom  82H    basis set group =>   2
Atom  83H    basis set group =>   2
Atom  84O    basis set group =>   1
Atom  85H    basis set group =>   2
Atom  86H    basis set group =>   2
Atom  87O    basis set group =>   1
Atom  88H    basis set group =>   2
Atom  89H    basis set group =>   2
Atom  90O    basis set group =>   1
Atom  91H    basis set group =>   2
Atom  92H    basis set group =>   2
Atom  93O    basis set group =>   1
Atom  94H    basis set group =>   2
Atom  95H    basis set group =>   2
Atom  96O    basis set group =>   1
Atom  97H    basis set group =>   2
Atom  98H    basis set group =>   2
Atom  99O    basis set group =>   1
Atom 100H    basis set group =>   2
Atom 101H    basis set group =>   2
Atom 102O    basis set group =>   1
Atom 103H    basis set group =>   2
Atom 104H    basis set group =>   2
Atom 105O    basis set group =>   1
Atom 106H    basis set group =>   2
Atom 107H    basis set group =>   2
Atom 108O    basis set group =>   1
Atom 109H    basis set group =>   2
Atom 110H    basis set group =>   2
Atom 111O    basis set group =>   1
Atom 112H    basis set group =>   2
Atom 113H    basis set group =>   2
Atom 114O    basis set group =>   1
Atom 115H    basis set group =>   2
Atom 116H    basis set group =>   2
Atom 117O    basis set group =>   1
Atom 118H    basis set group =>   2
Atom 119H    basis set group =>   2
Atom 120O    basis set group =>   1
Atom 121H    basis set group =>   2
Atom 122H    basis set group =>   2
Atom 123O    basis set group =>   1
Atom 124H    basis set group =>   2
Atom 125H    basis set group =>   2
Atom 126O    basis set group =>   1
Atom 127H    basis set group =>   2
Atom 128H    basis set group =>   2
Atom 129O    basis set group =>   1
Atom 130H    basis set group =>   2
Atom 131H    basis set group =>   2
Atom 132O    basis set group =>   1
Atom 133H    basis set group =>   2
Atom 134H    basis set group =>   2
Atom 135O    basis set group =>   1
Atom 136H    basis set group =>   2
Atom 137H    basis set group =>   2
Atom 138O    basis set group =>   1
Atom 139H    basis set group =>   2
Atom 140H    basis set group =>   2
Atom 141O    basis set group =>   1
Atom 142H    basis set group =>   2
Atom 143H    basis set group =>   2
Atom 144O    basis set group =>   1
Atom 145H    basis set group =>   2
Atom 146H    basis set group =>   2
Atom 147O    basis set group =>   1
Atom 148H    basis set group =>   2
Atom 149H    basis set group =>   2
---------------------------------
AUXILIARY/J BASIS SET INFORMATION
---------------------------------
There are 2 groups of distinct atoms

 Group   1 Type O   : 12s5p4d2f1g contracted to 6s4p3d1f1g pattern {711111/2111/211/2/1}
 Group   2 Type H   : 5s2p1d contracted to 3s1p1d pattern {311/2/1}

Atom   0O    basis set group =>   1
Atom   1H    basis set group =>   2
Atom   2H    basis set group =>   2
Atom   3O    basis set group =>   1
Atom   4H    basis set group =>   2
Atom   5H    basis set group =>   2
Atom   6O    basis set group =>   1
Atom   7H    basis set group =>   2
Atom   8H    basis set group =>   2
Atom   9O    basis set group =>   1
Atom  10H    basis set group =>   2
Atom  11H    basis set group =>   2
Atom  12O    basis set group =>   1
Atom  13H    basis set group =>   2
Atom  14H    basis set group =>   2
Atom  15O    basis set group =>   1
Atom  16H    basis set group =>   2
Atom  17H    basis set group =>   2
Atom  18O    basis set group =>   1
Atom  19H    basis set group =>   2
Atom  20H    basis set group =>   2
Atom  21O    basis set group =>   1
Atom  22H    basis set group =>   2
Atom  23H    basis set group =>   2
Atom  24O    basis set group =>   1
Atom  25H    basis set group =>   2
Atom  26H    basis set group =>   2
Atom  27O    basis set group =>   1
Atom  28H    basis set group =>   2
Atom  29H    basis set group =>   2
Atom  30O    basis set group =>   1
Atom  31H    basis set group =>   2
Atom  32H    basis set group =>   2
Atom  33O    basis set group =>   1
Atom  34H    basis set group =>   2
Atom  35H    basis set group =>   2
Atom  36O    basis set group =>   1
Atom  37H    basis set group =>   2
Atom  38H    basis set group =>   2
Atom  39O    basis set group =>   1
Atom  40H    basis set group =>   2
Atom  41H    basis set group =>   2
Atom  42O    basis set group =>   1
Atom  43H    basis set group =>   2
Atom  44H    basis set group =>   2
Atom  45O    basis set group =>   1
Atom  46H    basis set group =>   2
Atom  47H    basis set group =>   2
Atom  48O    basis set group =>   1
Atom  49H    basis set group =>   2
Atom  50H    basis set group =>   2
Atom  51O    basis set group =>   1
Atom  52H    basis set group =>   2
Atom  53H    basis set group =>   2
Atom  54O    basis set group =>   1
Atom  55H    basis set group =>   2
Atom  56H    basis set group =>   2
Atom  57O    basis set group =>   1
Atom  58H    basis set group =>   2
Atom  59H    basis set group =>   2
Atom  60O    basis set group =>   1
Atom  61H    basis set group =>   2
Atom  62H    basis set group =>   2
Atom  63O    basis set group =>   1
Atom  64H    basis set group =>   2
Atom  65H    basis set group =>   2
Atom  66O    basis set group =>   1
Atom  67H    basis set group =>   2
Atom  68H    basis set group =>   2
Atom  69O    basis set group =>   1
Atom  70H    basis set group =>   2
Atom  71H    basis set group =>   2
Atom  72O    basis set group =>   1
Atom  73H    basis set group =>   2
Atom  74H    basis set group =>   2
Atom  75O    basis set group =>   1
Atom  76H    basis set group =>   2
Atom  77H    basis set group =>   2
Atom  78O    basis set group =>   1
Atom  79H    basis set group =>   2
Atom  80H    basis set group =>   2
Atom  81O    basis set group =>   1
Atom  82H    basis set group =>   2
Atom  83H    basis set group =>   2
Atom  84O    basis set group =>   1
Atom  85H    basis set group =>   2
Atom  86H    basis set group =>   2
Atom  87O    basis set group =>   1
Atom  88H    basis set group =>   2
Atom  89H    basis set group =>   2
Atom  90O    basis set group =>   1
Atom  91H    basis set group =>   2
Atom  92H    basis set group =>   2
Atom  93O    basis set group =>   1
Atom  94H    basis set group =>   2
Atom  95H    basis set group =>   2
Atom  96O    basis set group =>   1
Atom  97H    basis set group =>   2
Atom  98H    basis set group =>   2
Atom  99O    basis set group =>   1
Atom 100H    basis set group =>   2
Atom 101H    basis set group =>   2
Atom 102O    basis set group =>   1
Atom 103H    basis set group =>   2
Atom 104H    basis set group =>   2
Atom 105O    basis set group =>   1
Atom 106H    basis set group =>   2
Atom 107H    basis set group =>   2
Atom 108O    basis set group =>   1
Atom 109H    basis set group =>   2
Atom 110H    basis set group =>   2
Atom 111O    basis set group =>   1
Atom 112H    basis set group =>   2
Atom 113H    basis set group =>   2
Atom 114O    basis set group =>   1
Atom 115H    basis set group =>   2
Atom 116H    basis set group =>   2
Atom 117O    basis set group =>   1
Atom 118H    basis set group =>   2
Atom 119H    basis set group =>   2
Atom 120O    basis set group =>   1
Atom 121H    basis set group =>   2
Atom 122H    basis set group =>   2
Atom 123O    basis set group =>   1
Atom 124H    basis set group =>   2
Atom 125H    basis set group =>   2
Atom 126O    basis set group =>   1
Atom 127H    basis set group =>   2
Atom 128H    basis set group =>   2
Atom 129O    basis set group =>   1
Atom 130H    basis set group =>   2
Atom 131H    basis set group =>   2
Atom 132O    basis set group =>   1
Atom 133H    basis set group =>   2
Atom 134H    basis set group =>   2
Atom 135O    basis set group =>   1
Atom 136H    basis set group =>   2
Atom 137H    basis set group =>   2
Atom 138O    basis set group =>   1
Atom 139H    basis set group =>   2
Atom 140H    basis set group =>   2
Atom 141O    basis set group =>   1
Atom 142H    basis set group =>   2
Atom 143H    basis set group =>   2
Atom 144O    basis set group =>   1
Atom 145H    basis set group =>   2
Atom 146H    basis set group =>   2
Atom 147O    basis set group =>   1
Atom 148H    basis set group =>   2
Atom 149H    basis set group =>   2


           ************************************************************
           *        Program running with 16 parallel MPI-processes    *
           *              working on a common directory               *
           ************************************************************
------------------------------------------------------------------------------
                           ORCA GTO INTEGRAL CALCULATION
                           -- RI-GTO INTEGRALS CHOSEN --
------------------------------------------------------------------------------

                         BASIS SET STATISTICS AND STARTUP INFO

Gaussian basis set:
 # of primitive gaussian shells          ... 1600
 # of primitive gaussian functions       ... 3100
 # of contracted shells                  ...  950
 # of contracted basis functions         ... 2150
 Highest angular momentum                ...    3
 Maximum contraction depth               ...    6
Auxiliary gaussian basis set:
 # of primitive gaussian shells          ... 2000
 # of primitive gaussian functions       ... 5100
 # of contracted shells                  ... 1250
 # of contracted aux-basis functions     ... 3550
 Highest angular momentum                ...    4
 Maximum contraction depth               ...    7
Ratio of auxiliary to basis functions    ...  1.65
Integral package used                  ... LIBINT
 One Electron integrals                  ... done
 Ordering auxiliary basis shells         ... done
 Integral threshhold             Thresh  ...  1.000e-10
 Primitive cut-off               TCut    ...  1.000e-11
 Pre-screening matrix                    ... done
 Shell pair data                         ... 
 Ordering of the shell pairs             ... done (   0.044 sec) 179377 of 451725 pairs
 Determination of significant pairs      ... done (   0.001 sec)
 Creation of shell pair data             ... done (   0.017 sec)
 Storage of shell pair data              ... done (   0.044 sec)
 Shell pair data done in (   0.107 sec)
 Computing two index integrals           ... done
 Cholesky decomposition of the V-matrix  ... done


Timings:
 Total evaluation time                   ...   5.883 sec (  0.098 min)
 One electron matrix time                ...   2.618 sec (  0.044 min) = 44.5%
 Schwartz matrix evaluation time         ...   2.180 sec (  0.036 min) = 37.1%
 Two index repulsion integral time       ...   0.356 sec (  0.006 min) =  6.0%
 Cholesky decomposition of V             ...   0.594 sec (  0.010 min) = 10.1%
 Three index repulsion integral time     ...   0.000 sec (  0.000 min) =  0.0%

ENUC WAS=  0.000000000


           ************************************************************
           *        Program running with 16 parallel MPI-processes    *
           *              working on a common directory               *
           ************************************************************
------------------------------------------------------------------------------
                            ORCA POINT-CHARGE CORRECTION
------------------------------------------------------------------------------

BaseName                           ... water_sp_orca
Point charge file                  ... water_sp_orca.pc

Reading the GBW file               ... done
Reading the one-electron matrix    ... done
Reading the point charges          ... done
Number of point charges            ... 1953
Reading the nuclear-repulsion      ... done
Charge-Nuclei interaction          ... done
The nuclear repulsion file was updated
Doing the point charge correction  ... done
Storing the one-electron matrix    ... done

ENUC IS = 11332.555785104


           ************************************************************
           *        Program running with 16 parallel MPI-processes    *
           *              working on a common directory               *
           ************************************************************
-------------------------------------------------------------------------------
                                 ORCA SCF
-------------------------------------------------------------------------------

------------
SCF SETTINGS
------------
Hamiltonian:
 Density Functional     Method          .... DFT(GTOs)
 Exchange Functional    Exchange        .... PBE
   PBE kappa parameter   XKappa         ....  0.804000
   PBE mue parameter    XMuePBE         ....  0.219520
 Correlation Functional Correlation     .... PBE
   PBE beta parameter  CBetaPBE         ....  0.066725
 LDA part of GGA corr.  LDAOpt          .... PW91-LDA
 Gradients option       PostSCFGGA      .... off
 Hybrid DFT is turned on
   Fraction HF Exchange ScalHFX         ....  0.250000
   Scaling of DF-GGA-X  ScalDFX         ....  0.750000
   Scaling of DF-GGA-C  ScalDFC         ....  1.000000
   Scaling of DF-LDA-C  ScalLDAC        ....  1.000000
   Perturbative correction              ....  0.000000
   Density functional embedding theory  .... OFF
   NL short-range parameter             ....  6.900000
 RI-approximation to the Coulomb term is turned on
   Number of auxiliary basis functions  .... 3550
   RIJ-COSX (HFX calculated with COS-X)).... on


General Settings:
 Integral files         IntName         .... water_sp_orca
 Hartree-Fock type      HFTyp           .... RHF
 Total Charge           Charge          ....    0
 Multiplicity           Mult            ....    1
 Number of Electrons    NEL             ....  500
 Basis Dimension        Dim             .... 2150
 Nuclear Repulsion      ENuc            ....  11332.5557851042 Eh

Convergence Acceleration:
 DIIS                   CNVDIIS         .... on
   Start iteration      DIISMaxIt       ....    12
   Startup error        DIISStart       ....  0.200000
   # of expansion vecs  DIISMaxEq       ....     5
   Bias factor          DIISBfac        ....   1.050
   Max. coefficient     DIISMaxC        ....  10.000
 Newton-Raphson         CNVNR           .... off
 SOSCF                  CNVSOSCF        .... on
   Start iteration      SOSCFMaxIt      ....   150
   Startup grad/error   SOSCFStart      ....  0.003300
 Level Shifting         CNVShift        .... on
   Level shift para.    LevelShift      ....    0.2500
   Turn off err/grad.   ShiftErr        ....    0.0010
 Zerner damping         CNVZerner       .... off
 Static damping         CNVDamp         .... on
   Fraction old density DampFac         ....    0.7000
   Max. Damping (<1)    DampMax         ....    0.9800
   Min. Damping (>=0)   DampMin         ....    0.0000
   Turn off err/grad.   DampErr         ....    0.1000
 Fernandez-Rico         CNVRico         .... off

SCF Procedure:
 Maximum # iterations   MaxIter         ....   250
 SCF integral mode      SCFMode         .... Direct
   Integral package                     .... LIBINT
 Reset frequency        DirectResetFreq ....    20
 Integral Threshold     Thresh          ....  1.000e-10 Eh
 Primitive CutOff       TCut            ....  1.000e-11 Eh

Convergence Tolerance:
 Convergence Check Mode ConvCheckMode   .... Total+1el-Energy
 Convergence forced     ConvForced      .... 0
 Energy Change          TolE            ....  1.000e-06 Eh
 1-El. energy change                    ....  1.000e-03 Eh
 Orbital Gradient       TolG            ....  5.000e-05
 Orbital Rotation angle TolX            ....  5.000e-05
 DIIS Error             TolErr          ....  1.000e-06


Diagonalization of the overlap matrix:
Smallest eigenvalue                        ... 1.423e-03
Time for diagonalization                   ...    0.742 sec
Threshold for overlap eigenvalues          ... 1.000e-08
Number of eigenvalues below threshold      ... 0
Time for construction of square roots      ...    0.604 sec
Total time needed                          ...    1.368 sec

-------------------
DFT GRID GENERATION
-------------------

General Integration Accuracy     IntAcc      ...  4.340
Radial Grid Type                 RadialGrid  ... Gauss-Chebyshev
Angular Grid (max. acc.)         AngularGrid ... Lebedev-110
Angular grid pruning method      GridPruning ... 3 (G Style)
Weight generation scheme         WeightScheme... Becke
Basis function cutoff            BFCut       ...    1.0000e-10
Integration weight cutoff        WCut        ...    1.0000e-14
Grids for H and He will be reduced by one unit

# of grid points (after initial pruning)     ... 165200 (   0.0 sec)
# of grid points (after weights+screening)   ... 142905 (   0.8 sec)
nearest neighbour list constructed           ...    0.0 sec
Grid point re-assignment to atoms done       ...    0.0 sec
Grid point division into batches done        ...    0.1 sec
Reduced shell lists constructed in    0.5 sec

Total number of grid points                  ...   142905
Total number of batches                      ...     2306
Average number of points per batch           ...       61
Average number of grid points per atom       ...      953
Average number of shells per batch           ...   278.28 (29.29%)
Average number of basis functions per batch  ...   496.24 (23.08%)
Average number of large shells per batch     ...   136.66 (49.11%)
Average number of large basis fcns per batch ...   238.40 (48.04%)
Maximum spatial batch extension              ...   3.49,  3.79,  3.70 au
Average spatial batch extension              ...   0.11,  0.11,  0.11 au

Time for grid setup =    1.333 sec

------------------------------
INITIAL GUESS: MODEL POTENTIAL
------------------------------
Loading Hartree-Fock densities                     ... done
Calculating cut-offs                               ... done
Setting up the integral package                    ... done
Initializing the effective Hamiltonian             ... done
Starting the Coulomb interaction                   ... done (   1.8 sec)
Reading the grid                                   ... done
Mapping shells                                     ... done
Starting the XC term evaluation                    ... done (   0.4 sec)
  promolecular density results
     # of electrons  =    499.993530541
     EX              =   -436.514549721
     EC              =    -16.339953277
     EX+EC           =   -452.854502998
Transforming the Hamiltonian                       ... done (   0.4 sec)
Diagonalizing the Hamiltonian                      ... done (   0.6 sec)
Back transforming the eigenvectors                 ... done (   0.2 sec)
Now organizing SCF variables                       ... done
                      ------------------
                      INITIAL GUESS DONE (   5.0 sec)
                      ------------------
--------------------
COSX GRID GENERATION
--------------------

General Integration Accuracy     IntAcc      ...  3.340
Radial Grid Type                 RadialGrid  ... Gauss-Chebyshev
Angular Grid (max. acc.)         AngularGrid ... Lebedev-50
Angular grid pruning method      GridPruning ... 3 (G Style)
Weight generation scheme         WeightScheme... Becke
Basis function cutoff            BFCut       ...    1.0000e-10
Integration weight cutoff        WCut        ...    1.0000e-14
Grids for H and He will be reduced by one unit

# of grid points (after initial pruning)     ...  61000 (   0.0 sec)
# of grid points (after weights+screening)   ...  52546 (   0.3 sec)
nearest neighbour list constructed           ...    0.0 sec
Grid point re-assignment to atoms done       ...    0.0 sec
Grid point division into batches done        ...    0.0 sec
Reduced shell lists constructed in    0.2 sec

Total number of grid points                  ...    52546
Total number of batches                      ...      884
Average number of points per batch           ...       59
Average number of grid points per atom       ...      350
Average number of shells per batch           ...   298.61 (31.43%)
Average number of basis functions per batch  ...   544.09 (25.31%)
Average number of large shells per batch     ...   148.68 (49.79%)
Average number of large basis fcns per batch ...   262.89 (48.32%)
Maximum spatial batch extension              ...   4.06,  5.52,  4.41 au
Average spatial batch extension              ...   0.15,  0.16,  0.15 au

Overlap Fitting                  UseSFitting ... on
Constructing numerical overlap ... done (      0.2 sec)
Inverting numerical overlap    ... done (      0.2 sec)
Obtaining analytic overlap     ... done (      0.0 sec)
Final contraction and storage  ... done (      0.4 sec)


General Integration Accuracy     IntAcc      ...  3.670
Radial Grid Type                 RadialGrid  ... Gauss-Chebyshev
Angular Grid (max. acc.)         AngularGrid ... Lebedev-50
Angular grid pruning method      GridPruning ... 3 (G Style)
Weight generation scheme         WeightScheme... Becke
Basis function cutoff            BFCut       ...    1.0000e-10
Integration weight cutoff        WCut        ...    1.0000e-14
Grids for H and He will be reduced by one unit

# of grid points (after initial pruning)     ...  80100 (   0.0 sec)
# of grid points (after weights+screening)   ...  68850 (   0.4 sec)
nearest neighbour list constructed           ...    0.0 sec
Grid point re-assignment to atoms done       ...    0.0 sec
Grid point division into batches done        ...    0.0 sec
Reduced shell lists constructed in    0.2 sec

Total number of grid points                  ...    68850
Total number of batches                      ...     1166
Average number of points per batch           ...       59
Average number of grid points per atom       ...      459
Average number of shells per batch           ...   293.19 (30.86%)
Average number of basis functions per batch  ...   531.41 (24.72%)
Average number of large shells per batch     ...   144.88 (49.41%)
Average number of large basis fcns per batch ...   255.07 (48.00%)
Maximum spatial batch extension              ...   3.56,  5.52,  4.30 au
Average spatial batch extension              ...   0.13,  0.14,  0.14 au

Overlap Fitting                  UseSFitting ... on
Constructing numerical overlap ... done (      0.2 sec)
Inverting numerical overlap    ... done (      0.2 sec)
Obtaining analytic overlap     ... done (      0.0 sec)
Final contraction and storage  ... done (      0.4 sec)


General Integration Accuracy     IntAcc      ...  4.010
Radial Grid Type                 RadialGrid  ... Gauss-Chebyshev
Angular Grid (max. acc.)         AngularGrid ... Lebedev-110
Angular grid pruning method      GridPruning ... 3 (G Style)
Weight generation scheme         WeightScheme... Becke
Basis function cutoff            BFCut       ...    1.0000e-10
Integration weight cutoff        WCut        ...    1.0000e-14
Grids for H and He will be reduced by one unit

# of grid points (after initial pruning)     ... 137900 (   0.0 sec)
# of grid points (after weights+screening)   ... 119288 (   0.7 sec)
nearest neighbour list constructed           ...    0.0 sec
Grid point re-assignment to atoms done       ...    0.0 sec
Grid point division into batches done        ...    0.1 sec
Reduced shell lists constructed in    0.8 sec

Total number of grid points                  ...   119288
Total number of batches                      ...     1938
Average number of points per batch           ...       61
Average number of grid points per atom       ...      795
Average number of shells per batch           ...   283.42 (29.83%)
Average number of basis functions per batch  ...   508.01 (23.63%)
Average number of large shells per batch     ...   140.30 (49.50%)
Average number of large basis fcns per batch ...   245.99 (48.42%)
Maximum spatial batch extension              ...   3.50,  4.11,  3.53 au
Average spatial batch extension              ...   0.12,  0.12,  0.12 au

Overlap Fitting                  UseSFitting ... on
Constructing numerical overlap ... done (      0.3 sec)
Inverting numerical overlap    ... done (      0.2 sec)
Obtaining analytic overlap     ... done (      0.0 sec)
Final contraction and storage  ... done (      0.4 sec)

Time for X-Grid setup             =    5.466 sec
--------------
SCF ITERATIONS
--------------
ITER       Energy         Delta-E        Max-DP      RMS-DP      [F,P]     Damp
               ***  Starting incremental Fock matrix formation  ***
  0  -3815.9888183976   0.000000000000 0.05314513  0.00047109  0.3469980 0.7000
  1  -3817.7767262056  -1.787907808020 0.03225024  0.00029375  0.1443468 0.7000
                               ***Turning on DIIS***
  2  -3818.3918877029  -0.615161497271 0.03465855  0.00037659  0.0369471 0.0000
  3  -3819.4200724722  -1.028184769348 0.02249431  0.00019044  0.0877869 0.0000
  4  -3819.6365194913  -0.216447019080 0.00495182  0.00005198  0.0144784 0.0000
  5  -3819.6433510194  -0.006831528095 0.00198284  0.00001792  0.0057750 0.0000
                      *** Initiating the SOSCF procedure ***
                           *** Shutting down DIIS ***
                      *** Re-Reading the Fockian *** 
                      *** Removing any level shift *** 
[...]
      px      :     0.031225
      py      :     0.074402
149 H s       :     0.653820  s :     0.653820
      pz      :     0.037378  p :     0.172714
      px      :     0.081142
      py      :     0.054194


                      *****************************
                      * MAYER POPULATION ANALYSIS *
                      *****************************

  NA   - Mulliken gross atomic population
  ZA   - Total nuclear charge
  QA   - Mulliken gross atomic charge
  VA   - Mayer's total valence
  BVA  - Mayer's bonded valence
  FA   - Mayer's free valence

  ATOM       NA         ZA         QA         VA         BVA        FA
  0 O      8.6426     8.0000    -0.6426     1.8503     1.8503     0.0000
  1 H      0.6763     1.0000     0.3237     0.9348     0.9348    -0.0000
  2 H      0.6933     1.0000     0.3067     0.9478     0.9478    -0.0000
  3 O      8.7700     8.0000    -0.7700     1.7475     1.7475    -0.0000
  4 H      0.6606     1.0000     0.3394     0.9483     0.9483    -0.0000
  5 H      0.6016     1.0000     0.3984     0.8733     0.8733    -0.0000
  6 O      8.7687     8.0000    -0.7687     1.7377     1.7377    -0.0000
  7 H      0.6257     1.0000     0.3743     0.9230     0.9230    -0.0000
  8 H      0.6314     1.0000     0.3686     0.9020     0.9020    -0.0000
  9 O      8.7331     8.0000    -0.7331     1.8150     1.8150    -0.0000
 10 H      0.5895     1.0000     0.4105     0.8466     0.8466     0.0000
 11 H      0.6312     1.0000     0.3688     0.9229     0.9229    -0.0000
 12 O      8.7736     8.0000    -0.7736     1.7561     1.7561    -0.0000
 13 H      0.6011     1.0000     0.3989     0.8649     0.8649    -0.0000
 14 H      0.6338     1.0000     0.3662     0.9331     0.9331    -0.0000
 15 O      8.7908     8.0000    -0.7908     1.7636     1.7636     0.0000
 16 H      0.6122     1.0000     0.3878     0.9025     0.9025    -0.0000
 17 H      0.5969     1.0000     0.4031     0.9036     0.9036     0.0000
 18 O      8.7550     8.0000    -0.7550     1.7357     1.7357    -0.0000
 19 H      0.6494     1.0000     0.3506     0.9401     0.9401    -0.0000
 20 H      0.6341     1.0000     0.3659     0.9300     0.9300    -0.0000
 21 O      8.7245     8.0000    -0.7245     1.7885     1.7885     0.0000
 22 H      0.6635     1.0000     0.3365     0.9393     0.9393     0.0000
 23 H      0.6366     1.0000     0.3634     0.9164     0.9164    -0.0000
 24 O      8.7773     8.0000    -0.7773     1.7488     1.7488    -0.0000
 25 H      0.6236     1.0000     0.3764     0.9239     0.9239     0.0000
 26 H      0.6127     1.0000     0.3873     0.9001     0.9001     0.0000
 27 O      8.7434     8.0000    -0.7434     1.7958     1.7958     0.0000
 28 H      0.6227     1.0000     0.3773     0.9074     0.9074    -0.0000
 29 H      0.6190     1.0000     0.3810     0.8967     0.8967     0.0000
 30 O      8.7775     8.0000    -0.7775     1.7602     1.7602     0.0000
 31 H      0.6155     1.0000     0.3845     0.8987     0.8987    -0.0000
 32 H      0.6043     1.0000     0.3957     0.8902     0.8902     0.0000
 33 O      8.7292     8.0000    -0.7292     1.8591     1.8591    -0.0000
 34 H      0.5964     1.0000     0.4036     0.8759     0.8759     0.0000
 35 H      0.6217     1.0000     0.3783     0.8879     0.8879    -0.0000
 36 O      8.7766     8.0000    -0.7766     1.7398     1.7398    -0.0000
 37 H      0.6259     1.0000     0.3741     0.9155     0.9155    -0.0000
 38 H      0.6109     1.0000     0.3891     0.8933     0.8933    -0.0000
 39 O      8.7819     8.0000    -0.7819     1.7786     1.7786    -0.0000
 40 H      0.5809     1.0000     0.4191     0.8691     0.8691    -0.0000
 41 H      0.5944     1.0000     0.4056     0.8594     0.8594    -0.0000
 42 O      8.7393     8.0000    -0.7393     1.7869     1.7869     0.0000
 43 H      0.6023     1.0000     0.3977     0.8979     0.8979     0.0000
 44 H      0.6525     1.0000     0.3475     0.9246     0.9246     0.0000
 45 O      8.7551     8.0000    -0.7551     1.7170     1.7170     0.0000
 46 H      0.6636     1.0000     0.3364     0.9285     0.9285    -0.0000
 47 H      0.6227     1.0000     0.3773     0.9188     0.9188     0.0000
 48 O      8.7846     8.0000    -0.7846     1.7311     1.7311     0.0000
 49 H      0.6306     1.0000     0.3694     0.9293     0.9293    -0.0000
 50 H      0.6220     1.0000     0.3780     0.9119     0.9119    -0.0000
 51 O      8.7534     8.0000    -0.7534     1.7788     1.7788     0.0000
 52 H      0.6283     1.0000     0.3717     0.8926     0.8926     0.0000
 53 H      0.6267     1.0000     0.3733     0.9047     0.9047     0.0000
 54 O      8.7442     8.0000    -0.7442     1.7527     1.7527    -0.0000
 55 H      0.6605     1.0000     0.3395     0.9486     0.9486    -0.0000
 56 H      0.6392     1.0000     0.3608     0.9249     0.9249    -0.0000
 57 O      8.7384     8.0000    -0.7384     1.7731     1.7731    -0.0000
 58 H      0.6666     1.0000     0.3334     0.9331     0.9331    -0.0000
 59 H      0.6260     1.0000     0.3740     0.9160     0.9160    -0.0000
 60 O      8.7168     8.0000    -0.7168     1.7845     1.7845     0.0000
 61 H      0.6435     1.0000     0.3565     0.9211     0.9211    -0.0000
 62 H      0.6612     1.0000     0.3388     0.9294     0.9294     0.0000
 63 O      8.7233     8.0000    -0.7233     1.8133     1.8133     0.0000
 64 H      0.6222     1.0000     0.3778     0.8965     0.8965     0.0000
 65 H      0.6163     1.0000     0.3837     0.8691     0.8691    -0.0000
 66 O      8.7464     8.0000    -0.7464     1.7871     1.7871     0.0000
 67 H      0.6121     1.0000     0.3879     0.8720     0.8720    -0.0000
 68 H      0.6172     1.0000     0.3828     0.8997     0.8997    -0.0000
 69 O      8.7254     8.0000    -0.7254     1.8019     1.8019     0.0000
 70 H      0.6675     1.0000     0.3325     0.9314     0.9314    -0.0000
 71 H      0.6098     1.0000     0.3902     0.8934     0.8934     0.0000
 72 O      8.6963     8.0000    -0.6963     1.7791     1.7791    -0.0000
 73 H      0.6583     1.0000     0.3417     0.9314     0.9314     0.0000
 74 H      0.6743     1.0000     0.3257     0.9154     0.9154    -0.0000
 75 O      8.7640     8.0000    -0.7640     1.7136     1.7136    -0.0000
 76 H      0.6355     1.0000     0.3645     0.9303     0.9303     0.0000
 77 H      0.6439     1.0000     0.3561     0.8895     0.8895    -0.0000
 78 O      8.7354     8.0000    -0.7354     1.7856     1.7856     0.0000
 79 H      0.6318     1.0000     0.3682     0.8822     0.8822    -0.0000
 80 H      0.6200     1.0000     0.3800     0.9087     0.9087    -0.0000
 81 O      8.7944     8.0000    -0.7944     1.6913     1.6913    -0.0000
 82 H      0.6352     1.0000     0.3648     0.9118     0.9118    -0.0000
 83 H      0.6311     1.0000     0.3689     0.9247     0.9247    -0.0000
 84 O      8.7226     8.0000    -0.7226     1.8251     1.8251    -0.0000
 85 H      0.6166     1.0000     0.3834     0.8706     0.8706     0.0000
 86 H      0.6296     1.0000     0.3704     0.9032     0.9032     0.0000
 87 O      8.7352     8.0000    -0.7352     1.8031     1.8031    -0.0000
 88 H      0.6357     1.0000     0.3643     0.8915     0.8915    -0.0000
 89 H      0.6030     1.0000     0.3970     0.8737     0.8737    -0.0000
 90 O      8.7637     8.0000    -0.7637     1.7263     1.7263    -0.0000
 91 H      0.6359     1.0000     0.3641     0.9226     0.9226    -0.0000
 92 H      0.6296     1.0000     0.3704     0.9216     0.9216    -0.0000
 93 O      8.7435     8.0000    -0.7435     1.7690     1.7690    -0.0000
 94 H      0.6180     1.0000     0.3820     0.8994     0.8994    -0.0000
 95 H      0.6195     1.0000     0.3805     0.8733     0.8733    -0.0000
 96 O      8.7396     8.0000    -0.7396     1.7764     1.7764    -0.0000
 97 H      0.6277     1.0000     0.3723     0.8836     0.8836    -0.0000
 98 H      0.6317     1.0000     0.3683     0.9072     0.9072    -0.0000
 99 O      8.7586     8.0000    -0.7586     1.7580     1.7580     0.0000
100 H      0.6148     1.0000     0.3852     0.8914     0.8914     0.0000
101 H      0.6269     1.0000     0.3731     0.8833     0.8833     0.0000
102 O      8.7620     8.0000    -0.7620     1.7346     1.7346    -0.0000
103 H      0.6123     1.0000     0.3877     0.9134     0.9134     0.0000
104 H      0.6523     1.0000     0.3477     0.9015     0.9015    -0.0000
105 O      8.7363     8.0000    -0.7363     1.7853     1.7853     0.0000
106 H      0.6249     1.0000     0.3751     0.9009     0.9009    -0.0000
107 H      0.6266     1.0000     0.3734     0.8792     0.8792    -0.0000
108 O      8.7782     8.0000    -0.7782     1.7212     1.7212    -0.0000
109 H      0.6110     1.0000     0.3890     0.8950     0.8950    -0.0000
110 H      0.6354     1.0000     0.3646     0.9142     0.9142    -0.0000
111 O      8.7527     8.0000    -0.7527     1.7623     1.7623     0.0000
112 H      0.6220     1.0000     0.3780     0.8769     0.8769     0.0000
113 H      0.6227     1.0000     0.3773     0.8989     0.8989     0.0000
114 O      8.7360     8.0000    -0.7360     1.8247     1.8247    -0.0000
115 H      0.6215     1.0000     0.3785     0.8745     0.8745    -0.0000
116 H      0.5863     1.0000     0.4137     0.8539     0.8539     0.0000
117 O      8.7258     8.0000    -0.7258     1.7859     1.7859    -0.0000
118 H      0.6106     1.0000     0.3894     0.8817     0.8817    -0.0000
119 H      0.6394     1.0000     0.3606     0.8885     0.8885    -0.0000
120 O      8.7720     8.0000    -0.7720     1.6863     1.6863    -0.0000
121 H      0.6522     1.0000     0.3478     0.9220     0.9220    -0.0000
122 H      0.6491     1.0000     0.3509     0.9362     0.9362    -0.0000
123 O      8.7558     8.0000    -0.7558     1.7603     1.7603     0.0000
124 H      0.6154     1.0000     0.3846     0.8950     0.8950    -0.0000
125 H      0.6222     1.0000     0.3778     0.8788     0.8788     0.0000
126 O      8.7340     8.0000    -0.7340     1.7575     1.7575    -0.0000
127 H      0.6436     1.0000     0.3564     0.8914     0.8914     0.0000
128 H      0.6310     1.0000     0.3690     0.9094     0.9094    -0.0000
129 O      8.7580     8.0000    -0.7580     1.7792     1.7792    -0.0000
130 H      0.6154     1.0000     0.3846     0.8988     0.8988     0.0000
131 H      0.5988     1.0000     0.4012     0.8561     0.8561     0.0000
132 O      8.7463     8.0000    -0.7463     1.7520     1.7520    -0.0000
133 H      0.6345     1.0000     0.3655     0.9313     0.9313    -0.0000
134 H      0.6292     1.0000     0.3708     0.8762     0.8762     0.0000
135 O      8.7523     8.0000    -0.7523     1.7878     1.7878    -0.0000
136 H      0.6033     1.0000     0.3967     0.8565     0.8565    -0.0000
137 H      0.5799     1.0000     0.4201     0.8388     0.8388    -0.0000
138 O      8.7518     8.0000    -0.7518     1.7677     1.7677    -0.0000
139 H      0.6297     1.0000     0.3703     0.9098     0.9098     0.0000
140 H      0.6265     1.0000     0.3735     0.9033     0.9033    -0.0000
141 O      8.7359     8.0000    -0.7359     1.8184     1.8184    -0.0000
142 H      0.5929     1.0000     0.4071     0.8568     0.8568     0.0000
143 H      0.6033     1.0000     0.3967     0.8606     0.8606     0.0000
144 O      8.7191     8.0000    -0.7191     1.8019     1.8019     0.0000
145 H      0.6196     1.0000     0.3804     0.8819     0.8819    -0.0000
146 H      0.6200     1.0000     0.3800     0.8742     0.8742     0.0000
147 O      8.7377     8.0000    -0.7377     1.8004     1.8004    -0.0000
148 H      0.6075     1.0000     0.3925     0.8638     0.8638    -0.0000
149 H      0.6075     1.0000     0.3925     0.8847     0.8847     0.0000

  Mayer bond orders larger than 0.100000
B(  0-O ,  1-H ) :   0.8865 B(  0-O ,  2-H ) :   0.9010 B(  3-O ,  4-H ) :   0.8148 
B(  3-O ,  5-H ) :   0.7836 B(  4-H , 18-O ) :   0.1009 B(  6-O ,  7-H ) :   0.7550 
B(  6-O ,  8-H ) :   0.8136 B(  6-O , 17-H ) :   0.1237 B(  7-H , 69-O ) :   0.1595 
B(  9-O , 10-H ) :   0.8027 B(  9-O , 11-H ) :   0.8149 B(  9-O , 56-H ) :   0.1006 
B( 12-O , 13-H ) :   0.8031 B( 12-O , 14-H ) :   0.7545 B( 12-O , 43-H ) :   0.1197 
B( 14-H , 27-O ) :   0.1512 B( 15-O , 16-H ) :   0.7911 B( 15-O , 17-H ) :   0.7403 
B( 15-O , 47-H ) :   0.1571 B( 18-O , 19-H ) :   0.7888 B( 18-O , 20-H ) :   0.7743 
B( 19-H , 84-O ) :   0.1276 B( 20-H , 42-O ) :   0.1236 B( 21-O , 22-H ) :   0.8290 
B( 21-O , 23-H ) :   0.8401 B( 24-O , 25-H ) :   0.7730 B( 24-O , 26-H ) :   0.7909 
B( 24-O , 76-H ) :   0.1293 B( 25-H , 45-O ) :   0.1108 B( 27-O , 28-H ) :   0.8060 
B( 27-O , 29-H ) :   0.8050 B( 30-O , 31-H ) :   0.7877 B( 30-O , 32-H ) :   0.7852 
B( 33-O , 34-H ) :   0.8088 B( 33-O , 35-H ) :   0.8400 B( 33-O , 68-H ) :   0.1044 
B( 36-O , 37-H ) :   0.7934 B( 36-O , 38-H ) :   0.7805 B( 39-O , 40-H ) :   0.7322 
B( 39-O , 41-H ) :   0.8248 B( 40-H , 48-O ) :   0.1314 B( 42-O , 43-H ) :   0.7536 
B( 42-O , 44-H ) :   0.8566 B( 45-O , 46-H ) :   0.8428 B( 45-O , 47-H ) :   0.7527 
B( 48-O , 49-H ) :   0.7790 B( 48-O , 50-H ) :   0.7708 B( 49-H ,132-O ) :   0.1219 
B( 50-H ,114-O ) :   0.1085 B( 51-O , 52-H ) :   0.8298 B( 51-O , 53-H ) :   0.8199 
B( 54-O , 55-H ) :   0.8088 B( 54-O , 56-H ) :   0.8029 B( 54-O ,103-H ) :   0.1364 
B( 55-H , 90-O ) :   0.1128 B( 57-O , 58-H ) :   0.8517 B( 57-O , 59-H ) :   0.7906 
B( 57-O , 83-H ) :   0.1014 B( 59-H , 78-O ) :   0.1146 B( 60-O , 61-H ) :   0.8465 
B( 60-O , 62-H ) :   0.8574 B( 63-O , 64-H ) :   0.8071 B( 63-O , 65-H ) :   0.8489 
B( 66-O , 67-H ) :   0.8458 B( 66-O , 68-H ) :   0.7812 B( 69-O , 70-H ) :   0.8447 
B( 69-O , 71-H ) :   0.8012 B( 72-O , 73-H ) :   0.8444 B( 72-O , 74-H ) :   0.8959 
B( 75-O , 76-H ) :   0.7886 B( 75-O , 77-H ) :   0.8750 B( 78-O , 79-H ) :   0.8658 
B( 78-O , 80-H ) :   0.7969 B( 81-O , 82-H ) :   0.8031 B( 81-O , 83-H ) :   0.8085 
B( 82-H ,138-O ) :   0.1017 B( 84-O , 85-H ) :   0.8508 B( 84-O , 86-H ) :   0.8148 
B( 87-O , 88-H ) :   0.8617 B( 87-O , 89-H ) :   0.7881 B( 87-O ,133-H ) :   0.1433 
B( 90-O , 91-H ) :   0.7904 B( 90-O , 92-H ) :   0.8076 B( 91-H ,147-O ) :   0.1255 
B( 93-O , 94-H ) :   0.8078 B( 93-O , 95-H ) :   0.8557 B( 96-O , 97-H ) :   0.8583 
B( 96-O , 98-H ) :   0.7961 B( 99-O ,100-H ) :   0.8057 B( 99-O ,101-H ) :   0.8570 
B(102-O ,103-H ) :   0.7603 B(102-O ,104-H ) :   0.8753 B(105-O ,106-H ) :   0.8201 
B(105-O ,107-H ) :   0.8575 B(108-O ,109-H ) :   0.8074 B(108-O ,110-H ) :   0.8195 
B(111-O ,112-H ) :   0.8545 B(111-O ,113-H ) :   0.8158 B(114-O ,115-H ) :   0.8529 
B(114-O ,116-H ) :   0.8174 B(117-O ,118-H ) :   0.8255 B(117-O ,119-H ) :   0.8681 
B(120-O ,121-H ) :   0.8337 B(120-O ,122-H ) :   0.8286 B(123-O ,124-H ) :   0.8037 
B(123-O ,125-H ) :   0.8551 B(126-O ,127-H ) :   0.8719 B(126-O ,128-H ) :   0.8403 
B(129-O ,130-H ) :   0.7844 B(129-O ,131-H ) :   0.8365 B(132-O ,133-H ) :   0.7786 
B(132-O ,134-H ) :   0.8622 B(135-O ,136-H ) :   0.8438 B(135-O ,137-H ) :   0.8249 
B(138-O ,139-H ) :   0.8209 B(138-O ,140-H ) :   0.8186 B(141-O ,142-H ) :   0.8269 
B(141-O ,143-H ) :   0.8421 B(144-O ,145-H ) :   0.8472 B(144-O ,146-H ) :   0.8543 
B(147-O ,148-H ) :   0.8434 B(147-O ,149-H ) :   0.7895 

-------
TIMINGS
-------

Total SCF time: 0 days 0 hours 6 min 51 sec 

Total time                  ....     411.041 sec
Sum of individual times     ....     401.201 sec  ( 97.6%)

Fock matrix formation       ....     364.629 sec  ( 88.7%)
  Split-RI-J                ....      46.699 sec  ( 12.8% of F)
  Chain of spheres X        ....     301.535 sec  ( 82.7% of F)
  COS-X 1 center corr.      ....       0.000 sec  (  0.0% of F)
  XC integration            ....       7.749 sec  (  2.1% of F)
    Basis function eval.    ....       1.678 sec  ( 21.6% of XC)
    Density eval.           ....       2.230 sec  ( 28.8% of XC)
    XC-Functional eval.     ....       0.127 sec  (  1.6% of XC)
    XC-Potential eval.      ....       2.164 sec  ( 27.9% of XC)
Diagonalization             ....       5.764 sec  (  1.4%)
Density matrix formation    ....       1.098 sec  (  0.3%)
Population analysis         ....       1.927 sec  (  0.5%)
Initial guess               ....       3.699 sec  (  0.9%)
Orbital Transformation      ....       0.000 sec  (  0.0%)
Orbital Orthonormalization  ....       0.000 sec  (  0.0%)
DIIS solution               ....       7.558 sec  (  1.8%)
SOSCF solution              ....       3.887 sec  (  0.9%)
Grid generation             ....      12.639 sec  (  3.1%)


-------------------------------------------------------------------------------
                          DFT DISPERSION CORRECTION                            
                                                                               
                              DFTD3 V3.1  Rev 1                                
                          USING Becke-Johnson damping                          
-------------------------------------------------------------------------------
The PBE0 functional is recognized
Active option DFTDOPT                   ...         4   

molecular C6(AA) [au] = 111355.311473 


            DFT-D V3
 parameters
 s6 scaling factor         :     1.0000 
 a1 scaling factor         :     0.4145 
 s8 scaling factor         :     1.2177 
 a2 scaling factor         :     4.8593 
 ad hoc parameters k1-k3   :    16.0000     1.3333    -4.0000 

 Edisp/kcal,au: -79.580800212380  -0.126820064099 
 E6   /kcal   : -56.892940805 
 E8   /kcal   : -22.687859407 
 % E8         :  28.509212456 

-------------------------   ----------------
Dispersion correction           -0.126820064
-------------------------   ----------------


-------------------------   --------------------
FINAL SINGLE POINT ENERGY     -3819.765189588065
-------------------------   --------------------


                            ***************************************
                            *     ORCA property calculations      *
                            ***************************************

                                    ---------------------
                                    Active property flags
                                    ---------------------
   (+) Dipole Moment


------------------------------------------------------------------------------
                       ORCA ELECTRIC PROPERTIES CALCULATION
------------------------------------------------------------------------------

Dipole Moment Calculation                       ... on
Quadrupole Moment Calculation                   ... off
Polarizability Calculation                      ... off
GBWName                                         ... water_sp_orca.gbw
Electron density file                           ... water_sp_orca.scfp
The origin for moment calculation is the CENTER OF MASS  = ( 0.087464,  0.456987  0.006676)

-------------
DIPOLE MOMENT
-------------
                                X             Y             Z
Electronic contribution:     -0.88927       0.12792      -0.23220
Nuclear contribution   :    -12.71443      -6.76695      -1.74279
                        -----------------------------------------
Total Dipole Moment    :    -13.60370      -6.63903      -1.97499
                        -----------------------------------------
Magnitude (a.u.)       :     15.26558
Magnitude (Debye)      :     38.80202



--------------------
Rotational spectrum 
--------------------
 
Rotational constants in cm-1:     0.001165     0.001091     0.000965 
Rotational constants in MHz :    34.911918    32.699381    28.926458 

 Dipole components along the rotational axes: 
x,y,z [a.u.] :   -11.025298   -10.542013     0.588832 
x,y,z [Debye]:   -28.024080   -26.795667     1.496693 

 

Timings for individual modules:

Sum of individual times         ...      419.470 sec (=   6.991 min)
GTO integral calculation        ...        7.114 sec (=   0.119 min)   1.7 %
SCF iterations                  ...      412.356 sec (=   6.873 min)  98.3 %
                             ****ORCA TERMINATED NORMALLY****
TOTAL RUN TIME: 0 days 0 hours 7 minutes 5 seconds 997 msec
