16
energy: -17.823355364405 gnorm: 0.000230209205 xtb: 6.5.1 (579679a)
C     -6.20176    1.29921   -1.30989
C     -5.40184    1.37021   -2.36742
C     -5.06114   -0.44342    0.02975
H     -4.44757    0.87278   -2.39811
C     -5.93086    0.55307   -0.09058
H     -4.47670   -0.79586   -0.80332
H     -3.05954    1.41272    0.26453
C     -2.32072    2.12304   -0.06936
H     -5.66687    1.94509   -3.23837
H     -6.51793    0.84993    0.76997
H     -1.30155    1.92324    0.21971
C     -2.64795    3.17530   -0.78955
H     -7.13627    1.84701   -1.31393
H     -4.91089   -0.95264    0.96663
H     -3.66818    3.37019   -1.07676
H     -1.91392    3.88963   -1.12574
