6
energy: -13.191987037854 gnorm: 0.000114734998 xtb: 6.5.1 (579679a)
C     -7.73856    2.59913    0.36055
Cl    -8.23889   -0.12548   -0.93661
H     -8.80872    2.46785    0.23012
H     -7.23755    2.57370   -0.60268
H     -7.34184    1.82434    1.01010
F     -7.51035    3.83118    0.94778
