      -----------------------------------------------------------      
     |                   =====================                   |     
     |                           x T B                           |     
     |                   =====================                   |     
     |                         S. Grimme                         |     
     |          Mulliken Center for Theoretical Chemistry        |     
     |                    University of Bonn                     |     
      -----------------------------------------------------------      

   * xtb version 6.2.3 (830e466) compiled by 'ehlert@majestix' on 2020-03-16

   xtb is free software: you can redistribute it and/or modify it under
   the terms of the GNU Lesser General Public License as published by
   the Free Software Foundation, either version 3 of the License, or
   (at your option) any later version.
   
   xtb is distributed in the hope that it will be useful,
   but WITHOUT ANY WARRANTY; without even the implied warranty of
   MERCHANTABILITY or FITNESS FOR A PARTICULAR PURPOSE.  See the
   GNU Lesser General Public License for more details.
   
   Cite this work as:
   * S. Grimme, C. Bannwarth, P. Shushkov, J. Chem. Theory Comput., 2017,
     13, 1989-2009. DOI: 10.1021/acs.jctc.7b00118
   * C. Bannwarth, S. Ehlert and S. Grimme., J. Chem. Theory Comput., 2019,
     15, 1652-1671. DOI: 10.1021/acs.jctc.8b01176
   * P. Pracht, E. Caldeweyher, S. Ehlert, S. Grimme, ChemRxiv, 2019, preprint.
     DOI: 10.26434/chemrxiv.8326202.v1
   
   for DFT-D4:
   * E. Caldeweyher, C. Bannwarth and S. Grimme, J. Chem. Phys., 2017,
     147, 034112. DOI: 10.1063/1.4993215
   * E. Caldeweyher, S. Ehlert, A. Hansen, H. Neugebauer, S. Spicher,
     C. Bannwarth and S. Grimme, J. Chem. Phys., 2019, 150, 154122.
     DOI: 10.1063/1.5090222
   
   for sTDA-xTB:
   * S. Grimme and C. Bannwarth, J. Chem. Phys., 2016, 145, 054103.
     DOI: 10.1063/1.4959605
   
   in the mass-spec context:
   * V. Asgeirsson, C. Bauer and S. Grimme, Chem. Sci., 2017, 8, 4879.
     DOI: 10.1039/c7sc00601b
   
   for metadynamics refer to:
   * S. Grimme, J. Chem. Theory Comput., 2019, 155, 2847-2862
     DOI: 10.1021/acs.jctc.9b00143
   
   with help from (in alphabetical order)
   C. Bannwarth, F. Bohle, G. Brandenburg, E. Caldeweyher, M. Checinski,
   S. Dohm, S. Ehlert, S. Ehrlich, F. März, H. Neugebauer, J. Pisarek,
   P. Pracht, P. Shushkov, and S. Spicher.
   
 * started run on 2020/08/20 at 17:46:28.911     

           -------------------------------------------------
          |                Calculation Setup                |
           -------------------------------------------------

          program call               : /u/fd/ball4935/opt/bin/xtb 1_0_xtb.xyz --chrg -1 --grad --gbsa Water
          hostname                   : comp0810
          coordinate file            : 1_0_xtb.xyz
          omp threads                :                     1
          number of atoms            :                     6
          number of electrons        :                    22
          charge                     :                    -1
          spin                       :                   0.0
          first test random number   :      0.92133832597814


molecular fragmentation (1/2 indicates fragments):
122222
# atoms in fragment 1/2:     1     5
 fragment masses (1/2) :       19.00       50.49
CMA distance (Bohr)    :   8.754
constraining FC (au)   :  0.0500
########################################################################
[WARNING] Please study the warnings concerning your input carefully
-2- prog_main: XTBPATH is not set, using XTBHOME instead
-1- prog_main: XTBHOME is not set, using HOME instead
########################################################################
           ------------------------------------------------- 
          |                 G F N 2 - x T B                 |
          | Geometry, Frequencies, Noncovalent interactions |
          |            JCTC 2019 parametrisation            |
           ------------------------------------------------- 
             k(s)              :                1.8500
             k(p)              :                2.2300
             k(d)              :                2.2300
             k(f)              :                2.0000
             kEN (H0ij)        :               -2.0000
             D4 a1             :                0.5200
             D4 a2             :                5.0000
             D4 s6             :                1.0000
             D4 s8             :                2.7000
             D4 s9             :                5.0000
             alphaj            :                2.0000

  Z AO/shell   Hii/eV     exponent
  1     Wed Apr 25 08:07:45 CEST 2018   EN: 2.200 GM2: 0.406  GM3: 0.0800  RAES: 1.40
     1s    -10.707211    1.230000
  6     Wed Apr 25 08:07:45 CEST 2018   EN: 2.550 GM2: 0.538  GM3: 0.1500  RAES: 3.00
     2s    -13.970922    2.096432
     2p    -10.063292    1.800000
  9     Mon Apr 23 13:58:50 CEST 2018   EN: 3.980 GM2: 0.532  GM3: 0.1426  RAES: 2.40
     2s    -23.458179    2.416361
     2p    -15.746583    2.308399
 17     Mon Apr 23 14:09:22 CEST 2018   EN: 3.160 GM2: 0.249  GM3: 0.1495  RAES: 2.50
     3s    -29.278781    2.485265
     3p    -12.673758    2.199650
     3d     -0.240338    2.476089

 Solvent             : Water
 Using internal parameter file: .param_gbsa2_Water
 Gsolv ref. state (COSMO-RS): gsolv [1 M gas/solution]
 temperature (mdtemp)       :    298.150000000000     
 dielectric constant        :    80.2000000000000     
 rho                        :    1.00000000000000     
 mass                       :    18.0000000000000     
 surface tension            :    15.5689454083859     
 probe radius               :   0.975313790000000     
 Gshift (Eh)                :   1.857443126794793E-003
 c1                         :    1.55243817000000     
 soset                      :   0.130326360000000     
 HB correction              :  T
           ------------------------------------------------- 
          |        Self-Consistent Charge Iterations        |
           ------------------------------------------------- 

          ...................................................
          :                      SETUP                      :
          :.................................................:
          :  # basis functions                  21          :
          :  # atomic orbitals                  20          :
          :  # shells                           10          :
          :  # electrons                        22          :
          :  max. iterations                   250          :
          :  Hamiltonian                  GFN2-xTB          :
          :  restarted?                      false          :
          :  GBSA solvation                   true          :
          :  PC potential                    false          :
          :  electronic temp.          300.0000000     K    :
          :  accuracy                    1.0000000          :
          :  -> integral cutoff          0.2500000E+02      :
          :  -> integral neglect         0.1000000E-07      :
          :  -> SCF convergence          0.1000000E-05 Eh   :
          :  -> wf. convergence          0.1000000E-03 e    :
          :  Broyden damping             0.4000000          :
          ...................................................

 iter      E             dE          RMSdq      gap      omega  full diag
   1    -13.2556973 -0.132557E+02  0.578E+00    6.10       0.0  T
   2    -13.3201295 -0.644322E-01  0.320E+00    3.65       1.0  T
   3    -13.3229820 -0.285246E-02  0.176E+00    3.50       1.0  T
   4    -13.3232124 -0.230432E-03  0.200E-01    2.88       1.0  T
   5    -13.3232196 -0.717003E-05  0.131E-01    2.92       1.0  T
   6    -13.3232386 -0.190431E-04  0.102E-01    2.89       1.0  T
   7    -13.3232631 -0.245057E-04  0.240E-02    2.88       1.7  T
   8    -13.3232638 -0.653277E-06  0.156E-02    2.87       2.6  T
   9    -13.3232643 -0.509557E-06  0.461E-04    2.88      88.5  T
  10    -13.3232643 -0.112816E-09  0.343E-04    2.88     119.1  T

   *** convergence criteria satisfied after 10 iterations ***

         #    Occupation            Energy/Eh            Energy/eV
      -------------------------------------------------------------
         1        2.0000           -1.0515611             -28.6144
       ...           ...                  ...                  ...
         5        2.0000           -0.5046246             -13.7315
         6        2.0000           -0.4835038             -13.1568
         7        2.0000           -0.4201731             -11.4335
         8        2.0000           -0.4201716             -11.4335
         9        2.0000           -0.3352331              -9.1222
        10        2.0000           -0.3346632              -9.1066
        11        2.0000           -0.3346620              -9.1066 (HOMO)
        12                         -0.2289549              -6.2302 (LUMO)
        13                          0.0268310               0.7301
        14                          0.0268511               0.7307
        15                          0.0289429               0.7876
        16                          0.0289592               0.7880
       ...                                ...                  ...
        20                          0.2302486               6.2654
      -------------------------------------------------------------
                  HL-Gap            0.1057071 Eh            2.8764 eV
             Fermi-level           -0.2818085 Eh           -7.6684 eV

 SCC (total)                   0 d,  0 h,  0 min,  0.006 sec
 SCC setup                      ...        0 min,  0.000 sec (  5.127%)
 Dispersion                     ...        0 min,  0.000 sec (  0.550%)
 integral evaluation            ...        0 min,  0.001 sec ( 17.893%)
 zeroth order Hamiltonian       ...        0 min,  0.000 sec (  0.520%)
 iterations                     ...        0 min,  0.004 sec ( 55.207%)
 molecular gradient             ...        0 min,  0.001 sec ( 18.020%)
 printout                       ...        0 min,  0.000 sec (  1.896%)

         :::::::::::::::::::::::::::::::::::::::::::::::::::::
         ::                     SUMMARY                     ::
         :::::::::::::::::::::::::::::::::::::::::::::::::::::
         :: total energy             -13.263879091537 Eh    ::
         :: total w/o Gsasa/hb       -13.261119723128 Eh    ::
         :: gradient norm              0.065960131284 Eh/a0 ::
         :: HOMO-LUMO gap              2.876435789521 eV    ::
         ::.................................................::
         :: SCC energy               -13.320375150272 Eh    ::
         :: -> isotropic ES            0.280174623232 Eh    ::
         :: -> anisotropic ES         -0.000851045624 Eh    ::
         :: -> anisotropic XC          0.004622571891 Eh    ::
         :: -> dispersion             -0.001778683702 Eh    ::
         :: -> Gsolv                  -0.138387837372 Eh    ::
         ::    -> Gborn               -0.135628468963 Eh    ::
         ::    -> Gsasa                0.001031682404 Eh    ::
         ::    -> Ghb                 -0.005648493939 Eh    ::
         ::    -> Gshift               0.001857443127 Eh    ::
         :: repulsion energy           0.056497067825 Eh    ::
         :: add. restraining           0.000000000000 Eh    ::
         :::::::::::::::::::::::::::::::::::::::::::::::::::::

           -------------------------------------------------
          |                Property Printout                |
           -------------------------------------------------

    * Orbital Energies and Occupations

         #    Occupation            Energy/Eh            Energy/eV
      -------------------------------------------------------------
         1        2.0000           -1.0515611             -28.6144
         2        2.0000           -0.6045911             -16.4518
         3        2.0000           -0.5913216             -16.0907
         4        2.0000           -0.5046803             -13.7330
         5        2.0000           -0.5046246             -13.7315
         6        2.0000           -0.4835038             -13.1568
         7        2.0000           -0.4201731             -11.4335
         8        2.0000           -0.4201716             -11.4335
         9        2.0000           -0.3352331              -9.1222
        10        2.0000           -0.3346632              -9.1066
        11        2.0000           -0.3346620              -9.1066 (HOMO)
        12                         -0.2289549              -6.2302 (LUMO)
        13                          0.0268310               0.7301
        14                          0.0268511               0.7307
        15                          0.0289429               0.7876
        16                          0.0289592               0.7880
        17                          0.0681459               1.8543
        18                          0.1464928               3.9863
        19                          0.2300994               6.2613
        20                          0.2302486               6.2654
      -------------------------------------------------------------
                  HL-Gap            0.1057071 Eh            2.8764 eV
             Fermi-level           -0.2818085 Eh           -7.6684 eV

     #   Z        covCN         q      C6AA      α(0)
     1   9 F      0.000    -0.999    24.517     5.767
     2  17 Cl     0.850    -0.250   107.038    15.827
     3   6 C      3.627    -0.028    21.502     6.680
     4   1 H      0.926     0.092     1.858     2.132
     5   1 H      0.926     0.093     1.854     2.129
     6   1 H      0.926     0.092     1.856     2.130

 Mol. C6AA /au·bohr⁶  :        569.880426
 Mol. C8AA /au·bohr⁸  :      15828.636199
 Mol. α(0) /au        :         34.665621


Wiberg/Mayer (AO) data.
largest (>0.10) Wiberg bond orders for each atom
          total WBO             WBO to atom ...
     1  F   0.002
     2  Cl  0.948        C    3 0.937
     3  C   3.902        H    4 0.988    H    6 0.988    H    5 0.988    Cl   2 0.937
     4  H   0.992        C    3 0.988
     5  H   0.991        C    3 0.988
     6  H   0.991        C    3 0.988

molecular dipole:
                 x           y           z       tot (Debye)
 q only:        5.542       0.113      -0.041
   full:        5.391       0.110      -0.041      13.705
molecular quadrupole (traceless):
                xx          xy          yy          xz          yz          zz
 q only:      -46.750      -1.408      23.366       0.780       0.014      23.385
  q+dip:      -48.241      -1.453      24.111       0.823       0.015      24.130
   full:      -47.230      -1.425      23.605       0.786       0.014      23.625


           -------------------------------------------------
          | TOTAL ENERGY              -13.263879091537 Eh   |
          | GRADIENT NORM               0.065960131284 Eh/α |
          | HOMO-LUMO GAP               2.876435789521 eV   |
           -------------------------------------------------

------------------------------------------------------------------------
 * finished run on 2020/08/20 at 17:46:28.982     
------------------------------------------------------------------------
 total:
 * wall-time:     0 d,  0 h,  0 min,  0.071 sec
 *  cpu-time:     0 d,  0 h,  0 min,  0.018 sec
 * ratio c/w:     0.250 speedup
 SCF:
 * wall-time:     0 d,  0 h,  0 min,  0.007 sec
 *  cpu-time:     0 d,  0 h,  0 min,  0.007 sec
 * ratio c/w:     0.997 speedup

