      -----------------------------------------------------------      
     |                   =====================                   |     
     |                           x T B                           |     
     |                   =====================                   |     
     |                         S. Grimme                         |     
     |          Mulliken Center for Theoretical Chemistry        |     
     |                    University of Bonn                     |     
      -----------------------------------------------------------      

   * xtb version 6.2.3 (830e466) compiled by 'ehlert@majestix' on 2020-03-16

   xtb is free software: you can redistribute it and/or modify it under
   the terms of the GNU Lesser General Public License as published by
   the Free Software Foundation, either version 3 of the License, or
   (at your option) any later version.
   
   xtb is distributed in the hope that it will be useful,
   but WITHOUT ANY WARRANTY; without even the implied warranty of
   MERCHANTABILITY or FITNESS FOR A PARTICULAR PURPOSE.  See the
   GNU Lesser General Public License for more details.
   
   Cite this work as:
   * S. Grimme, C. Bannwarth, P. Shushkov, J. Chem. Theory Comput., 2017,
     13, 1989-2009. DOI: 10.1021/acs.jctc.7b00118
   * C. Bannwarth, S. Ehlert and S. Grimme., J. Chem. Theory Comput., 2019,
     15, 1652-1671. DOI: 10.1021/acs.jctc.8b01176
   * P. Pracht, E. Caldeweyher, S. Ehlert, S. Grimme, ChemRxiv, 2019, preprint.
     DOI: 10.26434/chemrxiv.8326202.v1
   
   for DFT-D4:
   * E. Caldeweyher, C. Bannwarth and S. Grimme, J. Chem. Phys., 2017,
     147, 034112. DOI: 10.1063/1.4993215
   * E. Caldeweyher, S. Ehlert, A. Hansen, H. Neugebauer, S. Spicher,
     C. Bannwarth and S. Grimme, J. Chem. Phys., 2019, 150, 154122.
     DOI: 10.1063/1.5090222
   
   for sTDA-xTB:
   * S. Grimme and C. Bannwarth, J. Chem. Phys., 2016, 145, 054103.
     DOI: 10.1063/1.4959605
   
   in the mass-spec context:
   * V. Asgeirsson, C. Bauer and S. Grimme, Chem. Sci., 2017, 8, 4879.
     DOI: 10.1039/c7sc00601b
   
   for metadynamics refer to:
   * S. Grimme, J. Chem. Theory Comput., 2019, 155, 2847-2862
     DOI: 10.1021/acs.jctc.9b00143
   
   with help from (in alphabetical order)
   C. Bannwarth, F. Bohle, G. Brandenburg, E. Caldeweyher, M. Checinski,
   S. Dohm, S. Ehlert, S. Ehrlich, F. März, H. Neugebauer, J. Pisarek,
   P. Pracht, P. Shushkov, and S. Spicher.
   
 * started run on 2020/08/20 at 17:46:29.850     

           -------------------------------------------------
          |                Calculation Setup                |
           -------------------------------------------------

          program call               : /u/fd/ball4935/opt/bin/xtb 1_2_xtb.xyz --chrg -1 --grad --gbsa Water
          hostname                   : comp0810
          coordinate file            : 1_2_xtb.xyz
          omp threads                :                     1
          number of atoms            :                     6
          number of electrons        :                    22
          charge                     :                    -1
          spin                       :                   0.0
          first test random number   :      0.24089241096557


molecular fragmentation (1/2 indicates fragments):
122222
# atoms in fragment 1/2:     1     5
 fragment masses (1/2) :       19.00       50.49
CMA distance (Bohr)    :   8.481
constraining FC (au)   :  0.0500
########################################################################
[WARNING] Please study the warnings concerning your input carefully
-2- prog_main: XTBPATH is not set, using XTBHOME instead
-1- prog_main: XTBHOME is not set, using HOME instead
########################################################################
           ------------------------------------------------- 
          |                 G F N 2 - x T B                 |
          | Geometry, Frequencies, Noncovalent interactions |
          |            JCTC 2019 parametrisation            |
           ------------------------------------------------- 
             k(s)              :                1.8500
             k(p)              :                2.2300
             k(d)              :                2.2300
             k(f)              :                2.0000
             kEN (H0ij)        :               -2.0000
             D4 a1             :                0.5200
             D4 a2             :                5.0000
             D4 s6             :                1.0000
             D4 s8             :                2.7000
             D4 s9             :                5.0000
             alphaj            :                2.0000

  Z AO/shell   Hii/eV     exponent
  1     Wed Apr 25 08:07:45 CEST 2018   EN: 2.200 GM2: 0.406  GM3: 0.0800  RAES: 1.40
     1s    -10.707211    1.230000
  6     Wed Apr 25 08:07:45 CEST 2018   EN: 2.550 GM2: 0.538  GM3: 0.1500  RAES: 3.00
     2s    -13.970922    2.096432
     2p    -10.063292    1.800000
  9     Mon Apr 23 13:58:50 CEST 2018   EN: 3.980 GM2: 0.532  GM3: 0.1426  RAES: 2.40
     2s    -23.458179    2.416361
     2p    -15.746583    2.308399
 17     Mon Apr 23 14:09:22 CEST 2018   EN: 3.160 GM2: 0.249  GM3: 0.1495  RAES: 2.50
     3s    -29.278781    2.485265
     3p    -12.673758    2.199650
     3d     -0.240338    2.476089

 Solvent             : Water
 Using internal parameter file: .param_gbsa2_Water
 Gsolv ref. state (COSMO-RS): gsolv [1 M gas/solution]
 temperature (mdtemp)       :    298.150000000000     
 dielectric constant        :    80.2000000000000     
 rho                        :    1.00000000000000     
 mass                       :    18.0000000000000     
 surface tension            :    15.5689454083859     
 probe radius               :   0.975313790000000     
 Gshift (Eh)                :   1.857443126794793E-003
 c1                         :    1.55243817000000     
 soset                      :   0.130326360000000     
 HB correction              :  T
           ------------------------------------------------- 
          |        Self-Consistent Charge Iterations        |
           ------------------------------------------------- 

          ...................................................
          :                      SETUP                      :
          :.................................................:
          :  # basis functions                  21          :
          :  # atomic orbitals                  20          :
          :  # shells                           10          :
          :  # electrons                        22          :
          :  max. iterations                   250          :
          :  Hamiltonian                  GFN2-xTB          :
          :  restarted?                      false          :
          :  GBSA solvation                   true          :
          :  PC potential                    false          :
          :  electronic temp.          300.0000000     K    :
          :  accuracy                    1.0000000          :
          :  -> integral cutoff          0.2500000E+02      :
          :  -> integral neglect         0.1000000E-07      :
          :  -> SCF convergence          0.1000000E-05 Eh   :
          :  -> wf. convergence          0.1000000E-03 e    :
          :  Broyden damping             0.4000000          :
          ...................................................

 iter      E             dE          RMSdq      gap      omega  full diag
   1    -13.2792043 -0.132792E+02  0.554E+00    8.23       0.0  T
   2    -13.3309050 -0.517007E-01  0.326E+00    6.35       1.0  T
   3    -13.3316229 -0.717939E-03  0.171E+00    5.84       1.0  T
   4    -13.3322612 -0.638258E-03  0.432E-01    5.28       1.0  T
   5    -13.3326936 -0.432408E-03  0.231E-01    5.23       1.0  T
   6    -13.3328750 -0.181429E-03  0.111E-01    5.13       1.0  T
   7    -13.3329061 -0.310726E-04  0.956E-03    5.10       4.3  T
   8    -13.3329060  0.126087E-06  0.978E-03    5.10       4.2  T
   9    -13.3329062 -0.230552E-06  0.184E-03    5.10      22.1  T
  10    -13.3329062 -0.327905E-08  0.132E-03    5.10      31.0  T
  11    -13.3329062 -0.400832E-08  0.324E-04    5.10     126.2  T
  12    -13.3329062 -0.715659E-10  0.141E-05    5.10    2889.8  T

   *** convergence criteria satisfied after 12 iterations ***

         #    Occupation            Energy/Eh            Energy/eV
      -------------------------------------------------------------
         1        2.0000           -1.0608947             -28.8684
       ...           ...                  ...                  ...
         5        2.0000           -0.5164099             -14.0522
         6        2.0000           -0.5074847             -13.8094
         7        2.0000           -0.4202274             -11.4350
         8        2.0000           -0.4198613             -11.4250
         9        2.0000           -0.3391189              -9.2279
        10        2.0000           -0.3387055              -9.2166
        11        2.0000           -0.3387016              -9.2165 (HOMO)
        12                         -0.1512805              -4.1166 (LUMO)
        13                          0.0135176               0.3678
        14                          0.0139707               0.3802
        15                          0.0198064               0.5390
        16                          0.0200416               0.5454
       ...                                ...                  ...
        20                          0.2053140               5.5869
      -------------------------------------------------------------
                  HL-Gap            0.1874210 Eh            5.1000 eV
             Fermi-level           -0.2449910 Eh           -6.6665 eV

 SCC (total)                   0 d,  0 h,  0 min,  0.006 sec
 SCC setup                      ...        0 min,  0.000 sec (  4.705%)
 Dispersion                     ...        0 min,  0.000 sec (  0.454%)
 integral evaluation            ...        0 min,  0.001 sec ( 17.641%)
 zeroth order Hamiltonian       ...        0 min,  0.000 sec (  0.469%)
 iterations                     ...        0 min,  0.004 sec ( 55.646%)
 molecular gradient             ...        0 min,  0.001 sec ( 18.301%)
 printout                       ...        0 min,  0.000 sec (  1.743%)

         :::::::::::::::::::::::::::::::::::::::::::::::::::::
         ::                     SUMMARY                     ::
         :::::::::::::::::::::::::::::::::::::::::::::::::::::
         :: total energy             -13.273434816919 Eh    ::
         :: total w/o Gsasa/hb       -13.271139339027 Eh    ::
         :: gradient norm              0.025448652908 Eh/a0 ::
         :: HOMO-LUMO gap              5.099985749380 eV    ::
         ::.................................................::
         :: SCC energy               -13.330004299541 Eh    ::
         :: -> isotropic ES            0.280615060958 Eh    ::
         :: -> anisotropic ES         -0.003643896373 Eh    ::
         :: -> anisotropic XC         -0.004036550310 Eh    ::
         :: -> dispersion             -0.001886575077 Eh    ::
         :: -> Gsolv                  -0.140208703770 Eh    ::
         ::    -> Gborn               -0.137913225878 Eh    ::
         ::    -> Gsasa                0.001044462774 Eh    ::
         ::    -> Ghb                 -0.005197383792 Eh    ::
         ::    -> Gshift               0.001857443127 Eh    ::
         :: repulsion energy           0.056570156559 Eh    ::
         :: add. restraining           0.000000000000 Eh    ::
         :::::::::::::::::::::::::::::::::::::::::::::::::::::

           -------------------------------------------------
          |                Property Printout                |
           -------------------------------------------------

    * Orbital Energies and Occupations

         #    Occupation            Energy/Eh            Energy/eV
      -------------------------------------------------------------
         1        2.0000           -1.0608947             -28.8684
         2        2.0000           -0.6161628             -16.7666
         3        2.0000           -0.5953353             -16.1999
         4        2.0000           -0.5174081             -14.0794
         5        2.0000           -0.5164099             -14.0522
         6        2.0000           -0.5074847             -13.8094
         7        2.0000           -0.4202274             -11.4350
         8        2.0000           -0.4198613             -11.4250
         9        2.0000           -0.3391189              -9.2279
        10        2.0000           -0.3387055              -9.2166
        11        2.0000           -0.3387016              -9.2165 (HOMO)
        12                         -0.1512805              -4.1166 (LUMO)
        13                          0.0135176               0.3678
        14                          0.0139707               0.3802
        15                          0.0198064               0.5390
        16                          0.0200416               0.5454
        17                          0.1511077               4.1118
        18                          0.1934946               5.2653
        19                          0.1962515               5.3403
        20                          0.2053140               5.5869
      -------------------------------------------------------------
                  HL-Gap            0.1874210 Eh            5.1000 eV
             Fermi-level           -0.2449910 Eh           -6.6665 eV

     #   Z        covCN         q      C6AA      α(0)
     1   9 F      0.000    -1.000    24.529     5.768
     2  17 Cl     0.892    -0.189   105.071    15.682
     3   6 C      3.664     0.007    20.728     6.530
     4   1 H      0.925     0.063     2.162     2.299
     5   1 H      0.924     0.059     2.207     2.323
     6   1 H      0.924     0.059     2.205     2.322

 Mol. C6AA /au·bohr⁶  :        578.194775
 Mol. C8AA /au·bohr⁸  :      15868.782300
 Mol. α(0) /au        :         34.925075


Wiberg/Mayer (AO) data.
largest (>0.10) Wiberg bond orders for each atom
          total WBO             WBO to atom ...
     1  F   0.001
     2  Cl  1.004        C    3 0.975
     3  C   3.935        H    5 0.987    H    6 0.987    H    4 0.986    Cl   2 0.975
     4  H   0.996        C    3 0.986
     5  H   0.996        C    3 0.987
     6  H   0.996        C    3 0.987

molecular dipole:
                 x           y           z       tot (Debye)
 q only:        5.759      -0.020      -0.266
   full:        5.214      -0.036      -0.264      13.269
molecular quadrupole (traceless):
                xx          xy          yy          xz          yz          zz
 q only:      -44.112      -0.375      22.090       2.230       0.019      22.022
  q+dip:      -48.057      -0.642      24.055       2.119       0.026      24.002
   full:      -46.974      -0.555      23.516       2.172       0.025      23.458


           -------------------------------------------------
          | TOTAL ENERGY              -13.273434816919 Eh   |
          | GRADIENT NORM               0.025448652908 Eh/α |
          | HOMO-LUMO GAP               5.099985749380 eV   |
           -------------------------------------------------

------------------------------------------------------------------------
 * finished run on 2020/08/20 at 17:46:29.908     
------------------------------------------------------------------------
 total:
 * wall-time:     0 d,  0 h,  0 min,  0.058 sec
 *  cpu-time:     0 d,  0 h,  0 min,  0.017 sec
 * ratio c/w:     0.287 speedup
 SCF:
 * wall-time:     0 d,  0 h,  0 min,  0.007 sec
 *  cpu-time:     0 d,  0 h,  0 min,  0.007 sec
 * ratio c/w:     0.998 speedup

