      -----------------------------------------------------------      
     |                   =====================                   |     
     |                           x T B                           |     
     |                   =====================                   |     
     |                         S. Grimme                         |     
     |          Mulliken Center for Theoretical Chemistry        |     
     |                    University of Bonn                     |     
      -----------------------------------------------------------      

   * xtb version 6.2.3 (830e466) compiled by 'ehlert@majestix' on 2020-03-16

   xtb is free software: you can redistribute it and/or modify it under
   the terms of the GNU Lesser General Public License as published by
   the Free Software Foundation, either version 3 of the License, or
   (at your option) any later version.
   
   xtb is distributed in the hope that it will be useful,
   but WITHOUT ANY WARRANTY; without even the implied warranty of
   MERCHANTABILITY or FITNESS FOR A PARTICULAR PURPOSE.  See the
   GNU Lesser General Public License for more details.
   
   Cite this work as:
   * S. Grimme, C. Bannwarth, P. Shushkov, J. Chem. Theory Comput., 2017,
     13, 1989-2009. DOI: 10.1021/acs.jctc.7b00118
   * C. Bannwarth, S. Ehlert and S. Grimme., J. Chem. Theory Comput., 2019,
     15, 1652-1671. DOI: 10.1021/acs.jctc.8b01176
   * P. Pracht, E. Caldeweyher, S. Ehlert, S. Grimme, ChemRxiv, 2019, preprint.
     DOI: 10.26434/chemrxiv.8326202.v1
   
   for DFT-D4:
   * E. Caldeweyher, C. Bannwarth and S. Grimme, J. Chem. Phys., 2017,
     147, 034112. DOI: 10.1063/1.4993215
   * E. Caldeweyher, S. Ehlert, A. Hansen, H. Neugebauer, S. Spicher,
     C. Bannwarth and S. Grimme, J. Chem. Phys., 2019, 150, 154122.
     DOI: 10.1063/1.5090222
   
   for sTDA-xTB:
   * S. Grimme and C. Bannwarth, J. Chem. Phys., 2016, 145, 054103.
     DOI: 10.1063/1.4959605
   
   in the mass-spec context:
   * V. Asgeirsson, C. Bauer and S. Grimme, Chem. Sci., 2017, 8, 4879.
     DOI: 10.1039/c7sc00601b
   
   for metadynamics refer to:
   * S. Grimme, J. Chem. Theory Comput., 2019, 155, 2847-2862
     DOI: 10.1021/acs.jctc.9b00143
   
   with help from (in alphabetical order)
   C. Bannwarth, F. Bohle, G. Brandenburg, E. Caldeweyher, M. Checinski,
   S. Dohm, S. Ehlert, S. Ehrlich, F. März, H. Neugebauer, J. Pisarek,
   P. Pracht, P. Shushkov, and S. Spicher.
   
 * started run on 2020/08/20 at 17:46:31.108     

           -------------------------------------------------
          |                Calculation Setup                |
           -------------------------------------------------

          program call               : /u/fd/ball4935/opt/bin/xtb 1_5_xtb.xyz --chrg -1 --grad --gbsa Water
          hostname                   : comp0810
          coordinate file            : 1_5_xtb.xyz
          omp threads                :                     1
          number of atoms            :                     6
          number of electrons        :                    22
          charge                     :                    -1
          spin                       :                   0.0
          first test random number   :      0.55563549521799


molecular fragmentation (1/2 indicates fragments):
122222
# atoms in fragment 1/2:     1     5
 fragment masses (1/2) :       19.00       50.49
CMA distance (Bohr)    :   8.368
constraining FC (au)   :  0.0500
########################################################################
[WARNING] Please study the warnings concerning your input carefully
-2- prog_main: XTBPATH is not set, using XTBHOME instead
-1- prog_main: XTBHOME is not set, using HOME instead
########################################################################
           ------------------------------------------------- 
          |                 G F N 2 - x T B                 |
          | Geometry, Frequencies, Noncovalent interactions |
          |            JCTC 2019 parametrisation            |
           ------------------------------------------------- 
             k(s)              :                1.8500
             k(p)              :                2.2300
             k(d)              :                2.2300
             k(f)              :                2.0000
             kEN (H0ij)        :               -2.0000
             D4 a1             :                0.5200
             D4 a2             :                5.0000
             D4 s6             :                1.0000
             D4 s8             :                2.7000
             D4 s9             :                5.0000
             alphaj            :                2.0000

  Z AO/shell   Hii/eV     exponent
  1     Wed Apr 25 08:07:45 CEST 2018   EN: 2.200 GM2: 0.406  GM3: 0.0800  RAES: 1.40
     1s    -10.707211    1.230000
  6     Wed Apr 25 08:07:45 CEST 2018   EN: 2.550 GM2: 0.538  GM3: 0.1500  RAES: 3.00
     2s    -13.970922    2.096432
     2p    -10.063292    1.800000
  9     Mon Apr 23 13:58:50 CEST 2018   EN: 3.980 GM2: 0.532  GM3: 0.1426  RAES: 2.40
     2s    -23.458179    2.416361
     2p    -15.746583    2.308399
 17     Mon Apr 23 14:09:22 CEST 2018   EN: 3.160 GM2: 0.249  GM3: 0.1495  RAES: 2.50
     3s    -29.278781    2.485265
     3p    -12.673758    2.199650
     3d     -0.240338    2.476089

 Solvent             : Water
 Using internal parameter file: .param_gbsa2_Water
 Gsolv ref. state (COSMO-RS): gsolv [1 M gas/solution]
 temperature (mdtemp)       :    298.150000000000     
 dielectric constant        :    80.2000000000000     
 rho                        :    1.00000000000000     
 mass                       :    18.0000000000000     
 surface tension            :    15.5689454083859     
 probe radius               :   0.975313790000000     
 Gshift (Eh)                :   1.857443126794793E-003
 c1                         :    1.55243817000000     
 soset                      :   0.130326360000000     
 HB correction              :  T
           ------------------------------------------------- 
          |        Self-Consistent Charge Iterations        |
           ------------------------------------------------- 

          ...................................................
          :                      SETUP                      :
          :.................................................:
          :  # basis functions                  21          :
          :  # atomic orbitals                  20          :
          :  # shells                           10          :
          :  # electrons                        22          :
          :  max. iterations                   250          :
          :  Hamiltonian                  GFN2-xTB          :
          :  restarted?                      false          :
          :  GBSA solvation                   true          :
          :  PC potential                    false          :
          :  electronic temp.          300.0000000     K    :
          :  accuracy                    1.0000000          :
          :  -> integral cutoff          0.2500000E+02      :
          :  -> integral neglect         0.1000000E-07      :
          :  -> SCF convergence          0.1000000E-05 Eh   :
          :  -> wf. convergence          0.1000000E-03 e    :
          :  Broyden damping             0.4000000          :
          ...................................................

 iter      E             dE          RMSdq      gap      omega  full diag
   1    -13.2851816 -0.132852E+02  0.569E+00    7.62       0.0  T
   2    -13.3379789 -0.527974E-01  0.324E+00    5.52       1.0  T
   3    -13.3386904 -0.711410E-03  0.170E+00    5.08       1.0  T
   4    -13.3391021 -0.411746E-03  0.346E-01    4.51       1.0  T
   5    -13.3393051 -0.203011E-03  0.202E-01    4.50       1.0  T
   6    -13.3394219 -0.116743E-03  0.148E-01    4.42       1.0  T
   7    -13.3394742 -0.523394E-04  0.110E-02    4.39       3.7  T
   8    -13.3394742  0.177224E-07  0.120E-02    4.39       3.4  T
   9    -13.3394745 -0.272604E-06  0.326E-03    4.40      12.5  T
  10    -13.3394745 -0.131471E-07  0.192E-03    4.39      21.2  T
  11    -13.3394745 -0.781630E-08  0.343E-04    4.39     118.9  T
  12    -13.3394745 -0.152646E-09  0.307E-05    4.39    1329.9  T

   *** convergence criteria satisfied after 12 iterations ***

         #    Occupation            Energy/Eh            Energy/eV
      -------------------------------------------------------------
         1        2.0000           -1.0577464             -28.7827
       ...           ...                  ...                  ...
         5        2.0000           -0.5145938             -14.0028
         6        2.0000           -0.4968102             -13.5189
         7        2.0000           -0.4204174             -11.4401
         8        2.0000           -0.4203327             -11.4378
         9        2.0000           -0.3372104              -9.1760
        10        2.0000           -0.3367171              -9.1625
        11        2.0000           -0.3367027              -9.1621 (HOMO)
        12                         -0.1751967              -4.7673 (LUMO)
        13                          0.0203143               0.5528
        14                          0.0207741               0.5653
        15                          0.0230593               0.6275
        16                          0.0235415               0.6406
       ...                                ...                  ...
        20                          0.2517421               6.8503
      -------------------------------------------------------------
                  HL-Gap            0.1615059 Eh            4.3948 eV
             Fermi-level           -0.2559497 Eh           -6.9647 eV

 SCC (total)                   0 d,  0 h,  0 min,  0.007 sec
 SCC setup                      ...        0 min,  0.000 sec (  4.766%)
 Dispersion                     ...        0 min,  0.000 sec (  0.499%)
 integral evaluation            ...        0 min,  0.001 sec ( 17.228%)
 zeroth order Hamiltonian       ...        0 min,  0.000 sec (  0.488%)
 iterations                     ...        0 min,  0.004 sec ( 56.529%)
 molecular gradient             ...        0 min,  0.001 sec ( 17.958%)
 printout                       ...        0 min,  0.000 sec (  1.819%)

         :::::::::::::::::::::::::::::::::::::::::::::::::::::
         ::                     SUMMARY                     ::
         :::::::::::::::::::::::::::::::::::::::::::::::::::::
         :: total energy             -13.272564705881 Eh    ::
         :: total w/o Gsasa/hb       -13.270119707911 Eh    ::
         :: gradient norm              0.037103761477 Eh/a0 ::
         :: HOMO-LUMO gap              4.394800157887 eV    ::
         ::.................................................::
         :: SCC energy               -13.336583187973 Eh    ::
         :: -> isotropic ES            0.280155903261 Eh    ::
         :: -> anisotropic ES         -0.002493157105 Eh    ::
         :: -> anisotropic XC         -0.000147319724 Eh    ::
         :: -> dispersion             -0.001862221795 Eh    ::
         :: -> Gsolv                  -0.138988949183 Eh    ::
         ::    -> Gborn               -0.136543951212 Eh    ::
         ::    -> Gsasa                0.001033844320 Eh    ::
         ::    -> Ghb                 -0.005336285417 Eh    ::
         ::    -> Gshift               0.001857443127 Eh    ::
         :: repulsion energy           0.064019098438 Eh    ::
         :: add. restraining           0.000000000000 Eh    ::
         :::::::::::::::::::::::::::::::::::::::::::::::::::::

           -------------------------------------------------
          |                Property Printout                |
           -------------------------------------------------

    * Orbital Energies and Occupations

         #    Occupation            Energy/Eh            Energy/eV
      -------------------------------------------------------------
         1        2.0000           -1.0577464             -28.7827
         2        2.0000           -0.6140834             -16.7101
         3        2.0000           -0.5933565             -16.1461
         4        2.0000           -0.5151863             -14.0189
         5        2.0000           -0.5145938             -14.0028
         6        2.0000           -0.4968102             -13.5189
         7        2.0000           -0.4204174             -11.4401
         8        2.0000           -0.4203327             -11.4378
         9        2.0000           -0.3372104              -9.1760
        10        2.0000           -0.3367171              -9.1625
        11        2.0000           -0.3367027              -9.1621 (HOMO)
        12                         -0.1751967              -4.7673 (LUMO)
        13                          0.0203143               0.5528
        14                          0.0207741               0.5653
        15                          0.0230593               0.6275
        16                          0.0235415               0.6406
        17                          0.1137923               3.0964
        18                          0.1799587               4.8969
        19                          0.2462040               6.6996
        20                          0.2517421               6.8503
      -------------------------------------------------------------
                  HL-Gap            0.1615059 Eh            4.3948 eV
             Fermi-level           -0.2559497 Eh           -6.9647 eV

     #   Z        covCN         q      C6AA      α(0)
     1   9 F      0.000    -0.999    24.523     5.768
     2  17 Cl     0.886    -0.220   106.084    15.757
     3   6 C      3.666    -0.009    21.001     6.572
     4   1 H      0.927     0.080     1.983     2.202
     5   1 H      0.927     0.075     2.035     2.231
     6   1 H      0.927     0.075     2.033     2.230

 Mol. C6AA /au·bohr⁶  :        573.355531
 Mol. C8AA /au·bohr⁸  :      15831.593909
 Mol. α(0) /au        :         34.759135


Wiberg/Mayer (AO) data.
largest (>0.10) Wiberg bond orders for each atom
          total WBO             WBO to atom ...
     1  F   0.001
     2  Cl  0.972        C    3 0.957
     3  C   3.925        H    5 0.989    H    6 0.989    H    4 0.989    Cl   2 0.957
     4  H   0.994        C    3 0.989
     5  H   0.994        C    3 0.989
     6  H   0.994        C    3 0.989

molecular dipole:
                 x           y           z       tot (Debye)
 q only:        5.553      -0.143      -0.450
   full:        5.150      -0.152      -0.446      13.145
molecular quadrupole (traceless):
                xx          xy          yy          xz          yz          zz
 q only:      -43.370       0.371      21.776       3.374      -0.032      21.594
  q+dip:      -46.639       0.055      23.405       3.130      -0.045      23.234
   full:      -45.511       0.196      22.842       3.263      -0.034      22.669


           -------------------------------------------------
          | TOTAL ENERGY              -13.272564705881 Eh   |
          | GRADIENT NORM               0.037103761477 Eh/α |
          | HOMO-LUMO GAP               4.394800157887 eV   |
           -------------------------------------------------

------------------------------------------------------------------------
 * finished run on 2020/08/20 at 17:46:31.193     
------------------------------------------------------------------------
 total:
 * wall-time:     0 d,  0 h,  0 min,  0.084 sec
 *  cpu-time:     0 d,  0 h,  0 min,  0.018 sec
 * ratio c/w:     0.216 speedup
 SCF:
 * wall-time:     0 d,  0 h,  0 min,  0.007 sec
 *  cpu-time:     0 d,  0 h,  0 min,  0.007 sec
 * ratio c/w:     0.998 speedup

