      -----------------------------------------------------------      
     |                   =====================                   |     
     |                           x T B                           |     
     |                   =====================                   |     
     |                         S. Grimme                         |     
     |          Mulliken Center for Theoretical Chemistry        |     
     |                    University of Bonn                     |     
      -----------------------------------------------------------      

   * xtb version 6.2.3 (830e466) compiled by 'ehlert@majestix' on 2020-03-16

   xtb is free software: you can redistribute it and/or modify it under
   the terms of the GNU Lesser General Public License as published by
   the Free Software Foundation, either version 3 of the License, or
   (at your option) any later version.
   
   xtb is distributed in the hope that it will be useful,
   but WITHOUT ANY WARRANTY; without even the implied warranty of
   MERCHANTABILITY or FITNESS FOR A PARTICULAR PURPOSE.  See the
   GNU Lesser General Public License for more details.
   
   Cite this work as:
   * S. Grimme, C. Bannwarth, P. Shushkov, J. Chem. Theory Comput., 2017,
     13, 1989-2009. DOI: 10.1021/acs.jctc.7b00118
   * C. Bannwarth, S. Ehlert and S. Grimme., J. Chem. Theory Comput., 2019,
     15, 1652-1671. DOI: 10.1021/acs.jctc.8b01176
   * P. Pracht, E. Caldeweyher, S. Ehlert, S. Grimme, ChemRxiv, 2019, preprint.
     DOI: 10.26434/chemrxiv.8326202.v1
   
   for DFT-D4:
   * E. Caldeweyher, C. Bannwarth and S. Grimme, J. Chem. Phys., 2017,
     147, 034112. DOI: 10.1063/1.4993215
   * E. Caldeweyher, S. Ehlert, A. Hansen, H. Neugebauer, S. Spicher,
     C. Bannwarth and S. Grimme, J. Chem. Phys., 2019, 150, 154122.
     DOI: 10.1063/1.5090222
   
   for sTDA-xTB:
   * S. Grimme and C. Bannwarth, J. Chem. Phys., 2016, 145, 054103.
     DOI: 10.1063/1.4959605
   
   in the mass-spec context:
   * V. Asgeirsson, C. Bauer and S. Grimme, Chem. Sci., 2017, 8, 4879.
     DOI: 10.1039/c7sc00601b
   
   for metadynamics refer to:
   * S. Grimme, J. Chem. Theory Comput., 2019, 155, 2847-2862
     DOI: 10.1021/acs.jctc.9b00143
   
   with help from (in alphabetical order)
   C. Bannwarth, F. Bohle, G. Brandenburg, E. Caldeweyher, M. Checinski,
   S. Dohm, S. Ehlert, S. Ehrlich, F. März, H. Neugebauer, J. Pisarek,
   P. Pracht, P. Shushkov, and S. Spicher.
   
 * started run on 2020/08/20 at 17:46:28.757     

           -------------------------------------------------
          |                Calculation Setup                |
           -------------------------------------------------

          program call               : /u/fd/ball4935/opt/bin/xtb 0_0_xtb.xyz --chrg -1 --grad --gbsa Water
          hostname                   : comp0810
          coordinate file            : 0_0_xtb.xyz
          omp threads                :                     4
          number of atoms            :                     6
          number of electrons        :                    22
          charge                     :                    -1
          spin                       :                   0.0
          first test random number   :      0.23137006520594


molecular fragmentation (1/2 indicates fragments):
122222
# atoms in fragment 1/2:     1     5
 fragment masses (1/2) :       19.00       50.49
CMA distance (Bohr)    :   8.799
constraining FC (au)   :  0.0500
########################################################################
[WARNING] Please study the warnings concerning your input carefully
-2- prog_main: XTBPATH is not set, using XTBHOME instead
-1- prog_main: XTBHOME is not set, using HOME instead
########################################################################
           ------------------------------------------------- 
          |                 G F N 2 - x T B                 |
          | Geometry, Frequencies, Noncovalent interactions |
          |            JCTC 2019 parametrisation            |
           ------------------------------------------------- 
             k(s)              :                1.8500
             k(p)              :                2.2300
             k(d)              :                2.2300
             k(f)              :                2.0000
             kEN (H0ij)        :               -2.0000
             D4 a1             :                0.5200
             D4 a2             :                5.0000
             D4 s6             :                1.0000
             D4 s8             :                2.7000
             D4 s9             :                5.0000
             alphaj            :                2.0000

  Z AO/shell   Hii/eV     exponent
  1     Wed Apr 25 08:07:45 CEST 2018   EN: 2.200 GM2: 0.406  GM3: 0.0800  RAES: 1.40
     1s    -10.707211    1.230000
  6     Wed Apr 25 08:07:45 CEST 2018   EN: 2.550 GM2: 0.538  GM3: 0.1500  RAES: 3.00
     2s    -13.970922    2.096432
     2p    -10.063292    1.800000
  9     Mon Apr 23 13:58:50 CEST 2018   EN: 3.980 GM2: 0.532  GM3: 0.1426  RAES: 2.40
     2s    -23.458179    2.416361
     2p    -15.746583    2.308399
 17     Mon Apr 23 14:09:22 CEST 2018   EN: 3.160 GM2: 0.249  GM3: 0.1495  RAES: 2.50
     3s    -29.278781    2.485265
     3p    -12.673758    2.199650
     3d     -0.240338    2.476089

 Solvent             : Water
 Using internal parameter file: .param_gbsa2_Water
 Gsolv ref. state (COSMO-RS): gsolv [1 M gas/solution]
 temperature (mdtemp)       :    298.150000000000     
 dielectric constant        :    80.2000000000000     
 rho                        :    1.00000000000000     
 mass                       :    18.0000000000000     
 surface tension            :    15.5689454083859     
 probe radius               :   0.975313790000000     
 Gshift (Eh)                :   1.857443126794793E-003
 c1                         :    1.55243817000000     
 soset                      :   0.130326360000000     
 HB correction              :  T
           ------------------------------------------------- 
          |        Self-Consistent Charge Iterations        |
           ------------------------------------------------- 

          ...................................................
          :                      SETUP                      :
          :.................................................:
          :  # basis functions                  21          :
          :  # atomic orbitals                  20          :
          :  # shells                           10          :
          :  # electrons                        22          :
          :  max. iterations                   250          :
          :  Hamiltonian                  GFN2-xTB          :
          :  restarted?                      false          :
          :  GBSA solvation                   true          :
          :  PC potential                    false          :
          :  electronic temp.          300.0000000     K    :
          :  accuracy                    1.0000000          :
          :  -> integral cutoff          0.2500000E+02      :
          :  -> integral neglect         0.1000000E-07      :
          :  -> SCF convergence          0.1000000E-05 Eh   :
          :  -> wf. convergence          0.1000000E-03 e    :
          :  Broyden damping             0.4000000          :
          ...................................................

 iter      E             dE          RMSdq      gap      omega  full diag
   1    -13.2787192 -0.132787E+02  0.558E+00    7.92       0.0  T
   2    -13.3324875 -0.537682E-01  0.324E+00    5.86       1.0  T
   3    -13.3331716 -0.684122E-03  0.172E+00    5.40       1.0  T
   4    -13.3335998 -0.428184E-03  0.352E-01    4.83       1.0  T
   5    -13.3338270 -0.227237E-03  0.204E-01    4.80       1.0  T
   6    -13.3339540 -0.127020E-03  0.135E-01    4.72       1.0  T
   7    -13.3339992 -0.452184E-04  0.877E-03    4.69       4.7  T
   8    -13.3339993 -0.102771E-07  0.891E-03    4.69       4.6  T
   9    -13.3339994 -0.151355E-06  0.602E-04    4.69      67.9  T
  10    -13.3339994 -0.616055E-09  0.291E-04    4.69     140.2  T

   *** convergence criteria satisfied after 10 iterations ***

         #    Occupation            Energy/Eh            Energy/eV
      -------------------------------------------------------------
         1        2.0000           -1.0587307             -28.8095
       ...           ...                  ...                  ...
         5        2.0000           -0.5147112             -14.0060
         6        2.0000           -0.5024344             -13.6719
         7        2.0000           -0.4203298             -11.4378
         8        2.0000           -0.4203259             -11.4377
         9        2.0000           -0.3380777              -9.1996
        10        2.0000           -0.3376666              -9.1884
        11        2.0000           -0.3376659              -9.1884 (HOMO)
        12                         -0.1654104              -4.5010 (LUMO)
        13                          0.0171597               0.4669
        14                          0.0171947               0.4679
        15                          0.0216101               0.5880
        16                          0.0216345               0.5887
       ...                                ...                  ...
        20                          0.2110154               5.7420
      -------------------------------------------------------------
                  HL-Gap            0.1722555 Eh            4.6873 eV
             Fermi-level           -0.2515382 Eh           -6.8447 eV

 SCC (total)                   0 d,  0 h,  0 min,  0.004 sec
 SCC setup                      ...        0 min,  0.000 sec (  7.567%)
 Dispersion                     ...        0 min,  0.000 sec (  0.781%)
 integral evaluation            ...        0 min,  0.001 sec ( 11.512%)
 zeroth order Hamiltonian       ...        0 min,  0.000 sec (  0.802%)
 iterations                     ...        0 min,  0.003 sec ( 60.291%)
 molecular gradient             ...        0 min,  0.001 sec ( 14.943%)
 printout                       ...        0 min,  0.000 sec (  2.804%)

         :::::::::::::::::::::::::::::::::::::::::::::::::::::
         ::                     SUMMARY                     ::
         :::::::::::::::::::::::::::::::::::::::::::::::::::::
         :: total energy             -13.274053269014 Eh    ::
         :: total w/o Gsasa/hb       -13.271540627004 Eh    ::
         :: gradient norm              0.004627435724 Eh/a0 ::
         :: HOMO-LUMO gap              4.687311792251 eV    ::
         ::.................................................::
         :: SCC energy               -13.331048915073 Eh    ::
         :: -> isotropic ES            0.281162280918 Eh    ::
         :: -> anisotropic ES         -0.002298099075 Eh    ::
         :: -> anisotropic XC         -0.000646815379 Eh    ::
         :: -> dispersion             -0.001810966562 Eh    ::
         :: -> Gsolv                  -0.140591438064 Eh    ::
         ::    -> Gborn               -0.138078796054 Eh    ::
         ::    -> Gsasa                0.001093045564 Eh    ::
         ::    -> Ghb                 -0.005463130700 Eh    ::
         ::    -> Gshift               0.001857443127 Eh    ::
         :: repulsion energy           0.056996545696 Eh    ::
         :: add. restraining           0.000000000000 Eh    ::
         :::::::::::::::::::::::::::::::::::::::::::::::::::::

           -------------------------------------------------
          |                Property Printout                |
           -------------------------------------------------

    * Orbital Energies and Occupations

         #    Occupation            Energy/Eh            Energy/eV
      -------------------------------------------------------------
         1        2.0000           -1.0587307             -28.8095
         2        2.0000           -0.6140908             -16.7103
         3        2.0000           -0.5942860             -16.1713
         4        2.0000           -0.5147584             -14.0073
         5        2.0000           -0.5147112             -14.0060
         6        2.0000           -0.5024344             -13.6719
         7        2.0000           -0.4203298             -11.4378
         8        2.0000           -0.4203259             -11.4377
         9        2.0000           -0.3380777              -9.1996
        10        2.0000           -0.3376666              -9.1884
        11        2.0000           -0.3376659              -9.1884 (HOMO)
        12                         -0.1654104              -4.5010 (LUMO)
        13                          0.0171597               0.4669
        14                          0.0171947               0.4679
        15                          0.0216101               0.5880
        16                          0.0216345               0.5887
        17                          0.1332830               3.6268
        18                          0.1673934               4.5550
        19                          0.2109101               5.7392
        20                          0.2110154               5.7420
      -------------------------------------------------------------
                  HL-Gap            0.1722555 Eh            4.6873 eV
             Fermi-level           -0.2515382 Eh           -6.8447 eV

     #   Z        covCN         q      C6AA      α(0)
     1   9 F      0.000    -1.000    24.532     5.769
     2  17 Cl     0.889    -0.204   105.548    15.717
     3   6 C      3.664    -0.006    20.949     6.565
     4   1 H      0.925     0.070     2.087     2.259
     5   1 H      0.925     0.070     2.090     2.261
     6   1 H      0.925     0.070     2.085     2.258

 Mol. C6AA /au·bohr⁶  :        575.393954
 Mol. C8AA /au·bohr⁸  :      15846.754018
 Mol. α(0) /au        :         34.829163


Wiberg/Mayer (AO) data.
largest (>0.10) Wiberg bond orders for each atom
          total WBO             WBO to atom ...
     1  F   0.000
     2  Cl  0.988        C    3 0.966
     3  C   3.930        H    5 0.988    H    4 0.988    H    6 0.988    Cl   2 0.966
     4  H   0.995        C    3 0.988
     5  H   0.995        C    3 0.988
     6  H   0.995        C    3 0.988

molecular dipole:
                 x           y           z       tot (Debye)
 q only:        5.935       0.138      -0.113
   full:        5.509       0.130      -0.107      14.010
molecular quadrupole (traceless):
                xx          xy          yy          xz          yz          zz
 q only:      -47.752      -1.563      23.871       1.233       0.028      23.881
  q+dip:      -51.139      -1.646      25.564       1.285       0.028      25.575
   full:      -50.039      -1.623      25.014       1.272       0.028      25.025


           -------------------------------------------------
          | TOTAL ENERGY              -13.274053269014 Eh   |
          | GRADIENT NORM               0.004627435724 Eh/α |
          | HOMO-LUMO GAP               4.687311792251 eV   |
           -------------------------------------------------

------------------------------------------------------------------------
 * finished run on 2020/08/20 at 17:46:28.801     
------------------------------------------------------------------------
 total:
 * wall-time:     0 d,  0 h,  0 min,  0.044 sec
 *  cpu-time:     0 d,  0 h,  0 min,  0.108 sec
 * ratio c/w:     2.484 speedup
 SCF:
 * wall-time:     0 d,  0 h,  0 min,  0.005 sec
 *  cpu-time:     0 d,  0 h,  0 min,  0.019 sec
 * ratio c/w:     3.980 speedup

