      -----------------------------------------------------------      
     |                   =====================                   |     
     |                           x T B                           |     
     |                   =====================                   |     
     |                         S. Grimme                         |     
     |          Mulliken Center for Theoretical Chemistry        |     
     |                    University of Bonn                     |     
      -----------------------------------------------------------      

   * xtb version 6.4.1 (conda-forge) compiled by 'runner@Mac-1641555615091.local' on 

   xtb is free software: you can redistribute it and/or modify it under
   the terms of the GNU Lesser General Public License as published by
   the Free Software Foundation, either version 3 of the License, or
   (at your option) any later version.
   
   xtb is distributed in the hope that it will be useful,
   but WITHOUT ANY WARRANTY; without even the implied warranty of
   MERCHANTABILITY or FITNESS FOR A PARTICULAR PURPOSE.  See the
   GNU Lesser General Public License for more details.
   
   Cite this work as:
   * C. Bannwarth, E. Caldeweyher, S. Ehlert, A. Hansen, P. Pracht,
     J. Seibert, S. Spicher, S. Grimme, WIREs Comput. Mol. Sci., 2020, 11,
     e01493. DOI: 10.1002/wcms.1493
   
   for GFN2-xTB:
   * C. Bannwarth, S. Ehlert and S. Grimme., J. Chem. Theory Comput., 2019,
     15, 1652-1671. DOI: 10.1021/acs.jctc.8b01176
   for GFN1-xTB:
   * S. Grimme, C. Bannwarth, P. Shushkov, J. Chem. Theory Comput., 2017,
     13, 1989-2009. DOI: 10.1021/acs.jctc.7b00118
   for GFN0-xTB:
   * P. Pracht, E. Caldeweyher, S. Ehlert, S. Grimme, ChemRxiv, 2019, preprint.
     DOI: 10.26434/chemrxiv.8326202.v1
   for GFN-FF:
   * S. Spicher and S. Grimme, Angew. Chem. Int. Ed., 2020, 59, 15665-15673.
     DOI: 10.1002/anie.202004239
   
   for DFT-D4:
   * E. Caldeweyher, C. Bannwarth and S. Grimme, J. Chem. Phys., 2017,
     147, 034112. DOI: 10.1063/1.4993215
   * E. Caldeweyher, S. Ehlert, A. Hansen, H. Neugebauer, S. Spicher,
     C. Bannwarth and S. Grimme, J. Chem. Phys., 2019, 150, 154122.
     DOI: 10.1063/1.5090222
   * E. Caldeweyher, J.-M. Mewes, S. Ehlert and S. Grimme, Phys. Chem. Chem. Phys.
     2020, 22, 8499-8512. DOI: 10.1039/D0CP00502A
   
   for sTDA-xTB:
   * S. Grimme and C. Bannwarth, J. Chem. Phys., 2016, 145, 054103.
     DOI: 10.1063/1.4959605
   
   in the mass-spec context:
   * V. Asgeirsson, C. Bauer and S. Grimme, Chem. Sci., 2017, 8, 4879.
     DOI: 10.1039/c7sc00601b
   * J. Koopman and S. Grimme, ACS Omega 2019, 4, 12, 15120-15133.
     DOI: 10.1021/acsomega.9b02011
   
   for metadynamics refer to:
   * S. Grimme, J. Chem. Theory Comput., 2019, 155, 2847-2862
     DOI: 10.1021/acs.jctc.9b00143
   
   for SPH calculations refer to:
   * S. Spicher and S. Grimme, J. Chem. Theory Comput., 2021, 17, 1701-1714
     DOI: 10.1021/acs.jctc.0c01306
   
   with help from (in alphabetical order)
   P. Atkinson, C. Bannwarth, F. Bohle, G. Brandenburg, E. Caldeweyher
   M. Checinski, S. Dohm, S. Ehlert, S. Ehrlich, I. Gerasimov, J. Koopman
   C. Lavigne, S. Lehtola, F. März, M. Müller, F. Musil, H. Neugebauer
   J. Pisarek, C. Plett, P. Pracht, J. Seibert, P. Shushkov, S. Spicher
   M. Stahn, M. Steiner, T. Strunk, J. Stückrath, T. Rose, and J. Unsleber
   
 * started run on 2023/01/22 at 17:39:18.183     

           -------------------------------------------------
          |                Calculation Setup                |
           -------------------------------------------------

          program call               : /Users/tom/miniforge3/bin/xtb path_opt-1_xtb.xyz --chrg 0 --uhf 0 --opt
          coordinate file            : path_opt-1_xtb.xyz
          omp threads                :                     1
          number of atoms            :                     3
          number of electrons        :                     8
          charge                     :                     0
          spin                       :                   0.0
          first test random number   :      0.72861871284420

   ID    Z sym.   atoms
    1    8 O      1
    2    1 H      2, 3

           -------------------------------------------------
          |                 G F N 2 - x T B                 |
           -------------------------------------------------

        Reference                      10.1021/acs.jctc.8b01176
      * Hamiltonian:
        H0-scaling (s, p, d)           1.850000    2.230000    2.230000
        zeta-weighting                 0.500000
      * Dispersion:
        s8                             2.700000
        a1                             0.520000
        a2                             5.000000
        s9                             5.000000
      * Repulsion:
        kExp                           1.500000    1.000000
        rExp                           1.000000
      * Coulomb:
        alpha                          2.000000
        third order                    shell-resolved
        anisotropic                    true
        a3                             3.000000
        a5                             4.000000
        cn-shift                       1.200000
        cn-exp                         4.000000
        max-rad                        5.000000


          ...................................................
          :                      SETUP                      :
          :.................................................:
          :  # basis functions                   6          :
          :  # atomic orbitals                   6          :
          :  # shells                            4          :
          :  # electrons                         8          :
          :  max. iterations                   250          :
          :  Hamiltonian                  GFN2-xTB          :
          :  restarted?                      false          :
          :  GBSA solvation                  false          :
          :  PC potential                    false          :
          :  electronic temp.          300.0000000     K    :
          :  accuracy                    1.0000000          :
          :  -> integral cutoff          0.2500000E+02      :
          :  -> integral neglect         0.1000000E-07      :
          :  -> SCF convergence          0.1000000E-05 Eh   :
          :  -> wf. convergence          0.1000000E-03 e    :
          :  Broyden damping             0.4000000          :
          ...................................................

 iter      E             dE          RMSdq      gap      omega  full diag
   1     -5.0918409 -0.509184E+01  0.422E+00   13.16       0.0  T
   2     -5.0935887 -0.174779E-02  0.239E+00   12.83       1.0  T
   3     -5.0938643 -0.275537E-03  0.437E-01   12.59       1.0  T
   4     -5.0939341 -0.698630E-04  0.940E-02   12.75       1.0  T
   5     -5.0939372 -0.308745E-05  0.630E-02   12.70       1.0  T
   6     -5.0939399 -0.263549E-05  0.871E-04   12.72      66.3  T
   7     -5.0939399  0.182367E-09  0.830E-04   12.72      69.5  T
   8     -5.0939399 -0.461055E-09  0.303E-05   12.72    1905.6  T

   *** convergence criteria satisfied after 8 iterations ***

         #    Occupation            Energy/Eh            Energy/eV
      -------------------------------------------------------------
         1        2.0000           -0.6725448             -18.3009
         2        2.0000           -0.5688386             -15.4789
         3        2.0000           -0.5010668             -13.6347
         4        2.0000           -0.4419855             -12.0270 (HOMO)
         5                          0.0255052               0.6940 (LUMO)
         6                          0.2133881               5.8066
      -------------------------------------------------------------
                  HL-Gap            0.4674907 Eh           12.7211 eV
             Fermi-level           -0.2082401 Eh           -5.6665 eV

 SCC (total)                   0 d,  0 h,  0 min,  0.002 sec
 SCC setup                      ...        0 min,  0.000 sec ( 15.461%)
 Dispersion                     ...        0 min,  0.000 sec ( 13.069%)
 classical contributions        ...        0 min,  0.000 sec (  0.152%)
 integral evaluation            ...        0 min,  0.000 sec ( 21.342%)
 iterations                     ...        0 min,  0.001 sec ( 24.621%)
 molecular gradient             ...        0 min,  0.000 sec ( 16.394%)
 printout                       ...        0 min,  0.000 sec (  8.763%)

         :::::::::::::::::::::::::::::::::::::::::::::::::::::
         ::                     SUMMARY                     ::
         :::::::::::::::::::::::::::::::::::::::::::::::::::::
         :: total energy              -5.068109167568 Eh    ::
         :: gradient norm              0.042411789728 Eh/a0 ::
         :: HOMO-LUMO gap             12.721069301766 eV    ::
         ::.................................................::
         :: SCC energy                -5.093939855259 Eh    ::
         :: -> isotropic ES            0.031864824159 Eh    ::
         :: -> anisotropic ES          0.000254697333 Eh    ::
         :: -> anisotropic XC         -0.000665658831 Eh    ::
         :: -> dispersion             -0.000141217405 Eh    ::
         :: repulsion energy           0.025830687676 Eh    ::
         :: add. restraining           0.000000000000 Eh    ::
         :: total charge               0.000000000000 e     ::
         :::::::::::::::::::::::::::::::::::::::::::::::::::::

      ----------------------------------------------------------- 
     |                   =====================                   |
     |                        A N C O P T                        |
     |                   =====================                   |
     |               Approximate Normal Coordinate               |
     |                Rational Function Optimizer                |
      ----------------------------------------------------------- 

          ...................................................
          :                      SETUP                      :
          :.................................................:
          :   optimization level            normal          :
          :   max. optcycles                   200          :
          :   ANC micro-cycles                  20          :
          :   degrees of freedom                 3          :
          :.................................................:
          :   RF solver                   davidson          :
          :   write xtbopt.log                true          :
          :   linear?                        false          :
          :   energy convergence         0.5000000E-05 Eh   :
          :   grad. convergence          0.1000000E-02 Eh/α :
          :   maximium RF displ.         1.0000000          :
          :   Hlow (freq-cutoff)         0.1000000E-01      :
          :   Hmax (freq-cutoff)         5.0000000          :
          :   S6 in model hess.         20.0000000          :
          ...................................................

generating ANC from model Hessian ...
Using Lindh-Hessian (1995)
 Shifting diagonal of input Hessian by    0.0000000000000000     
 Lowest  eigenvalues of input Hessian
    0.000000    0.000000    0.000000    0.000000    0.000000    0.000000
    0.259923    1.036089    1.375302
 Highest eigenvalues
    0.000000    0.000000    0.000000    0.259923    1.036089    1.375302


........................................................................
.............................. CYCLE    1 ..............................
........................................................................
   1     -5.0939399 -0.509394E+01  0.372E-06   12.72       0.0  T
   2     -5.0939399 -0.621725E-14  0.166E-06   12.72   34785.8  T
   3     -5.0939399  0.621725E-14  0.580E-07   12.72   99577.6  T
     SCC iter.                  ...        0 min,  0.000 sec
     gradient                   ...        0 min,  0.000 sec
 * total energy  :    -5.0681092 Eh     change       -0.5808687E-12 Eh
   gradient norm :     0.0424120 Eh/α   predicted     0.0000000E+00 (-100.00%)
   displ. norm   :     0.0979557 α      lambda       -0.3396347E-02
   maximum displ.:     0.0920612 α      in ANC's #1, #2, #3, ...

........................................................................
.............................. CYCLE    2 ..............................
........................................................................
   1     -5.1027025 -0.510270E+01  0.233E-01   13.94       0.0  T
   2     -5.1027029 -0.359593E-06  0.137E-01   13.94       1.0  T
   3     -5.1027031 -0.171524E-06  0.522E-03   13.95      11.1  T
   4     -5.1027031 -0.699976E-08  0.197E-03   13.95      29.4  T
   5     -5.1027031 -0.436659E-09  0.324E-04   13.95     178.1  T
   6     -5.1027031 -0.161355E-10  0.612E-05   13.95     943.7  T
     SCC iter.                  ...        0 min,  0.000 sec
     gradient                   ...        0 min,  0.000 sec
 * total energy  :    -5.0703228 Eh     change       -0.2213632E-02 Eh
   gradient norm :     0.0107582 Eh/α   predicted    -0.1714466E-02 ( -22.55%)
   displ. norm   :     0.0451055 α      lambda       -0.4263427E-03
   maximum displ.:     0.0440333 α      in ANC's #1, #2, #3, ...

........................................................................
.............................. CYCLE    3 ..............................
........................................................................
   1     -5.1054967 -0.510550E+01  0.955E-02   14.43       0.0  T
   2     -5.1054968 -0.829328E-07  0.561E-02   14.44       1.0  T
   3     -5.1054968 -0.233478E-07  0.215E-03   14.44      26.8  T
   4     -5.1054968 -0.236443E-08  0.550E-04   14.44     104.9  T
   5     -5.1054968 -0.187335E-10  0.132E-04   14.44     438.6  T
     SCC iter.                  ...        0 min,  0.000 sec
     gradient                   ...        0 min,  0.000 sec
 * total energy  :    -5.0705338 Eh     change       -0.2109898E-03 Eh
   gradient norm :     0.0036052 Eh/α   predicted    -0.2136050E-03 (   1.24%)
   displ. norm   :     0.0047388 α      lambda       -0.1325478E-04
   maximum displ.:     0.0036120 α      in ANC's #1, #2, #3, ...

........................................................................
.............................. CYCLE    4 ..............................
........................................................................
   1     -5.1051180 -0.510512E+01  0.177E-02   14.40       0.0  T
   2     -5.1051181 -0.878536E-07  0.927E-03   14.40       6.2  T
   3     -5.1051181 -0.136402E-07  0.265E-03   14.41      21.8  T
   4     -5.1051182 -0.128596E-08  0.408E-04   14.40     141.4  T
   5     -5.1051182 -0.295142E-11  0.848E-06   14.40    6811.7  T
     SCC iter.                  ...        0 min,  0.000 sec
     gradient                   ...        0 min,  0.000 sec
 * total energy  :    -5.0705429 Eh     change       -0.9125861E-05 Eh
   gradient norm :     0.0013040 Eh/α   predicted    -0.6627732E-05 ( -27.37%)
   displ. norm   :     0.0048879 α      lambda       -0.3075093E-05
   maximum displ.:     0.0041070 α      in ANC's #1, #2, #3, ...

........................................................................
.............................. CYCLE    5 ..............................
........................................................................
   1     -5.1048094 -0.510481E+01  0.165E-02   14.38       0.0  T
   2     -5.1048094 -0.758753E-07  0.863E-03   14.38       6.7  T
   3     -5.1048094 -0.116366E-07  0.248E-03   14.38      23.3  T
   4     -5.1048094 -0.110532E-08  0.365E-04   14.38     158.4  T
   5     -5.1048094 -0.233591E-11  0.903E-06   14.38    6396.7  T
     SCC iter.                  ...        0 min,  0.000 sec
     gradient                   ...        0 min,  0.000 sec
 * total energy  :    -5.0705441 Eh     change       -0.1137823E-05 Eh
   gradient norm :     0.0006559 Eh/α   predicted    -0.1538321E-05 (  35.20%)
   displ. norm   :     0.0016700 α      lambda       -0.5263936E-06
   maximum displ.:     0.0014160 α      in ANC's #1, #2, #3, ...

   *** GEOMETRY OPTIMIZATION CONVERGED AFTER 5 ITERATIONS ***

------------------------------------------------------------------------
 total energy gain   :        -0.0024349 Eh       -1.5279 kcal/mol
 total RMSD          :         0.0858108 a0        0.0454 Å
 total power (kW/mol):        -1.2785584 (step)-3785.0525 (real)
------------------------------------------------------------------------

 ANCopt (total)                0 d,  0 h,  0 min,  0.002 sec
 optimizer setup                ...        0 min,  0.000 sec ( 10.148%)
 model hessian                  ...        0 min,  0.000 sec ( 22.308%)
 ANC generation                 ...        0 min,  0.000 sec (  2.252%)
 coordinate transformation      ...        0 min,  0.000 sec (  0.070%)
 single point calculation       ...        0 min,  0.001 sec ( 41.590%)
 optimization log               ...        0 min,  0.000 sec (  8.839%)
 hessian update                 ...        0 min,  0.000 sec (  0.183%)
 rational function              ...        0 min,  0.000 sec (  5.011%)

================
 final structure:
================
3
 xtb: 6.4.1 (conda-forge)
O        -0.00030494407457    0.37999652514518    0.00000000000000
H        -0.77174750620548   -0.19060466827851    0.00000000000000
H         0.77205245028006   -0.18939185686667    0.00000000000000

 Bond Distances (Angstroems)
 ---------------------------
O1-H2=0.9595         O1-H3=0.9596         H2-O1=0.9595         H3-O1=0.9596         
 O  H  Rav=0.9595 sigma=0.0000  Rmin=0.9595  Rmax=0.9596     2

 selected bond angles (degree)
 --------------------
H3-O1-H2=107.11                

 selected dihedral angles (degree)
 ---------------------------------

           -------------------------------------------------
          |                Final Singlepoint                |
           -------------------------------------------------

          ...................................................
          :                      SETUP                      :
          :.................................................:
          :  # basis functions                   6          :
          :  # atomic orbitals                   6          :
          :  # shells                            4          :
          :  # electrons                         8          :
          :  max. iterations                   250          :
          :  Hamiltonian                  GFN2-xTB          :
          :  restarted?                      false          :
          :  GBSA solvation                  false          :
          :  PC potential                    false          :
          :  electronic temp.          300.0000000     K    :
          :  accuracy                    1.0000000          :
          :  -> integral cutoff          0.2500000E+02      :
          :  -> integral neglect         0.1000000E-07      :
          :  -> SCF convergence          0.1000000E-05 Eh   :
          :  -> wf. convergence          0.1000000E-03 e    :
          :  Broyden damping             0.4000000          :
          ...................................................

 iter      E             dE          RMSdq      gap      omega  full diag
   1     -5.1048094 -0.510481E+01  0.480E-06   14.38       0.0  T
   2     -5.1048094 -0.888178E-15  0.289E-06   14.38   19953.7  T
   3     -5.1048094  0.532907E-14  0.721E-08   14.38  100000.0  T

   *** convergence criteria satisfied after 3 iterations ***

         #    Occupation            Energy/Eh            Energy/eV
      -------------------------------------------------------------
         1        2.0000           -0.6800902             -18.5062
         2        2.0000           -0.5681995             -15.4615
         3        2.0000           -0.5110184             -13.9055
         4        2.0000           -0.4464134             -12.1475 (HOMO)
         5                          0.0821287               2.2348 (LUMO)
         6                          0.2504450               6.8150
      -------------------------------------------------------------
                  HL-Gap            0.5285421 Eh           14.3824 eV
             Fermi-level           -0.1821424 Eh           -4.9563 eV

 SCC (total)                   0 d,  0 h,  0 min,  0.000 sec
 SCC setup                      ...        0 min,  0.000 sec ( 21.551%)
 Dispersion                     ...        0 min,  0.000 sec (  0.342%)
 classical contributions        ...        0 min,  0.000 sec (  0.570%)
 integral evaluation            ...        0 min,  0.000 sec ( 12.543%)
 iterations                     ...        0 min,  0.000 sec ( 24.401%)
 molecular gradient             ...        0 min,  0.000 sec ( 17.674%)
 printout                       ...        0 min,  0.000 sec ( 21.437%)

         :::::::::::::::::::::::::::::::::::::::::::::::::::::
         ::                     SUMMARY                     ::
         :::::::::::::::::::::::::::::::::::::::::::::::::::::
         :: total energy              -5.070544053370 Eh    ::
         :: gradient norm              0.000655855810 Eh/a0 ::
         :: HOMO-LUMO gap             14.382362051053 eV    ::
         ::.................................................::
         :: SCC energy                -5.104809439662 Eh    ::
         :: -> isotropic ES            0.031455517012 Eh    ::
         :: -> anisotropic ES          0.000406062780 Eh    ::
         :: -> anisotropic XC         -0.000875092353 Eh    ::
         :: -> dispersion             -0.000141099538 Eh    ::
         :: repulsion energy           0.034265386266 Eh    ::
         :: add. restraining           0.000000000000 Eh    ::
         :: total charge               0.000000000000 e     ::
         :::::::::::::::::::::::::::::::::::::::::::::::::::::

           -------------------------------------------------
          |                Property Printout                |
           -------------------------------------------------

    * Orbital Energies and Occupations

         #    Occupation            Energy/Eh            Energy/eV
      -------------------------------------------------------------
         1        2.0000           -0.6800902             -18.5062
         2        2.0000           -0.5681995             -15.4615
         3        2.0000           -0.5110184             -13.9055
         4        2.0000           -0.4464134             -12.1475 (HOMO)
         5                          0.0821287               2.2348 (LUMO)
         6                          0.2504450               6.8150
      -------------------------------------------------------------
                  HL-Gap            0.5285421 Eh           14.3824 eV
             Fermi-level           -0.1821424 Eh           -4.9563 eV

     #   Z          covCN         q      C6AA      α(0)
     1   8 O        1.611    -0.565    24.354     6.661
     2   1 H        0.805     0.282     0.777     1.384
     3   1 H        0.805     0.282     0.777     1.384

 Mol. C6AA /au·bohr⁶  :         44.534520
 Mol. C8AA /au·bohr⁸  :        795.707500
 Mol. α(0) /au        :          9.429114


Wiberg/Mayer (AO) data.
largest (>0.10) Wiberg bond orders for each atom

 ---------------------------------------------------------------------------
     #   Z sym  total        # sym  WBO       # sym  WBO       # sym  WBO
 ---------------------------------------------------------------------------
     1   8 O    1.840 --     3 H    0.920     2 H    0.920
     2   1 H    0.920 --     1 O    0.920
     3   1 H    0.920 --     1 O    0.920
 ---------------------------------------------------------------------------

Topologies differ in total number of bonds
Writing topology from bond orders to xtbtopo.mol

molecular dipole:
                 x           y           z       tot (Debye)
 q only:        0.000      -0.608       0.000
   full:        0.001      -0.873       0.000       2.219
molecular quadrupole (traceless):
                xx          xy          yy          xz          yz          zz
 q only:        1.310       0.002      -0.819      -0.000      -0.000      -0.491
  q+dip:        1.745       0.002      -1.175      -0.000      -0.000      -0.570
   full:        1.950       0.002      -1.120       0.000       0.000      -0.829

           -------------------------------------------------
          |                Geometry Summary                 |
           -------------------------------------------------

      molecular mass/u    :       18.0152864
   center of mass at/Å    :       -0.0002538       0.3162150       0.0000000
  moments of inertia/u·Å² :        0.5816607E+00   0.1201123E+01   0.1782783E+01
rotational constants/cm⁻¹ :        0.2898190E+02   0.1403490E+02   0.9455795E+01

 * 2 selected distances

     #   Z          #   Z                                           value/Å
     1   8 O        2   1 H                                       0.9595360 (min)
     1   8 O        3   1 H                                       0.9595515 (max)

 * 1 distinct bonds (by element types)

   Z      Z             #   av. dist./Å        max./Å        min./Å
   1 H    8 O           2     0.9595438     0.9595515     0.9595360


optimized geometry written to: xtbopt.xyz


           -------------------------------------------------
          | TOTAL ENERGY               -5.070544053370 Eh   |
          | GRADIENT NORM               0.000655855810 Eh/α |
          | HOMO-LUMO GAP              14.382362051053 eV   |
           -------------------------------------------------

------------------------------------------------------------------------
 * finished run on 2023/01/22 at 17:39:18.196     
------------------------------------------------------------------------
 total:
 * wall-time:     0 d,  0 h,  0 min,  0.012 sec
 *  cpu-time:     0 d,  0 h,  0 min,  0.007 sec
 * ratio c/w:     0.565 speedup
 SCF:
 * wall-time:     0 d,  0 h,  0 min,  0.002 sec
 *  cpu-time:     0 d,  0 h,  0 min,  0.001 sec
 * ratio c/w:     0.438 speedup
 ANC optimizer:
 * wall-time:     0 d,  0 h,  0 min,  0.002 sec
 *  cpu-time:     0 d,  0 h,  0 min,  0.002 sec
 * ratio c/w:     0.787 speedup

