
                                 *****************
                                 * O   R   C   A *
                                 *****************

           --- An Ab Initio, DFT and Semiempirical electronic structure package ---

                  #######################################################
                  #                        -***-                        #
                  #          Department of theory and spectroscopy      #
                  #               Directorship: Frank Neese             #
                  #        Max Planck Institute fuer Kohlenforschung    #
                  #                Kaiser Wilhelm Platz 1               #
                  #                 D-45470 Muelheim/Ruhr               #
                  #                      Germany                        #
                  #                                                     #
                  #                  All rights reserved                #
                  #                        -***-                        #
                  #######################################################


                         Program Version 4.2.1 -  RELEASE  -


 With contributions from (in alphabetic order):
   Daniel Aravena         : Magnetic Suceptibility
   Michael Atanasov       : Ab Initio Ligand Field Theory (pilot matlab implementation)
   Alexander A. Auer      : GIAO ZORA, VPT2
   Ute Becker             : Parallelization
   Giovanni Bistoni       : ED, misc. LED, open-shell LED, HFLD
   Martin Brehm           : Molecular dynamics
   Dmytro Bykov           : SCF Hessian
   Vijay G. Chilkuri      : MRCI spin determinant printing, contributions to CSF-ICE
   Dipayan Datta          : RHF DLPNO-CCSD density
   Achintya Kumar Dutta   : EOM-CC, STEOM-CC
   Dmitry Ganyushin       : Spin-Orbit,Spin-Spin,Magnetic field MRCI
   Miquel Garcia          : C-PCM Hessian, Gaussian charge scheme
   Yang Guo               : DLPNO-NEVPT2, CIM, IAO-localization
   Andreas Hansen         : Spin unrestricted coupled pair/coupled cluster methods
   Benjamin Helmich-Paris : CASSCF linear response (MC-RPA)
   Lee Huntington         : MR-EOM, pCC
   Robert Izsak           : Overlap fitted RIJCOSX, COSX-SCS-MP3, EOM
   Christian Kollmar      : KDIIS, OOCD, Brueckner-CCSD(T), CCSD density
   Simone Kossmann        : Meta GGA functionals, TD-DFT gradient, OOMP2, MP2 Hessian
   Martin Krupicka        : AUTO-CI
   Lucas Lang             : DCDCAS
   Dagmar Lenk            : GEPOL surface, SMD
   Dimitrios Liakos       : Extrapolation schemes; Compound Job, initial MDCI parallelization
   Dimitrios Manganas     : Further ROCIS development; embedding schemes
   Dimitrios Pantazis     : SARC Basis sets
   Taras Petrenko         : DFT Hessian,TD-DFT gradient, ASA, ECA, R-Raman, ABS, FL, XAS/XES, NRVS
   Peter Pinski           : DLPNO-MP2, DLPNO-MP2 Gradient
   Christoph Reimann      : Effective Core Potentials
   Marius Retegan         : Local ZFS, SOC
   Christoph Riplinger    : Optimizer, TS searches, QM/MM, DLPNO-CCSD(T), (RO)-DLPNO pert. Triples
   Tobias Risthaus        : Range-separated hybrids, TD-DFT gradient, RPA, STAB
   Michael Roemelt        : Original ROCIS implementation
   Masaaki Saitow         : Open-shell DLPNO-CCSD energy and density
   Barbara Sandhoefer     : DKH picture change effects
   Avijit Sen             : IP-ROCIS
   Kantharuban Sivalingam : CASSCF convergence, NEVPT2, FIC-MRCI
   Bernardo de Souza      : ESD, SOC TD-DFT
   Georgi Stoychev        : AutoAux, RI-MP2 NMR
   Willem Van den Heuvel  : Paramagnetic NMR
   Boris Wezisla          : Elementary symmetry handling
   Frank Wennmohs         : Technical directorship


 We gratefully acknowledge several colleagues who have allowed us to
 interface, adapt or use parts of their codes:
   Stefan Grimme, W. Hujo, H. Kruse,             : VdW corrections, initial TS optimization,
                  C. Bannwarth                     DFT functionals, gCP, sTDA/sTD-DF
   Ed Valeev, F. Pavosevic, A. Kumar             : LibInt (2-el integral package), F12 methods
   Garnet Chan, S. Sharma, J. Yang, R. Olivares  : DMRG
   Ulf Ekstrom                                   : XCFun DFT Library
   Mihaly Kallay                                 : mrcc  (arbitrary order and MRCC methods)
   Andreas Klamt, Michael Diedenhofen            : otool_cosmo (COSMO solvation model)
   Jiri Pittner, Ondrej Demel                    : Mk-CCSD
   Frank Weinhold                                : gennbo (NPA and NBO analysis)
   Christopher J. Cramer and Donald G. Truhlar   : smd solvation model
   Lars Goerigk                                  : TD-DFT with DH, B97 family of functionals
   V. Asgeirsson, H. Jonsson                     : NEB implementation
   FAccTs GmbH                                   : IRC, NEB, NEB-TS, Multilevel, MM, QM/MM, CI optimization
   S Lehtola, MJT Oliveira, MAL Marques          : LibXC Library


 Your calculation uses the libint2 library for the computation of 2-el integrals
 For citations please refer to: http://libint.valeyev.net

 Your ORCA version has been built with support for libXC version: 4.2.3
 For citations please refer to: https://tddft.org/programs/libxc/

 This ORCA versions uses:
   CBLAS   interface :  Fast vector & matrix operations
   LAPACKE interface :  Fast linear algebra routines
   SCALAPACK package :  Parallel linear algebra routines


Your calculation utilizes the atom-pairwise dispersion correction
with the Becke-Johnson damping scheme (D3BJ)
Cite in your paper:
S.Grimme, S.Ehrlich, L.Goerigk, J Comput Chem, (2011), 32, 1456–1465 
S.Grimme, J.Antony, S.Ehrlich and H.Krieg, J.Chem.Phys., 132, (2010), 154104 
   

----- Orbital basis set information -----
Your calculation utilizes the basis: def2-SVP
   F. Weigend and R. Ahlrichs, Phys. Chem. Chem. Phys. 7, 3297 (2005).

----- AuxJ basis set information -----
Your calculation utilizes the auxiliary basis: def2/J
   F. Weigend, Phys. Chem. Chem. Phys. 8, 1057 (2006).

================================================================================
                                        WARNINGS
                       Please study these warnings very carefully!
================================================================================


INFO   : the flag for use of LIBINT has been found!

================================================================================
                                       INPUT FILE
================================================================================
NAME = 3ixBtq_ll_neb_0-2_1-2_hess_orca.inp
|  1> ! Freq PBE0 RIJCOSX D3BJ def2-SVP def2/J CPCM(Water)
|  2> %geom MaxIter 100 end
|  3> %output 
|  4> xyzfile=True 
|  5> end 
|  6> %scf 
|  7> maxiter 250 
|  8> end
|  9> %output
| 10> Print[P_Hirshfeld] = 1
| 11> end
| 12> % maxcore
| 13> 4000
| 14> %pal nprocs 4
| 15> end
| 16> *xyz -1 1
| 17> F   -2.61105282  -0.05139898   0.03667110 
| 18> Cl   1.59995105   0.04003220  -0.01619042 
| 19> C   -0.54459601  -0.00798850   0.00529222 
| 20> H   -0.66422917  -0.64285215  -0.84972851 
| 21> H   -0.64483493  -0.43621679   0.98185867 
| 22> H   -0.69090883   1.04632351  -0.11363306 
| 23> *
| 24> 
| 25>                          ****END OF INPUT****
================================================================================

                       ****************************
                       * Single Point Calculation *
                       ****************************

---------------------------------
CARTESIAN COORDINATES (ANGSTROEM)
---------------------------------
  F     -2.611053   -0.051399    0.036671
  Cl     1.599951    0.040032   -0.016190
  C     -0.544596   -0.007989    0.005292
  H     -0.664229   -0.642852   -0.849729
  H     -0.644835   -0.436217    0.981859
  H     -0.690909    1.046324   -0.113633

----------------------------
CARTESIAN COORDINATES (A.U.)
----------------------------
  NO LB      ZA    FRAG     MASS         X           Y           Z
   0 F     9.0000    0    18.998   -4.934175   -0.097130    0.069298
   1 Cl   17.0000    0    35.453    3.023469    0.075650   -0.030595
   2 C     6.0000    0    12.011   -1.029137   -0.015096    0.010001
   3 H     1.0000    0     1.008   -1.255211   -1.214815   -1.605754
   4 H     1.0000    0     1.008   -1.218561   -0.824330    1.855444
   5 H     1.0000    0     1.008   -1.305628    1.977265   -0.214735

--------------------------------
INTERNAL COORDINATES (ANGSTROEM)
--------------------------------
 F      0   0   0     0.000000000000     0.00000000     0.00000000
 Cl     1   0   0     4.212328049206     0.00000000     0.00000000
 C      1   2   0     2.067150901961     0.15604915     0.00000000
 H      3   1   2     1.071645648427    83.57358291   158.58071536
 H      3   1   4     1.071031904616    83.35040869   240.02562916
 H      3   1   5     1.071038971256    83.44224244   239.87391405

---------------------------
INTERNAL COORDINATES (A.U.)
---------------------------
 F      0   0   0     0.000000000000     0.00000000     0.00000000
 Cl     1   0   0     7.960146399234     0.00000000     0.00000000
 C      1   2   0     3.906349082195     0.15604915     0.00000000
 H      3   1   2     2.025116788136    83.57358291   158.58071536
 H      3   1   4     2.023956980416    83.35040869   240.02562916
 H      3   1   5     2.023970334431    83.44224244   239.87391405

---------------------
BASIS SET INFORMATION
---------------------
There are 4 groups of distinct atoms

 Group   1 Type F   : 7s4p1d contracted to 3s2p1d pattern {511/31/1}
 Group   2 Type Cl  : 10s7p1d contracted to 4s3p1d pattern {5311/511/1}
 Group   3 Type C   : 7s4p1d contracted to 3s2p1d pattern {511/31/1}
 Group   4 Type H   : 4s1p contracted to 2s1p pattern {31/1}

Atom   0F    basis set group =>   1
Atom   1Cl   basis set group =>   2
Atom   2C    basis set group =>   3
Atom   3H    basis set group =>   4
Atom   4H    basis set group =>   4
Atom   5H    basis set group =>   4
---------------------------------
AUXILIARY/J BASIS SET INFORMATION
---------------------------------
There are 4 groups of distinct atoms

 Group   1 Type F   : 12s5p4d2f1g contracted to 6s4p3d1f1g pattern {711111/2111/211/2/1}
 Group   2 Type Cl  : 14s5p5d2f1g contracted to 8s4p3d1f1g pattern {71111111/2111/311/2/1}
 Group   3 Type C   : 12s5p4d2f1g contracted to 6s4p3d1f1g pattern {711111/2111/211/2/1}
 Group   4 Type H   : 5s2p1d contracted to 3s1p1d pattern {311/2/1}

Atom   0F    basis set group =>   1
Atom   1Cl   basis set group =>   2
Atom   2C    basis set group =>   3
Atom   3H    basis set group =>   4
Atom   4H    basis set group =>   4
Atom   5H    basis set group =>   4
[1597941993.265166] [comp0810:60001:0]            sys.c:618  UCX  ERROR shmget(size=2097152 flags=0xfb0) for mm_recv_desc failed: Operation not permitted, please check shared memory limits by 'ipcs -l'
[1597941993.270425] [comp0810:60003:0]            sys.c:618  UCX  ERROR shmget(size=2097152 flags=0xfb0) for mm_recv_desc failed: Operation not permitted, please check shared memory limits by 'ipcs -l'
[1597941993.270475] [comp0810:60004:0]            sys.c:618  UCX  ERROR shmget(size=2097152 flags=0xfb0) for mm_recv_desc failed: Operation not permitted, please check shared memory limits by 'ipcs -l'
[1597941993.275882] [comp0810:60002:0]            sys.c:618  UCX  ERROR shmget(size=2097152 flags=0xfb0) for mm_recv_desc failed: Operation not permitted, please check shared memory limits by 'ipcs -l'
[1597941993.285312] [comp0810:60004:0]            sys.c:618  UCX  ERROR shmget(size=2097152 flags=0xb80) for ucp_am_bufs failed: Operation not permitted, please check shared memory limits by 'ipcs -l'
[1597941993.284808] [comp0810:60001:0]            sys.c:618  UCX  ERROR shmget(size=2097152 flags=0xb80) for ucp_am_bufs failed: Operation not permitted, please check shared memory limits by 'ipcs -l'
[1597941993.285306] [comp0810:60003:0]            sys.c:618  UCX  ERROR shmget(size=2097152 flags=0xb80) for ucp_am_bufs failed: Operation not permitted, please check shared memory limits by 'ipcs -l'
[1597941993.285620] [comp0810:60002:0]            sys.c:618  UCX  ERROR shmget(size=2097152 flags=0xb80) for ucp_am_bufs failed: Operation not permitted, please check shared memory limits by 'ipcs -l'


           ************************************************************
           *        Program running with 4 parallel MPI-processes     *
           *              working on a common directory               *
           ************************************************************
------------------------------------------------------------------------------
                           ORCA GTO INTEGRAL CALCULATION
                           -- RI-GTO INTEGRALS CHOSEN --
------------------------------------------------------------------------------

                         BASIS SET STATISTICS AND STARTUP INFO

Gaussian basis set:
 # of primitive gaussian shells          ...   57
 # of primitive gaussian functions       ...  105
 # of contracted shells                  ...   29
 # of contracted basis functions         ...   61
 Highest angular momentum                ...    2
 Maximum contraction depth               ...    5
Auxiliary gaussian basis set:
 # of primitive gaussian shells          ...   99
 # of primitive gaussian functions       ...  265
 # of contracted shells                  ...   62
 # of contracted aux-basis functions     ...  182
 Highest angular momentum                ...    4
 Maximum contraction depth               ...    7
Ratio of auxiliary to basis functions    ...  2.98
Integral package used                  ... LIBINT
 One Electron integrals                  ... done
 Ordering auxiliary basis shells         ... done
 Integral threshhold             Thresh  ...  1.000e-10
 Primitive cut-off               TCut    ...  1.000e-11
 Pre-screening matrix                    ... done
 Shell pair data                         ... 
 Ordering of the shell pairs             ... done (   0.000 sec) 418 of 435 pairs
 Determination of significant pairs      ... done (   0.000 sec)
 Creation of shell pair data             ... done (   0.000 sec)
 Storage of shell pair data              ... done (   0.007 sec)
 Shell pair data done in (   0.007 sec)
 Computing two index integrals           ... done
 Cholesky decomposition of the V-matrix  ... done


Timings:
 Total evaluation time                   ...   0.121 sec (  0.002 min)
 One electron matrix time                ...   0.005 sec (  0.000 min) =  4.1%
 Schwartz matrix evaluation time         ...   0.090 sec (  0.002 min) = 74.7%
 Two index repulsion integral time       ...   0.001 sec (  0.000 min) =  0.7%
 Cholesky decomposition of V             ...   0.001 sec (  0.000 min) =  0.8%
 Three index repulsion integral time     ...   0.000 sec (  0.000 min) =  0.0%

[1597941994.188963] [comp0810:60022:0]            sys.c:618  UCX  ERROR shmget(size=2097152 flags=0xfb0) for mm_recv_desc failed: Operation not permitted, please check shared memory limits by 'ipcs -l'
[1597941994.193621] [comp0810:60024:0]            sys.c:618  UCX  ERROR shmget(size=2097152 flags=0xfb0) for mm_recv_desc failed: Operation not permitted, please check shared memory limits by 'ipcs -l'
[1597941994.194196] [comp0810:60025:0]            sys.c:618  UCX  ERROR shmget(size=2097152 flags=0xfb0) for mm_recv_desc failed: Operation not permitted, please check shared memory limits by 'ipcs -l'
[1597941994.200078] [comp0810:60023:0]            sys.c:618  UCX  ERROR shmget(size=2097152 flags=0xfb0) for mm_recv_desc failed: Operation not permitted, please check shared memory limits by 'ipcs -l'
[1597941994.206920] [comp0810:60022:0]            sys.c:618  UCX  ERROR shmget(size=2097152 flags=0xb80) for ucp_am_bufs failed: Operation not permitted, please check shared memory limits by 'ipcs -l'
[1597941994.206921] [comp0810:60024:0]            sys.c:618  UCX  ERROR shmget(size=2097152 flags=0xb80) for ucp_am_bufs failed: Operation not permitted, please check shared memory limits by 'ipcs -l'
[1597941994.207334] [comp0810:60025:0]            sys.c:618  UCX  ERROR shmget(size=2097152 flags=0xb80) for ucp_am_bufs failed: Operation not permitted, please check shared memory limits by 'ipcs -l'
[1597941994.207343] [comp0810:60023:0]            sys.c:618  UCX  ERROR shmget(size=2097152 flags=0xb80) for ucp_am_bufs failed: Operation not permitted, please check shared memory limits by 'ipcs -l'


           ************************************************************
           *        Program running with 4 parallel MPI-processes     *
           *              working on a common directory               *
           ************************************************************
-------------------------------------------------------------------------------
                                 ORCA SCF
-------------------------------------------------------------------------------

------------
SCF SETTINGS
------------
Hamiltonian:
 Density Functional     Method          .... DFT(GTOs)
 Exchange Functional    Exchange        .... PBE
   PBE kappa parameter   XKappa         ....  0.804000
   PBE mue parameter    XMuePBE         ....  0.219520
 Correlation Functional Correlation     .... PBE
   PBE beta parameter  CBetaPBE         ....  0.066725
 LDA part of GGA corr.  LDAOpt          .... PW91-LDA
 Gradients option       PostSCFGGA      .... off
 Hybrid DFT is turned on
   Fraction HF Exchange ScalHFX         ....  0.250000
   Scaling of DF-GGA-X  ScalDFX         ....  0.750000
   Scaling of DF-GGA-C  ScalDFC         ....  1.000000
   Scaling of DF-LDA-C  ScalLDAC        ....  1.000000
   Perturbative correction              ....  0.000000
   Density functional embedding theory  .... OFF
   NL short-range parameter             ....  6.900000
 RI-approximation to the Coulomb term is turned on
   Number of auxiliary basis functions  .... 182
   RIJ-COSX (HFX calculated with COS-X)).... on


General Settings:
 Integral files         IntName         .... 3ixBtq_ll_neb_0-2_1-2_hess_orca
 Hartree-Fock type      HFTyp           .... RHF
 Total Charge           Charge          ....   -1
 Multiplicity           Mult            ....    1
 Number of Electrons    NEL             ....   36
 Basis Dimension        Dim             ....   61
 Nuclear Repulsion      ENuc            ....     85.1781226274 Eh

Convergence Acceleration:
 DIIS                   CNVDIIS         .... on
   Start iteration      DIISMaxIt       ....    12
   Startup error        DIISStart       ....  0.200000
   # of expansion vecs  DIISMaxEq       ....     5
   Bias factor          DIISBfac        ....   1.050
   Max. coefficient     DIISMaxC        ....  10.000
 Newton-Raphson         CNVNR           .... off
 SOSCF                  CNVSOSCF        .... on
   Start iteration      SOSCFMaxIt      ....   150
   Startup grad/error   SOSCFStart      ....  0.003300
 Level Shifting         CNVShift        .... on
   Level shift para.    LevelShift      ....    0.2500
   Turn off err/grad.   ShiftErr        ....    0.0010
 Zerner damping         CNVZerner       .... off
 Static damping         CNVDamp         .... on
   Fraction old density DampFac         ....    0.7000
   Max. Damping (<1)    DampMax         ....    0.9800
   Min. Damping (>=0)   DampMin         ....    0.0000
   Turn off err/grad.   DampErr         ....    0.1000
 Fernandez-Rico         CNVRico         .... off

SCF Procedure:
 Maximum # iterations   MaxIter         ....   250
 SCF integral mode      SCFMode         .... Direct
   Integral package                     .... LIBINT
 Reset frequency        DirectResetFreq ....    20
 Integral Threshold     Thresh          ....  1.000e-10 Eh
 Primitive CutOff       TCut            ....  1.000e-11 Eh

Convergence Tolerance:
 Convergence Check Mode ConvCheckMode   .... Total+1el-Energy
 Convergence forced     ConvForced      .... 0
 Energy Change          TolE            ....  1.000e-06 Eh
 1-El. energy change                    ....  1.000e-03 Eh
 Orbital Gradient       TolG            ....  5.000e-05
 Orbital Rotation angle TolX            ....  5.000e-05
 DIIS Error             TolErr          ....  1.000e-06


Diagonalization of the overlap matrix:
Smallest eigenvalue                        ... 1.265e-02
Time for diagonalization                   ...    0.001 sec
Threshold for overlap eigenvalues          ... 1.000e-08
Number of eigenvalues below threshold      ... 0
Time for construction of square roots      ...    0.001 sec
Total time needed                          ...    0.002 sec

-------------------
DFT GRID GENERATION
-------------------

General Integration Accuracy     IntAcc      ...  4.340
Radial Grid Type                 RadialGrid  ... Gauss-Chebyshev
Angular Grid (max. acc.)         AngularGrid ... Lebedev-110
Angular grid pruning method      GridPruning ... 3 (G Style)
Weight generation scheme         WeightScheme... Becke
Basis function cutoff            BFCut       ...    1.0000e-10
Integration weight cutoff        WCut        ...    1.0000e-14
Grids for H and He will be reduced by one unit

# of grid points (after initial pruning)     ...   7622 (   0.0 sec)
# of grid points (after weights+screening)   ...   7438 (   0.0 sec)
nearest neighbour list constructed           ...    0.0 sec
Grid point re-assignment to atoms done       ...    0.0 sec
Grid point division into batches done        ...    0.0 sec
Reduced shell lists constructed in    0.0 sec

Total number of grid points                  ...     7438
Total number of batches                      ...      119
Average number of points per batch           ...       62
Average number of grid points per atom       ...     1240
Average number of shells per batch           ...    19.52 (67.30%)
Average number of basis functions per batch  ...    39.97 (65.52%)
Average number of large shells per batch     ...    16.74 (85.79%)
Average number of large basis fcns per batch ...    34.29 (85.79%)
Maximum spatial batch extension              ...  12.89, 25.60, 19.31 au
Average spatial batch extension              ...   1.14,  1.64,  1.45 au

Time for grid setup =    0.017 sec

------------------------------
INITIAL GUESS: MODEL POTENTIAL
------------------------------
Loading Hartree-Fock densities                     ... done
Calculating cut-offs                               ... done
Setting up the integral package                    ... done
Initializing the effective Hamiltonian             ... done
Starting the Coulomb interaction                   ... done (   0.0 sec)
Reading the grid                                   ... done
Mapping shells                                     ... done
Starting the XC term evaluation                    ... done (   0.1 sec)
  promolecular density results
     # of electrons  =     35.001374532
     EX              =    -43.250219984
     EC              =     -1.236891017
     EX+EC           =    -44.487111001
Transforming the Hamiltonian                       ... done (   0.0 sec)
Diagonalizing the Hamiltonian                      ... done (   0.0 sec)
Back transforming the eigenvectors                 ... done (   0.0 sec)
Now organizing SCF variables                       ... done
                      ------------------
                      INITIAL GUESS DONE (   0.2 sec)
                      ------------------
--------------------
COSX GRID GENERATION
--------------------

General Integration Accuracy     IntAcc      ...  3.340
Radial Grid Type                 RadialGrid  ... Gauss-Chebyshev
Angular Grid (max. acc.)         AngularGrid ... Lebedev-50
Angular grid pruning method      GridPruning ... 3 (G Style)
Weight generation scheme         WeightScheme... Becke
Basis function cutoff            BFCut       ...    1.0000e-10
Integration weight cutoff        WCut        ...    1.0000e-14
Grids for H and He will be reduced by one unit

# of grid points (after initial pruning)     ...   2826 (   0.0 sec)
# of grid points (after weights+screening)   ...   2763 (   0.0 sec)
nearest neighbour list constructed           ...    0.0 sec
Grid point re-assignment to atoms done       ...    0.0 sec
Grid point division into batches done        ...    0.0 sec
Reduced shell lists constructed in    0.0 sec

Total number of grid points                  ...     2763
Total number of batches                      ...       46
Average number of points per batch           ...       60
Average number of grid points per atom       ...      460
Average number of shells per batch           ...    20.62 (71.09%)
Average number of basis functions per batch  ...    42.31 (69.36%)
Average number of large shells per batch     ...    17.85 (86.57%)
Average number of large basis fcns per batch ...    37.23 (88.00%)
Maximum spatial batch extension              ...  15.38, 25.19, 25.19 au
Average spatial batch extension              ...   1.86,  2.50,  2.59 au

Overlap Fitting                  UseSFitting ... on
Constructing numerical overlap ... done (      0.0 sec)
Inverting numerical overlap    ... done (      0.0 sec)
Obtaining analytic overlap     ... done (      0.0 sec)
Final contraction and storage  ... done (      0.0 sec)


General Integration Accuracy     IntAcc      ...  3.670
Radial Grid Type                 RadialGrid  ... Gauss-Chebyshev
Angular Grid (max. acc.)         AngularGrid ... Lebedev-50
Angular grid pruning method      GridPruning ... 3 (G Style)
Weight generation scheme         WeightScheme... Becke
Basis function cutoff            BFCut       ...    1.0000e-10
Integration weight cutoff        WCut        ...    1.0000e-14
Grids for H and He will be reduced by one unit

# of grid points (after initial pruning)     ...   3566 (   0.0 sec)
# of grid points (after weights+screening)   ...   3483 (   0.0 sec)
nearest neighbour list constructed           ...    0.0 sec
Grid point re-assignment to atoms done       ...    0.0 sec
Grid point division into batches done        ...    0.0 sec
Reduced shell lists constructed in    0.0 sec

Total number of grid points                  ...     3483
Total number of batches                      ...       57
Average number of points per batch           ...       61
Average number of grid points per atom       ...      580
Average number of shells per batch           ...    20.62 (71.12%)
Average number of basis functions per batch  ...    43.00 (70.49%)
Average number of large shells per batch     ...    17.44 (84.55%)
Average number of large basis fcns per batch ...    35.94 (83.58%)
Maximum spatial batch extension              ...  16.45, 27.26, 27.31 au
Average spatial batch extension              ...   1.91,  2.46,  2.57 au

Overlap Fitting                  UseSFitting ... on
Constructing numerical overlap ... done (      0.0 sec)
Inverting numerical overlap    ... done (      0.0 sec)
Obtaining analytic overlap     ... done (      0.0 sec)
Final contraction and storage  ... done (      0.0 sec)


General Integration Accuracy     IntAcc      ...  4.010
Radial Grid Type                 RadialGrid  ... Gauss-Chebyshev
Angular Grid (max. acc.)         AngularGrid ... Lebedev-110
Angular grid pruning method      GridPruning ... 3 (G Style)
Weight generation scheme         WeightScheme... Becke
Basis function cutoff            BFCut       ...    1.0000e-10
Integration weight cutoff        WCut        ...    1.0000e-14
Grids for H and He will be reduced by one unit

# of grid points (after initial pruning)     ...   6574 (   0.0 sec)
# of grid points (after weights+screening)   ...   6420 (   0.0 sec)
nearest neighbour list constructed           ...    0.0 sec
Grid point re-assignment to atoms done       ...    0.0 sec
Grid point division into batches done        ...    0.0 sec
Reduced shell lists constructed in    0.0 sec

Total number of grid points                  ...     6420
Total number of batches                      ...      103
Average number of points per batch           ...       62
Average number of grid points per atom       ...     1070
Average number of shells per batch           ...    19.78 (68.20%)
Average number of basis functions per batch  ...    40.52 (66.42%)
Average number of large shells per batch     ...    16.96 (85.77%)
Average number of large basis fcns per batch ...    34.37 (84.83%)
Maximum spatial batch extension              ...  12.33, 24.23, 18.42 au
Average spatial batch extension              ...   1.26,  1.74,  1.53 au

Overlap Fitting                  UseSFitting ... on
Constructing numerical overlap ... done (      0.0 sec)
Inverting numerical overlap    ... done (      0.0 sec)
Obtaining analytic overlap     ... done (      0.0 sec)
Final contraction and storage  ... done (      0.0 sec)

Time for X-Grid setup             =    0.100 sec

--------------------
CPCM SOLVATION MODEL
--------------------
CPCM parameters:
  Epsilon                                         ...      80.4000
  Refrac                                          ...       1.3300
  Rsolv                                           ...       1.3000
  Surface type                                    ...    GEPOL SES
  Epsilon function type                           ...         CPCM
Radii:
 Radius for F  used is    3.2503 Bohr (=   1.7200 Ang.)
 Radius for Cl used is    3.8739 Bohr (=   2.0500 Ang.)
 Radius for C  used is    3.7795 Bohr (=   2.0000 Ang.)
 Radius for H  used is    2.4566 Bohr (=   1.3000 Ang.)
Calculating surface                               ...        done! (  0.0s)
GEPOL surface points                              ...          262
GEPOL Volume                                      ...     529.1033
GEPOL Surface-area                                ...     355.8301
Calculating surface distance matrix               ...        done! (  0.0s)
Performing Cholesky decomposition & store         ...        done! (  0.0s)
Overall time for CPCM initialization              ...                 0.0s
--------------
SCF ITERATIONS
--------------
ITER       Energy         Delta-E        Max-DP      RMS-DP      [F,P]     Damp
               ***  Starting incremental Fock matrix formation  ***
  0   -599.3721992469   0.000000000000 0.08801280  0.00428899  0.3197071 0.7000
  1   -599.4240048449  -0.051805598048 0.05209608  0.00280039  0.1315050 0.7000
                               ***Turning on DIIS***
  2   -599.4445771981  -0.020572353173 0.10439502  0.00479835  0.0380266 0.0000
  3   -599.4792098675  -0.034632669438 0.03632390  0.00177024  0.0747294 0.0000
  4   -599.4851822282  -0.005972360614 0.01031095  0.00050668  0.0110045 0.0000
  5   -599.4854502121  -0.000267983918 0.00260317  0.00017166  0.0049858 0.0000
                      *** Initiating the SOSCF procedure ***
                           *** Shutting down DIIS ***
                      *** Re-Reading the Fockian *** 
                      *** Removing any level shift *** 
ITER      Energy       Delta-E        Grad      Rot      Max-DP    RMS-DP
  6   -599.48548364  -0.0000334269  0.000458  0.000458  0.001293  0.000098
               *** Restarting incremental Fock matrix formation ***
  7   -599.48548940  -0.0000057590  0.000215  0.000821  0.001066  0.000049
                 **** Energy Check signals convergence ****
              ***Rediagonalizing the Fockian in SOSCF/NRSCF***

               *****************************************************
               *                     SUCCESS                       *
               *           SCF CONVERGED AFTER   8 CYCLES          *
               *****************************************************

Setting up the final grid:

General Integration Accuracy     IntAcc      ...  4.670
Radial Grid Type                 RadialGrid  ... Gauss-Chebyshev
Angular Grid (max. acc.)         AngularGrid ... Lebedev-302
Angular grid pruning method      GridPruning ... 3 (G Style)
Weight generation scheme         WeightScheme... Becke
Basis function cutoff            BFCut       ...    1.0000e-10
Integration weight cutoff        WCut        ...    1.0000e-14
Grids for H and He will be reduced by one unit

# of grid points (after initial pruning)     ...  29404 (   0.0 sec)
# of grid points (after weights+screening)   ...  28549 (   0.0 sec)
nearest neighbour list constructed           ...    0.0 sec
Grid point re-assignment to atoms done       ...    0.0 sec
Grid point division into batches done        ...    0.1 sec
Reduced shell lists constructed in    0.1 sec

Total number of grid points                  ...    28549
Total number of batches                      ...      450
Average number of points per batch           ...       63
Average number of grid points per atom       ...     4758
Average number of shells per batch           ...    16.45 (56.72%)
Average number of basis functions per batch  ...    33.61 (55.09%)
Average number of large shells per batch     ...    14.07 (85.55%)
Average number of large basis fcns per batch ...    28.40 (84.52%)
Maximum spatial batch extension              ...  16.09, 19.98, 20.64 au
Average spatial batch extension              ...   1.00,  1.18,  1.20 au

Final grid set up in    0.1 sec
Final integration                            ... done (   0.0 sec)
Change in XC energy                          ...     0.000782282
Integrated number of electrons               ...    35.999984146
Previous integrated no of electrons          ...    36.002321646
Old exchange energy                            =    -11.022967283 Eh
New exchange energy                            =    -11.022411482 Eh
Exchange energy change after final integration =      0.000555801 Eh
Total energy after final integration           =   -599.484150652 Eh
Final COS-X integration done in                =     0.108 sec

----------------
TOTAL SCF ENERGY
----------------

Total Energy       :         -599.48415065 Eh          -16312.79307 eV

Components:
Nuclear Repulsion  :           85.17812263 Eh            2317.81455 eV
Electronic Energy  :         -684.66227328 Eh          -18630.60762 eV
One Electron Energy:        -1007.07408330 Eh          -27403.87899 eV
Two Electron Energy:          322.41181002 Eh            8773.27138 eV
CPCM Dielectric    :           -0.10420635 Eh              -2.83560 eV

Virial components:
Potential Energy   :        -1197.19331007 Eh          -32577.28616 eV
Kinetic Energy     :          597.70915941 Eh           16264.49310 eV
Virial Ratio       :            2.00296966


DFT components:
N(Alpha)           :       17.999992072766 electrons
N(Beta)            :       17.999992072766 electrons
N(Total)           :       35.999984145532 electrons
E(X)               :      -32.921599256690 Eh       
E(C)               :       -1.290727749517 Eh       
E(XC)              :      -34.212327006206 Eh       
DFET-embed. en.    :        0.000000000000 Eh       
CPCM Solvation Model Properties:
Surface-charge          :            0.99131191
Charge-correction       :           -0.00150204 Eh              -0.04087 eV
Free-energy (cav+disp)  :            0.00317920 Eh               0.08651 eV
Corrected G(solv)       :         -599.48247350 Eh          -16312.74743 eV

---------------
SCF CONVERGENCE
---------------

  Last Energy change         ...    6.6351e-07  Tolerance :   1.0000e-06
  Last MAX-Density change    ...    2.2204e-15  Tolerance :   1.0000e-05
  Last RMS-Density change    ...    6.8500e-17  Tolerance :   1.0000e-06
  Last Orbital Gradient      ...    3.3495e-04  Tolerance :   5.0000e-05
  Last Orbital Rotation      ...    5.1885e-04  Tolerance :   5.0000e-05

             **** THE GBW FILE WAS UPDATED (3ixBtq_ll_neb_0-2_1-2_hess_orca.gbw) ****
             **** DENSITY FILE WAS UPDATED (3ixBtq_ll_neb_0-2_1-2_hess_orca.scfp) ****
             **** ENERGY FILE WAS UPDATED (3ixBtq_ll_neb_0-2_1-2_hess_orca.en.tmp) ****
             **** THE GBW FILE WAS UPDATED (3ixBtq_ll_neb_0-2_1-2_hess_orca.gbw) ****
             **** DENSITY FILE WAS UPDATED (3ixBtq_ll_neb_0-2_1-2_hess_orca.scfp) ****
----------------
ORBITAL ENERGIES
----------------

  NO   OCC          E(Eh)            E(eV) 
   0   2.0000    -101.592937     -2764.4844 
   1   2.0000     -24.563194      -668.3985 
   2   2.0000     -10.271429      -279.4998 
   3   2.0000      -9.441854      -256.9259 
   4   2.0000      -7.180981      -195.4044 
   5   2.0000      -7.175300      -195.2498 
   6   2.0000      -7.175295      -195.2497 
   7   2.0000      -0.953930       -25.9578 
   8   2.0000      -0.765411       -20.8279 
   9   2.0000      -0.661339       -17.9959 
  10   2.0000      -0.431806       -11.7500 
  11   2.0000      -0.431502       -11.7418 
  12   2.0000      -0.333467        -9.0741 
  13   2.0000      -0.264762        -7.2045 
  14   2.0000      -0.264730        -7.2037 
  15   2.0000      -0.236962        -6.4481 
  16   2.0000      -0.236776        -6.4430 
  17   2.0000      -0.226728        -6.1696 
  18   0.0000       0.035639         0.9698 
  19   0.0000       0.107132         2.9152 
  20   0.0000       0.168312         4.5800 
  21   0.0000       0.168736         4.5915 
  22   0.0000       0.464398        12.6369 
  23   0.0000       0.464800        12.6479 
  24   0.0000       0.542050        14.7499 
  25   0.0000       0.621980        16.9249 
  26   0.0000       0.706309        19.2196 
  27   0.0000       0.706866        19.2348 
  28   0.0000       0.726027        19.7562 
  29   0.0000       0.738669        20.1002 
  30   0.0000       0.859258        23.3816 
  31   0.0000       0.859459        23.3871 
  32   0.0000       0.875390        23.8206 
  33   0.0000       0.875654        23.8278 
  34   0.0000       0.924737        25.1634 
  35   0.0000       0.940494        25.5922 
  36   0.0000       0.940868        25.6023 
  37   0.0000       1.205402        32.8007 
  38   0.0000       1.205559        32.8049 
  39   0.0000       1.256044        34.1787 
  40   0.0000       1.268953        34.5300 
  41   0.0000       1.382064        37.6079 
  42   0.0000       1.382623        37.6231 
  43   0.0000       1.507820        41.0299 
  44   0.0000       1.674226        45.5580 
  45   0.0000       1.718877        46.7730 
  46   0.0000       1.719401        46.7873 
  47   0.0000       1.965961        53.4965 
  48   0.0000       2.165884        58.9367 
  49   0.0000       2.167051        58.9685 
  50   0.0000       2.247180        61.1489 
  51   0.0000       2.371788        64.5396 
  52   0.0000       2.372949        64.5712 
  53   0.0000       2.909740        79.1780 
  54   0.0000       2.954457        80.3949 
  55   0.0000       2.954957        80.4085 
  56   0.0000       3.274142        89.0939 
  57   0.0000       3.275294        89.1253 
  58   0.0000       3.279884        89.2502 
  59   0.0000       3.280421        89.2648 
  60   0.0000       3.357459        91.3611 

                    ********************************
                    * MULLIKEN POPULATION ANALYSIS *
                    ********************************

-----------------------
MULLIKEN ATOMIC CHARGES
-----------------------
   0 F :   -0.717087
   1 Cl:   -0.561177
   2 C :    0.022719
   3 H :    0.085742
   4 H :    0.084955
   5 H :    0.084848
Sum of atomic charges:   -1.0000000

--------------------------------
MULLIKEN REDUCED ORBITAL CHARGES
--------------------------------
  0 F s       :     3.975489  s :     3.975489
      pz      :     1.985330  p :     5.741171
      px      :     1.770630
      py      :     1.985211
      dz2     :     0.000069  d :     0.000427
      dxz     :     0.000077
      dyz     :     0.000001
      dx2y2   :     0.000205
      dxy     :     0.000076
  1 Cls       :     5.975809  s :     5.975809
      pz      :     3.992280  p :    11.576329
      px      :     3.591981
      py      :     3.992068
      dz2     :     0.001501  d :     0.009039
      dxz     :     0.001522
      dyz     :     0.000017
      dx2y2   :     0.004460
      dxy     :     0.001540
  2 C s       :     3.188624  s :     3.188624
      pz      :     1.060887  p :     2.761602
      px      :     0.637296
      py      :     1.063419
      dz2     :     0.007615  d :     0.027055
      dxz     :     0.001309
      dyz     :     0.006195
      dx2y2   :     0.010520
      dxy     :     0.001416
  3 H s       :     0.888791  s :     0.888791
      pz      :     0.011683  p :     0.025467
      px      :     0.005149
      py      :     0.008635
  4 H s       :     0.889604  s :     0.889604
      pz      :     0.013823  p :     0.025440
      px      :     0.005149
      py      :     0.006468
  5 H s       :     0.889655  s :     0.889655
      pz      :     0.004883  p :     0.025497
      px      :     0.005283
      py      :     0.015330


                     *******************************
                     * LOEWDIN POPULATION ANALYSIS *
                     *******************************

----------------------
LOEWDIN ATOMIC CHARGES
----------------------
   0 F :   -0.682316
   1 Cl:   -0.416089
   2 C :    0.032611
   3 H :    0.022265
   4 H :    0.021754
   5 H :    0.021775

-------------------------------
LOEWDIN REDUCED ORBITAL CHARGES
-------------------------------
  0 F s       :     3.938441  s :     3.938441
      pz      :     1.984598  p :     5.743407
      px      :     1.774327
      py      :     1.984483
      dz2     :     0.000081  d :     0.000468
      dxz     :     0.000074
      dyz     :     0.000001
      dx2y2   :     0.000240
      dxy     :     0.000072
  1 Cls       :     5.898899  s :     5.898899
      pz      :     3.981276  p :    11.508289
      px      :     3.545945
      py      :     3.981068
      dz2     :     0.001602  d :     0.008901
      dxz     :     0.001249
      dyz     :     0.000016
      dx2y2   :     0.004767
      dxy     :     0.001267
  2 C s       :     2.957892  s :     2.957892
      pz      :     1.110060  p :     2.946571
      px      :     0.725781
      py      :     1.110730
      dz2     :     0.018141  d :     0.062927
      dxz     :     0.002667
      dyz     :     0.015445
      dx2y2   :     0.023675
      dxy     :     0.002999
  3 H s       :     0.902838  s :     0.902838
      pz      :     0.035639  p :     0.074896
      px      :     0.013861
      py      :     0.025396
  4 H s       :     0.903183  s :     0.903183
      pz      :     0.042787  p :     0.075064
      px      :     0.013768
      py      :     0.018509
  5 H s       :     0.903177  s :     0.903177
      pz      :     0.013162  p :     0.075048
      px      :     0.014291
      py      :     0.047595


                      *****************************
                      * MAYER POPULATION ANALYSIS *
                      *****************************

  NA   - Mulliken gross atomic population
  ZA   - Total nuclear charge
  QA   - Mulliken gross atomic charge
  VA   - Mayer's total valence
  BVA  - Mayer's bonded valence
  FA   - Mayer's free valence

  ATOM       NA         ZA         QA         VA         BVA        FA
  0 F      9.7171     9.0000    -0.7171     0.4951     0.4951     0.0000
  1 Cl    17.5612    17.0000    -0.5612     0.6822     0.6822     0.0000
  2 C      5.9773     6.0000     0.0227     3.8715     3.8715    -0.0000
  3 H      0.9143     1.0000     0.0857     1.0098     1.0098    -0.0000
  4 H      0.9150     1.0000     0.0850     1.0102     1.0102    -0.0000
  5 H      0.9152     1.0000     0.0848     1.0109     1.0109    -0.0000

  Mayer bond orders larger than 0.100000
B(  0-F ,  2-C ) :   0.3485 B(  1-Cl,  2-C ) :   0.5790 B(  2-C ,  3-H ) :   0.9812 
B(  2-C ,  4-H ) :   0.9815 B(  2-C ,  5-H ) :   0.9813 


------------------
HIRSHFELD ANALYSIS
------------------

Total integrated alpha density =     18.001160824
Total integrated beta density  =     18.001160824

  ATOM     CHARGE      SPIN    
   0 F   -0.655276    0.000000
   1 Cl  -0.473645    0.000000
   2 C    0.007755    0.000000
   3 H    0.039964    0.000000
   4 H    0.039508    0.000000
   5 H    0.039372    0.000000

  TOTAL  -1.002322    0.000000

-------
TIMINGS
-------

Total SCF time: 0 days 0 hours 0 min 3 sec 

Total time                  ....       3.488 sec
Sum of individual times     ....       3.382 sec  ( 97.0%)

Fock matrix formation       ....       2.972 sec  ( 85.2%)
  Split-RI-J                ....       0.766 sec  ( 25.8% of F)
  Chain of spheres X        ....       0.687 sec  ( 23.1% of F)
  COS-X 1 center corr.      ....       0.000 sec  (  0.0% of F)
  XC integration            ....       0.116 sec  (  3.9% of F)
    Basis function eval.    ....       0.043 sec  ( 37.3% of XC)
    Density eval.           ....       0.017 sec  ( 14.8% of XC)
    XC-Functional eval.     ....       0.019 sec  ( 16.7% of XC)
    XC-Potential eval.      ....       0.020 sec  ( 17.4% of XC)
Diagonalization             ....       0.004 sec  (  0.1%)
Density matrix formation    ....       0.001 sec  (  0.0%)
Population analysis         ....       0.009 sec  (  0.3%)
Initial guess               ....       0.146 sec  (  4.2%)
Orbital Transformation      ....       0.000 sec  (  0.0%)
Orbital Orthonormalization  ....       0.000 sec  (  0.0%)
DIIS solution               ....       0.002 sec  (  0.0%)
SOSCF solution              ....       0.001 sec  (  0.0%)
Grid generation             ....       0.248 sec  (  7.1%)


-------------------------------------------------------------------------------
                          DFT DISPERSION CORRECTION                            
                                                                               
                              DFTD3 V3.1  Rev 1                                
                          USING Becke-Johnson damping                          
-------------------------------------------------------------------------------
The PBE0 functional is recognized
Active option DFTDOPT                   ...         4   

molecular C6(AA) [au] = 486.142875 


            DFT-D V3
 parameters
 s6 scaling factor         :     1.0000 
 a1 scaling factor         :     0.4145 
 s8 scaling factor         :     1.2177 
 a2 scaling factor         :     4.8593 
 ad hoc parameters k1-k3   :    16.0000     1.3333    -4.0000 

 Edisp/kcal,au: -1.503658412669  -0.002396231953 
 E6   /kcal   :  -0.950285831 
 E8   /kcal   :  -0.553372582 
 % E8         :  36.801748124 

-------------------------   ----------------
Dispersion correction           -0.002396232
-------------------------   ----------------


-------------------------   --------------------
FINAL SINGLE POINT ENERGY      -599.486546883823
-------------------------   --------------------


                            ***************************************
                            *     ORCA property calculations      *
                            ***************************************

                                    ---------------------
                                    Active property flags
                                    ---------------------
   (+) Dipole Moment


------------------------------------------------------------------------------
                       ORCA ELECTRIC PROPERTIES CALCULATION
------------------------------------------------------------------------------

Dipole Moment Calculation                       ... on
Quadrupole Moment Calculation                   ... off
Polarizability Calculation                      ... off
GBWName                                         ... 3ixBtq_ll_neb_0-2_1-2_hess_orca.gbw
Electron density file                           ... 3ixBtq_ll_neb_0-2_1-2_hess_orca.scfp
The origin for moment calculation is the CENTER OF MASS  = (-0.039130,  0.008535  0.005572)

-------------
DIPOLE MOMENT
-------------
                                X             Y             Z
Electronic contribution:      3.07458       0.06993      -0.02842
Nuclear contribution   :     -1.59326      -0.03929       0.00350
                        -----------------------------------------
Total Dipole Moment    :      1.48132       0.03064      -0.02492
                        -----------------------------------------
Magnitude (a.u.)       :      1.48185
Magnitude (Debye)      :      3.76656



--------------------
Rotational spectrum 
--------------------
 
Rotational constants in cm-1:     4.921223     0.074261     0.074261 
Rotational constants in MHz : 147534.543984  2226.303490  2226.280049 

 Dipole components along the rotational axes: 
x,y,z [a.u.] :     1.481832     0.004429     0.005202 
x,y,z [Debye]:     3.766517     0.011257     0.013222 

 
[1597941998.626344] [comp0810:60045:0]            sys.c:618  UCX  ERROR shmget(size=2097152 flags=0xfb0) for mm_recv_desc failed: Operation not permitted, please check shared memory limits by 'ipcs -l'
[1597941998.631554] [comp0810:60043:0]            sys.c:618  UCX  ERROR shmget(size=2097152 flags=0xfb0) for mm_recv_desc failed: Operation not permitted, please check shared memory limits by 'ipcs -l'
[1597941998.631798] [comp0810:60044:0]            sys.c:618  UCX  ERROR shmget(size=2097152 flags=0xfb0) for mm_recv_desc failed: Operation not permitted, please check shared memory limits by 'ipcs -l'
[1597941998.638019] [comp0810:60046:0]            sys.c:618  UCX  ERROR shmget(size=2097152 flags=0xfb0) for mm_recv_desc failed: Operation not permitted, please check shared memory limits by 'ipcs -l'
[1597941998.645119] [comp0810:60045:0]            sys.c:618  UCX  ERROR shmget(size=2097152 flags=0xb80) for ucp_am_bufs failed: Operation not permitted, please check shared memory limits by 'ipcs -l'
[1597941998.645109] [comp0810:60043:0]            sys.c:618  UCX  ERROR shmget(size=2097152 flags=0xb80) for ucp_am_bufs failed: Operation not permitted, please check shared memory limits by 'ipcs -l'


           ************************************************************
           *        Program running with 4 parallel MPI-processes     *
           *              working on a common directory               *
           ************************************************************
[1597941998.660098] [comp0810:60044:0]            sys.c:618  UCX  ERROR shmget(size=2097152 flags=0xb80) for ucp_am_bufs failed: Operation not permitted, please check shared memory limits by 'ipcs -l'

-------------------------------------------------------------------------------
                               ORCA SCF HESSIAN
-------------------------------------------------------------------------------

Hessian of the Kohn-Sham DFT energy:
Kohn-Sham wavefunction type                      ... RKS
Hartree-Fock exchange scaling                    ...    0.250
Number of operators                              ...    1
Number of atoms                                  ...    6
Basis set dimensions                             ...   61
Integral neglect threshold                       ... 1.0e-10
Integral primitive cutoff                        ... 1.0e-11

Setting up DFT Hessian calculations              ... 
Electron density on the grid                     ... found on disk
Electron density on the final grid               ... found on disk
Building xc-kernel on the grid                   ... done   (      0.0 sec)
Building xc-kernel on the final grid             ... [1597941998.682036] [comp0810:60046:0]            sys.c:618  UCX  ERROR shmget(size=2097152 flags=0xb80) for ucp_am_bufs failed: Operation not permitted, please check shared memory limits by 'ipcs -l'
done   (      0.0 sec)
                                                     done   (      0.0 sec)

Nuclear repulsion Hessian                        ... done   (      0.0 sec)

----------------------------------------------
Forming right-hand sides of CP-SCF equations     ...
----------------------------------------------
One electron integral derivatives                ... done   (      0.6 sec)
Transforming the overlap derivative matrices     ... done   (      0.0 sec)
Adding tr(S(x)F(y) C-PCM term to the hessian     ... done   (      0.2 sec)
Making the Q(x) pseudodensities                  ... done   (      0.0 sec)
Adding the E*S(x)*S(y) terms to the Hessian      ... done   (      0.0 sec)
Calculating energy weighted overlap derivatives  ... done   (      0.0 sec)
Two electron integral derivatives (RI)           ... done   (      0.3 sec)
Exchange-correlation integral derivatives        ... done   (      0.6 sec)
tr(F(y)Q(x)) contribution to the Hessian         ... done   (      0.0 sec)
Response fock operator R(S(x)) (RIJCOSX)         ... done   (      0.4 sec)
XC Response fock operator R(S(x))                ... done   (      0.2 sec)
tr(F(y)S(x)) contribution to the Hessian         ... done   (      0.0 sec)
Transforming and finalizing RHSs                 ... done   (      0.0 sec)

----------------------------------------------
Solving the CP-SCF equations (RIJCOSX)           ...
----------------------------------------------
     CP-SCF ITERATION   0: 
     CP-SCF ITERATION   1:      0.000472798942
     CP-SCF ITERATION   2:      0.000083977593
     CP-SCF ITERATION   3:      0.000006024945
     CP-SCF ITERATION   4:      0.000000808669

                                                 ... done   (      2.1 sec)
Forming perturbed density Hessian contributions  ... done   (      0.0 sec)
Calculating [Q*(d^2 A/dXdY)*Q  ] C-PCM term      ... done   (      0.0 sec)
Calculating [d^2(V_N)/(dXdY)*Q ] C-PCM term      ... done   (      0.0 sec)
Calculating [d^2(V_el)/(dXdY)*Q] C-PCM term      ... done   (      0.1 sec)
Calculating C-PCM term that depends on dQ/dX     ... done   (      0.0 sec)
2nd integral derivative contribs (RI)            ... done   (      1.0 sec)
Exchange-correlation Hessian                     ... done   (      0.8 sec)
Dispersion correction in the Hessian             ... done   (      0.4 sec)
Dipol derivatives                                ... done   (      0.1 sec)

Total SCF Hessian time: 0 days 0 hours 0 min 7 sec 

Writing the Hessian file to the disk             ... done


Maximum memory used throughout the entire calculation: 132.2 MB

-----------------------
VIBRATIONAL FREQUENCIES
-----------------------

Scaling factor for frequencies =  1.000000000  (already applied!)

   0:         0.00 cm**-1
   1:         0.00 cm**-1
   2:         0.00 cm**-1
   3:         0.00 cm**-1
   4:         0.00 cm**-1
   5:         0.00 cm**-1
   6:      -523.13 cm**-1 ***imaginary mode***
   7:       215.45 cm**-1
   8:       223.16 cm**-1
   9:       269.48 cm**-1
  10:       826.24 cm**-1
  11:       826.85 cm**-1
  12:       978.05 cm**-1
  13:      1306.17 cm**-1
  14:      1308.64 cm**-1
  15:      3291.93 cm**-1
  16:      3515.53 cm**-1
  17:      3519.80 cm**-1


------------
NORMAL MODES
------------

These modes are the Cartesian displacements weighted by the diagonal matrix
M(i,i)=1/sqrt(m[i]) where m[i] is the mass of the displaced atom
Thus, these vectors are normalized but *not* orthogonal

                  0          1          2          3          4          5    
      0       0.000000   0.000000   0.000000   0.000000   0.000000   0.000000
      1       0.000000   0.000000   0.000000   0.000000   0.000000   0.000000
      2       0.000000   0.000000   0.000000   0.000000   0.000000   0.000000
      3       0.000000   0.000000   0.000000   0.000000   0.000000   0.000000
      4       0.000000   0.000000   0.000000   0.000000   0.000000   0.000000
      5       0.000000   0.000000   0.000000   0.000000   0.000000   0.000000
      6       0.000000   0.000000   0.000000   0.000000   0.000000   0.000000
      7       0.000000   0.000000   0.000000   0.000000   0.000000   0.000000
      8       0.000000   0.000000   0.000000   0.000000   0.000000   0.000000
      9       0.000000   0.000000   0.000000   0.000000   0.000000   0.000000
     10       0.000000   0.000000   0.000000   0.000000   0.000000   0.000000
     11       0.000000   0.000000   0.000000   0.000000   0.000000   0.000000
     12       0.000000   0.000000   0.000000   0.000000   0.000000   0.000000
     13       0.000000   0.000000   0.000000   0.000000   0.000000   0.000000
     14       0.000000   0.000000   0.000000   0.000000   0.000000   0.000000
     15       0.000000   0.000000   0.000000   0.000000   0.000000   0.000000
     16       0.000000   0.000000   0.000000   0.000000   0.000000   0.000000
     17       0.000000   0.000000   0.000000   0.000000   0.000000   0.000000
                  6          7          8          9         10         11    
      0      -0.257657   0.008159   0.004718  -0.835825  -0.000325   0.000156
      1      -0.005229  -0.081899  -0.172671  -0.022736  -0.003529  -0.005060
      2       0.005410   0.172626  -0.082134   0.013033  -0.004912   0.003633
      3      -0.143033   0.000117  -0.000373   0.505761  -0.000334  -0.000397
      4      -0.003258  -0.039948  -0.084027   0.008823   0.008297   0.011587
      5       0.001905   0.084004  -0.039888  -0.004943   0.011663  -0.008256
      6       0.877011  -0.010909  -0.004732  -0.149522   0.001523   0.001024
      7       0.019046   0.195084   0.410598   0.007390  -0.027427  -0.038122
      8      -0.013898  -0.410295   0.195127  -0.004628  -0.038504   0.027197
      9      -0.172837   0.067027  -0.148471  -0.086888  -0.810818  -0.014297
     10       0.060910   0.204142   0.428294   0.002230   0.008595   0.058731
     11       0.087869  -0.435154   0.215315  -0.015569   0.046537  -0.042718
     12      -0.199774  -0.168299  -0.000410  -0.087436   0.416695  -0.695563
     13       0.040417   0.210935   0.448994   0.005527   0.056297   0.033198
     14      -0.103636  -0.434011   0.212233   0.006090   0.039833  -0.011451
     15      -0.190747   0.073370   0.129468  -0.079479   0.393852   0.708678
     16      -0.115126   0.208991   0.439900   0.022396   0.036612   0.050157
     17       0.012392  -0.449983   0.198307  -0.007161   0.054825  -0.048008
                 12         13         14         15         16         17    
      0      -0.040292   0.000024  -0.000032   0.000438   0.000001  -0.000009
      1      -0.000799   0.000447   0.000730  -0.000017   0.000319   0.000584
      2       0.000647   0.000821  -0.000465   0.000003   0.000569  -0.000377
      3      -0.027588  -0.000022  -0.000011  -0.000171  -0.000012  -0.000013
      4      -0.000632  -0.000066  -0.000091  -0.000016   0.000174   0.000316
      5       0.000291  -0.000045   0.000057   0.000009   0.000307  -0.000202
      6       0.000835  -0.000086   0.002327   0.015150   0.000196   0.002644
      7       0.000128  -0.049431  -0.074825   0.001195  -0.054103  -0.087430
      8       0.000077  -0.075115   0.049378   0.000210  -0.087374   0.054305
      9       0.573691   0.108899  -0.013938  -0.060448   0.088324   0.007088
     10      -0.023848  -0.088458   0.639805  -0.346121   0.477206   0.031528
     11      -0.056395  -0.053726  -0.478737  -0.466324   0.641571   0.054198
     12       0.575692  -0.068711   0.084615  -0.049080  -0.042710   0.061142
     13      -0.012942   0.634918   0.369486  -0.230216  -0.191516   0.262281
     14       0.048220   0.220826   0.247142   0.526466   0.423294  -0.608272
     15       0.570383  -0.038864  -0.097425  -0.073224  -0.047530  -0.099088
     16       0.072539   0.036444  -0.128262   0.562981   0.346858   0.725855
     17      -0.015162   0.714072  -0.350030  -0.063026  -0.045261  -0.078796


-----------
IR SPECTRUM
-----------

 Mode    freq (cm**-1)   T**2         TX         TY         TZ
-------------------------------------------------------------------
   7:       215.45   27.183009  ( -0.247589   2.219208  -4.711350)
   8:       223.16   27.813693  ( -0.022315   4.749140   2.293221)
   9:       269.48    1.670487  (  1.288541   0.086238  -0.052087)
  10:       826.24    1.234903  (  0.133460   0.653876   0.888559)
  11:       826.85    1.325575  ( -0.074578   0.936108  -0.666120)
  12:       978.05    5.684535  ( -2.383259  -0.055330   0.039359)
  13:      1306.17   10.919976  ( -0.010672   1.866253   2.727079)
  14:      1308.64   10.535401  ( -0.032629   2.750387  -1.723284)
  15:      3291.93    0.336312  (  0.579142   0.029412  -0.006481)
  16:      3515.53    0.758174  ( -0.037816   0.467468   0.733633)
  17:      3519.80    0.866116  (  0.038705   0.799968  -0.473994)

The first frequency considered to be a vibration is 7
The total number of vibrations considered is 11


--------------------------
THERMOCHEMISTRY AT 298.15K
--------------------------

Temperature         ... 298.15 K
Pressure            ... 1.00 atm
Total Mass          ... 69.49 AMU

Throughout the following assumptions are being made:
  (1) The electronic state is orbitally nondegenerate
  (2) There are no thermally accessible electronically excited states
  (3) Hindered rotations indicated by low frequency modes are not
      treated as such but are treated as vibrations and this may
      cause some error
  (4) All equations used are the standard statistical mechanics
      equations for an ideal gas
  (5) All vibrations are strictly harmonic

freq.     215.45  E(vib)   ...       0.34 
freq.     223.16  E(vib)   ...       0.33 
freq.     269.48  E(vib)   ...       0.29 
freq.     826.24  E(vib)   ...       0.04 
freq.     826.85  E(vib)   ...       0.04 
freq.     978.05  E(vib)   ...       0.03 
freq.    1306.17  E(vib)   ...       0.01 
freq.    1308.64  E(vib)   ...       0.01 
freq.    3291.93  E(vib)   ...       0.00 
freq.    3515.53  E(vib)   ...       0.00 
freq.    3519.80  E(vib)   ...       0.00 

------------
INNER ENERGY
------------

The inner energy is: U= E(el) + E(ZPE) + E(vib) + E(rot) + E(trans)
    E(el)   - is the total energy from the electronic structure calculation
              = E(kin-el) + E(nuc-el) + E(el-el) + E(nuc-nuc)
    E(ZPE)  - the the zero temperature vibrational energy from the frequency calculation
    E(vib)  - the the finite temperature correction to E(ZPE) due to population
              of excited vibrational states
    E(rot)  - is the rotational thermal energy
    E(trans)- is the translational thermal energy

Summary of contributions to the inner energy U:
Electronic energy                ...   -599.48654688 Eh
Zero point energy                ...      0.03709154 Eh      23.28 kcal/mol
Thermal vibrational correction   ...      0.00172602 Eh       1.08 kcal/mol
Thermal rotational correction    ...      0.00141627 Eh       0.89 kcal/mol
Thermal translational correction ...      0.00141627 Eh       0.89 kcal/mol
-----------------------------------------------------------------------
Total thermal energy                   -599.44489678 Eh


Summary of corrections to the electronic energy:
(perhaps to be used in another calculation)
Total thermal correction                  0.00455856 Eh       2.86 kcal/mol
Non-thermal (ZPE) correction              0.03709154 Eh      23.28 kcal/mol
-----------------------------------------------------------------------
Total correction                          0.04165010 Eh      26.14 kcal/mol


--------
ENTHALPY
--------

The enthalpy is H = U + kB*T
                kB is Boltzmann's constant
Total free energy                 ...   -599.44489678 Eh 
Thermal Enthalpy correction       ...      0.00094421 Eh       0.59 kcal/mol
-----------------------------------------------------------------------
Total Enthalpy                    ...   -599.44395257 Eh


Note: Only C1 symmetry has been detected, increase convergence thresholds 
      if your molecule has a higher symmetry. Symmetry factor of 1.0 is   
      used for the rotational entropy correction. 
 

Note: Rotational entropy computed according to Herzberg 
Infrared and Raman Spectra, Chapter V,1, Van Nostrand Reinhold, 1945 
Point Group:  C1, Symmetry Number:   1  
Rotational constants in cm-1:     4.921223     0.074261     0.074261 

Vibrational entropy computed according to the QRRHO of S. Grimme
Chem.Eur.J. 2012 18 9955


-------
ENTROPY
-------

The entropy contributions are T*S = T*(S(el)+S(vib)+S(rot)+S(trans))
     S(el)   - electronic entropy
     S(vib)  - vibrational entropy
     S(rot)  - rotational entropy
     S(trans)- translational entropy
The entropies will be listed as mutliplied by the temperature to get
units of energy

Electronic entropy                ...      0.00000000 Eh      0.00 kcal/mol
Vibrational entropy               ...      0.00288551 Eh      1.81 kcal/mol
Rotational entropy                ...      0.01121354 Eh      7.04 kcal/mol
Translational entropy             ...      0.01835566 Eh     11.52 kcal/mol
-----------------------------------------------------------------------
Final entropy term                ...      0.03245471 Eh     20.37 kcal/mol

In case the symmetry of your molecule has not been determined correctly
or in case you have a reason to use a different symmetry number we print 
out the resulting rotational entropy values for sn=1,12 :
 --------------------------------------------------------
|  sn= 1 | S(rot)=       0.01121354 Eh      7.04 kcal/mol|
|  sn= 2 | S(rot)=       0.01055908 Eh      6.63 kcal/mol|
|  sn= 3 | S(rot)=       0.01017625 Eh      6.39 kcal/mol|
|  sn= 4 | S(rot)=       0.00990462 Eh      6.22 kcal/mol|
|  sn= 5 | S(rot)=       0.00969394 Eh      6.08 kcal/mol|
|  sn= 6 | S(rot)=       0.00952179 Eh      5.98 kcal/mol|
|  sn= 7 | S(rot)=       0.00937624 Eh      5.88 kcal/mol|
|  sn= 8 | S(rot)=       0.00925017 Eh      5.80 kcal/mol|
|  sn= 9 | S(rot)=       0.00913896 Eh      5.73 kcal/mol|
|  sn=10 | S(rot)=       0.00903948 Eh      5.67 kcal/mol|
|  sn=11 | S(rot)=       0.00894949 Eh      5.62 kcal/mol|
|  sn=12 | S(rot)=       0.00886733 Eh      5.56 kcal/mol|
 --------------------------------------------------------


-------------------
GIBBS FREE ENERGY
-------------------

The Gibbs free energy is G = H - T*S

Total enthalpy                    ...   -599.44395257 Eh 
Total entropy correction          ...     -0.03245471 Eh    -20.37 kcal/mol
-----------------------------------------------------------------------
Final Gibbs free energy         ...   -599.47640728 Eh

For completeness - the Gibbs free energy minus the electronic energy
G-E(el)                           ...      0.01013960 Eh      6.36 kcal/mol

[1597942006.603435] [comp0810:60071:0]            sys.c:618  UCX  ERROR shmget(size=2097152 flags=0xfb0) for mm_recv_desc failed: Operation not permitted, please check shared memory limits by 'ipcs -l'
[1597942006.604183] [comp0810:60069:0]            sys.c:618  UCX  ERROR shmget(size=2097152 flags=0xfb0) for mm_recv_desc failed: Operation not permitted, please check shared memory limits by 'ipcs -l'
[1597942006.610456] [comp0810:60070:0]            sys.c:618  UCX  ERROR shmget(size=2097152 flags=0xfb0) for mm_recv_desc failed: Operation not permitted, please check shared memory limits by 'ipcs -l'
[1597942006.610439] [comp0810:60072:0]            sys.c:618  UCX  ERROR shmget(size=2097152 flags=0xfb0) for mm_recv_desc failed: Operation not permitted, please check shared memory limits by 'ipcs -l'
[1597942006.619627] [comp0810:60069:0]            sys.c:618  UCX  ERROR shmget(size=2097152 flags=0xb80) for ucp_am_bufs failed: Operation not permitted, please check shared memory limits by 'ipcs -l'
[1597942006.620075] [comp0810:60072:0]            sys.c:618  UCX  ERROR shmget(size=2097152 flags=0xb80) for ucp_am_bufs failed: Operation not permitted, please check shared memory limits by 'ipcs -l'
[1597942006.624780] [comp0810:60071:0]            sys.c:618  UCX  ERROR shmget(size=2097152 flags=0xb80) for ucp_am_bufs failed: Operation not permitted, please check shared memory limits by 'ipcs -l'
[1597942006.624240] [comp0810:60070:0]            sys.c:618  UCX  ERROR shmget(size=2097152 flags=0xb80) for ucp_am_bufs failed: Operation not permitted, please check shared memory limits by 'ipcs -l'

Timings for individual modules:

Sum of individual times         ...       13.198 sec (=   0.220 min)
GTO integral calculation        ...        0.940 sec (=   0.016 min)   7.1 %
SCF iterations                  ...        4.285 sec (=   0.071 min)  32.5 %
Analytical frequency calculation...        7.974 sec (=   0.133 min)  60.4 %
                             ****ORCA TERMINATED NORMALLY****
TOTAL RUN TIME: 0 days 0 hours 0 minutes 14 seconds 186 msec
