
                                 *****************
                                 * O   R   C   A *
                                 *****************

           --- An Ab Initio, DFT and Semiempirical electronic structure package ---

                  #######################################################
                  #                        -***-                        #
                  #          Department of theory and spectroscopy      #
                  #               Directorship: Frank Neese             #
                  #        Max Planck Institute fuer Kohlenforschung    #
                  #                Kaiser Wilhelm Platz 1               #
                  #                 D-45470 Muelheim/Ruhr               #
                  #                      Germany                        #
                  #                                                     #
                  #                  All rights reserved                #
                  #                        -***-                        #
                  #######################################################


                         Program Version 4.2.1 -  RELEASE  -


 With contributions from (in alphabetic order):
   Daniel Aravena         : Magnetic Suceptibility
   Michael Atanasov       : Ab Initio Ligand Field Theory (pilot matlab implementation)
   Alexander A. Auer      : GIAO ZORA, VPT2
   Ute Becker             : Parallelization
   Giovanni Bistoni       : ED, misc. LED, open-shell LED, HFLD
   Martin Brehm           : Molecular dynamics
   Dmytro Bykov           : SCF Hessian
   Vijay G. Chilkuri      : MRCI spin determinant printing, contributions to CSF-ICE
   Dipayan Datta          : RHF DLPNO-CCSD density
   Achintya Kumar Dutta   : EOM-CC, STEOM-CC
   Dmitry Ganyushin       : Spin-Orbit,Spin-Spin,Magnetic field MRCI
   Miquel Garcia          : C-PCM Hessian, Gaussian charge scheme
   Yang Guo               : DLPNO-NEVPT2, CIM, IAO-localization
   Andreas Hansen         : Spin unrestricted coupled pair/coupled cluster methods
   Benjamin Helmich-Paris : CASSCF linear response (MC-RPA)
   Lee Huntington         : MR-EOM, pCC
   Robert Izsak           : Overlap fitted RIJCOSX, COSX-SCS-MP3, EOM
   Christian Kollmar      : KDIIS, OOCD, Brueckner-CCSD(T), CCSD density
   Simone Kossmann        : Meta GGA functionals, TD-DFT gradient, OOMP2, MP2 Hessian
   Martin Krupicka        : AUTO-CI
   Lucas Lang             : DCDCAS
   Dagmar Lenk            : GEPOL surface, SMD
   Dimitrios Liakos       : Extrapolation schemes; Compound Job, initial MDCI parallelization
   Dimitrios Manganas     : Further ROCIS development; embedding schemes
   Dimitrios Pantazis     : SARC Basis sets
   Taras Petrenko         : DFT Hessian,TD-DFT gradient, ASA, ECA, R-Raman, ABS, FL, XAS/XES, NRVS
   Peter Pinski           : DLPNO-MP2, DLPNO-MP2 Gradient
   Christoph Reimann      : Effective Core Potentials
   Marius Retegan         : Local ZFS, SOC
   Christoph Riplinger    : Optimizer, TS searches, QM/MM, DLPNO-CCSD(T), (RO)-DLPNO pert. Triples
   Tobias Risthaus        : Range-separated hybrids, TD-DFT gradient, RPA, STAB
   Michael Roemelt        : Original ROCIS implementation
   Masaaki Saitow         : Open-shell DLPNO-CCSD energy and density
   Barbara Sandhoefer     : DKH picture change effects
   Avijit Sen             : IP-ROCIS
   Kantharuban Sivalingam : CASSCF convergence, NEVPT2, FIC-MRCI
   Bernardo de Souza      : ESD, SOC TD-DFT
   Georgi Stoychev        : AutoAux, RI-MP2 NMR
   Willem Van den Heuvel  : Paramagnetic NMR
   Boris Wezisla          : Elementary symmetry handling
   Frank Wennmohs         : Technical directorship


 We gratefully acknowledge several colleagues who have allowed us to
 interface, adapt or use parts of their codes:
   Stefan Grimme, W. Hujo, H. Kruse,             : VdW corrections, initial TS optimization,
                  C. Bannwarth                     DFT functionals, gCP, sTDA/sTD-DF
   Ed Valeev, F. Pavosevic, A. Kumar             : LibInt (2-el integral package), F12 methods
   Garnet Chan, S. Sharma, J. Yang, R. Olivares  : DMRG
   Ulf Ekstrom                                   : XCFun DFT Library
   Mihaly Kallay                                 : mrcc  (arbitrary order and MRCC methods)
   Andreas Klamt, Michael Diedenhofen            : otool_cosmo (COSMO solvation model)
   Jiri Pittner, Ondrej Demel                    : Mk-CCSD
   Frank Weinhold                                : gennbo (NPA and NBO analysis)
   Christopher J. Cramer and Donald G. Truhlar   : smd solvation model
   Lars Goerigk                                  : TD-DFT with DH, B97 family of functionals
   V. Asgeirsson, H. Jonsson                     : NEB implementation
   FAccTs GmbH                                   : IRC, NEB, NEB-TS, Multilevel, MM, QM/MM, CI optimization
   S Lehtola, MJT Oliveira, MAL Marques          : LibXC Library


 Your calculation uses the libint2 library for the computation of 2-el integrals
 For citations please refer to: http://libint.valeyev.net

 Your ORCA version has been built with support for libXC version: 4.2.3
 For citations please refer to: https://tddft.org/programs/libxc/

 This ORCA versions uses:
   CBLAS   interface :  Fast vector & matrix operations
   LAPACKE interface :  Fast linear algebra routines
   SCALAPACK package :  Parallel linear algebra routines


Your calculation utilizes the atom-pairwise dispersion correction
with the Becke-Johnson damping scheme (D3BJ)
Cite in your paper:
S.Grimme, S.Ehrlich, L.Goerigk, J Comput Chem, (2011), 32, 1456–1465 
S.Grimme, J.Antony, S.Ehrlich and H.Krieg, J.Chem.Phys., 132, (2010), 154104 
   

----- Orbital basis set information -----
Your calculation utilizes the basis: def2-SVP
   F. Weigend and R. Ahlrichs, Phys. Chem. Chem. Phys. 7, 3297 (2005).

----- AuxJ basis set information -----
Your calculation utilizes the auxiliary basis: def2/J
   F. Weigend, Phys. Chem. Chem. Phys. 8, 1057 (2006).

================================================================================
                                        WARNINGS
                       Please study these warnings very carefully!
================================================================================


WARNING: your system is open-shell and RHF/RKS was chosen
  ===> : WILL SWITCH to UHF/UKS


WARNING: Geometry Optimization
  ===> : Switching off AutoStart
         For restart on a previous wavefunction, please use MOREAD

INFO   : the flag for use of LIBINT has been found!

================================================================================
                                       INPUT FILE
================================================================================
NAME = m-mfaV_2-6_hl1d_fbond_scan_4_orca.inp
|  1> ! LooseOpt PBE RI D3BJ def2-SVP def2/J CPCM(Water)
|  2> %cpcm
|  3>  surfacetype vdw_gaussian
|  4> end
|  5> %geom Constraints
|  6> { B 2 6 1.7872432992239333 C }
|  7>     end
|  8> end
|  9> %geom MaxIter 100 end
| 10> %pal nprocs 4
| 11> end
| 12> %output 
| 13> xyzfile=True 
| 14> end 
| 15> %scf 
| 16> maxiter 250 
| 17> end
| 18> %output
| 19> Print[P_Hirshfeld] = 1
| 20> end
| 21> % maxcore
| 22> 4000
| 23> *xyz 0 2
| 24> C   -1.19717083   0.11487549   0.01590765 
| 25> C    0.19449437  -0.49170454   0.15332699 
| 26> C    1.32820950   0.31625626  -0.30227235 
| 27> H   -1.23525760   1.13329114   0.45413551 
| 28> H   -1.96236452  -0.50248084   0.52694325 
| 29> H   -1.48553398   0.20097503  -1.05240448 
| 30> H    0.53997152  -0.52116775   1.19408626 
| 31> H    0.23411916  -1.53779228  -0.22147571 
| 32> H    1.24877756   1.41302843  -0.39138295 
| 33> H    2.33465483  -0.12538095  -0.37686417 
| 34> *
| 35> 
| 36>                          ****END OF INPUT****
================================================================================

                       *****************************
                       * Geometry Optimization Run *
                       *****************************

Geometry optimization settings:
Update method            Update   .... BFGS
Choice of coordinates    CoordSys .... Z-matrix Internals
Initial Hessian          InHess   .... Almoef's Model

Convergence Tolerances:
Energy Change            TolE     ....  3.0000e-05 Eh
Max. Gradient            TolMAXG  ....  2.0000e-03 Eh/bohr
RMS Gradient             TolRMSG  ....  5.0000e-04 Eh/bohr
Max. Displacement        TolMAXD  ....  1.0000e-02 bohr
RMS Displacement         TolRMSD  ....  7.0000e-03 bohr
Strict Convergence                ....  False
------------------------------------------------------------------------------
                        ORCA OPTIMIZATION COORDINATE SETUP
------------------------------------------------------------------------------

The optimization will be done in new redundant internal coordinates
Making redundant internal coordinates   ...  (new redundants) done
Evaluating the initial hessian          ...  (Almloef) done
Evaluating the coordinates              ...  done
Calculating the B-matrix                .... done
Calculating the G-matrix                .... done
Diagonalizing the G-matrix              .... done
Imposing constraints:
 Iter   0:  RMS(Cart)=    0.0240725630 RMS(Int)=    0.0592906084
 Iter   1:  RMS(Cart)=    0.0075528260 RMS(Int)=    0.0186241967
 Iter   2:  RMS(Cart)=    0.0023724721 RMS(Int)=    0.0058524264
 Iter   3:  RMS(Cart)=    0.0007455204 RMS(Int)=    0.0018392791
 Iter   4:  RMS(Cart)=    0.0002342994 RMS(Int)=    0.0005780643
 Iter   5:  RMS(Cart)=    0.0000736376 RMS(Int)=    0.0001816812
 Iter   6:  RMS(Cart)=    0.0000231437 RMS(Int)=    0.0000571012
 Iter   7:  RMS(Cart)=    0.0000072739 RMS(Int)=    0.0000179466
 Iter   8:  RMS(Cart)=    0.0000022862 RMS(Int)=    0.0000056405
 Iter   9:  RMS(Cart)=    0.0000007185 RMS(Int)=    0.0000017728
 Iter  10:  RMS(Cart)=    0.0000002258 RMS(Int)=    0.0000005572
 Iter  11:  RMS(Cart)=    0.0000000710 RMS(Int)=    0.0000001751
 Iter  12:  RMS(Cart)=    0.0000000223 RMS(Int)=    0.0000000550
CONVERGED
The first mode is                       ....   16
The number of degrees of freedom        ....   24
Storing new coordinates                 .... done

    -----------------------------------------------------------------
                    Redundant Internal Coordinates


    -----------------------------------------------------------------
         Definition                    Initial Value    Approx d2E/dq
    -----------------------------------------------------------------
      1. B(C   1,C   0)                  1.5245         0.381450   
      2. B(C   2,C   1)                  1.4278         0.474654   
      3. B(H   3,C   0)                  1.1094         0.335387   
      4. B(H   4,C   0)                  1.1082         0.336978   
      5. B(H   5,C   0)                  1.1100         0.334726   
      6. B(H   6,C   1)                  1.0694         0.350962   
      7. B(H   6,C   2)                  1.7872         0.019252 C 
      8. B(H   7,C   1)                  1.1119         0.332250   
      9. B(H   8,C   2)                  1.1034         0.342992   
     10. B(H   9,C   2)                  1.1017         0.345067   
     11. A(H   4,C   0,H   5)          107.9203         0.284569   
     12. A(C   1,C   0,H   4)          111.5405         0.321908   
     13. A(C   1,C   0,H   3)          111.1599         0.321658   
     14. A(H   3,C   0,H   5)          107.4585         0.284360   
     15. A(C   1,C   0,H   5)          110.7907         0.321554   
     16. A(H   3,C   0,H   4)          107.7992         0.284656   
     17. A(C   0,C   1,C   2)          118.9889         0.380003   
     18. A(C   0,C   1,H   6)          114.3542         0.324061   
     19. A(C   2,C   1,H   6)           90.2257         0.335984   
     20. A(C   0,C   1,H   7)          111.4529         0.321164   
     21. A(C   2,C   1,H   7)          112.6916         0.332940   
     22. A(H   6,C   1,H   7)          106.9352         0.286046   
     23. A(C   1,C   2,H   8)          121.1691         0.334703   
     24. A(C   1,C   2,H   9)          120.4857         0.335039   
     25. A(H   8,C   2,H   9)          117.3098         0.286711   
     26. D(H   7,C   1,C   0,H   4)     56.1130         0.011592   
     27. D(C   2,C   1,C   0,H   4)   -170.1319         0.011592   
     28. D(C   2,C   1,C   0,H   3)    -49.7886         0.011592   
     29. D(H   7,C   1,C   0,H   3)    176.4564         0.011592   
     30. D(H   6,C   1,C   0,H   3)     55.0289         0.011592   
     31. D(H   6,C   1,C   0,H   5)    174.4401         0.011592   
     32. D(H   7,C   1,C   0,H   5)    -64.1325         0.011592   
     33. D(H   6,C   1,C   0,H   4)    -65.3145         0.011592   
     34. D(C   2,C   1,C   0,H   5)     69.6226         0.011592   
     35. D(H   9,C   2,C   1,H   7)    -37.1496         0.017806   
     36. D(H   8,C   2,C   1,H   6)    -96.6948         0.017806   
     37. D(H   8,C   2,C   1,H   7)    154.8008         0.017806   
     38. D(H   9,C   2,C   1,C   0)   -170.3751         0.017806   
     39. D(H   8,C   2,C   1,C   0)     21.5753         0.017806   
     40. D(H   9,C   2,C   1,H   6)     71.3548         0.017806   
    -----------------------------------------------------------------

Number of atoms                         .... 10
Number of degrees of freedom            .... 40

         *************************************************************
         *                GEOMETRY OPTIMIZATION CYCLE   1            *
         *************************************************************
---------------------------------
CARTESIAN COORDINATES (ANGSTROEM)
---------------------------------
  C     -1.201762    0.114442    0.014735
  C      0.198413   -0.474623    0.143291
  C      1.317780    0.302042   -0.283845
  H     -1.247841    1.135462    0.446215
  H     -1.954802   -0.508452    0.537279
  H     -1.501203    0.189656   -1.051465
  H      0.582002   -0.486272    1.141437
  H      0.235088   -1.521356   -0.230023
  H      1.252647    1.400389   -0.366322
  H      2.319579   -0.151388   -0.351301

----------------------------
CARTESIAN COORDINATES (A.U.)
----------------------------
  NO LB      ZA    FRAG     MASS         X           Y           Z
   0 C     6.0000    0    12.011   -2.271001    0.216263    0.027844
   1 C     6.0000    0    12.011    0.374946   -0.896907    0.270781
   2 C     6.0000    0    12.011    2.490243    0.570777   -0.536390
   3 H     1.0000    0     1.008   -2.358078    2.145712    0.843223
   4 H     1.0000    0     1.008   -3.694041   -0.960835    1.015309
   5 H     1.0000    0     1.008   -2.836862    0.358398   -1.986980
   6 H     1.0000    0     1.008    1.099824   -0.918921    2.157004
   7 H     1.0000    0     1.008    0.444251   -2.874946   -0.434681
   8 H     1.0000    0     1.008    2.367160    2.646352   -0.692248
   9 H     1.0000    0     1.008    4.383369   -0.286083   -0.663863

--------------------------------
INTERNAL COORDINATES (ANGSTROEM)
--------------------------------
 C      0   0   0     0.000000000000     0.00000000     0.00000000
 C      1   0   0     1.524321303627     0.00000000     0.00000000
 C      2   1   0     1.464814462291   117.32761414     0.00000000
 H      1   2   3     1.109353278038   111.16448276   309.11583059
 H      1   2   3     1.108064802200   111.54206194   188.77596984
 H      1   2   3     1.109890645141   110.78396573    68.53175001
 H      2   1   3     1.096996991795   112.56554017   107.18000348
 H      2   1   3     1.111911303876   112.11856985   227.18422524
 H      3   2   1     1.103249439162   121.18068417    21.67950778
 H      3   2   1     1.101607719266   120.46666688   189.70766119

---------------------------
INTERNAL COORDINATES (A.U.)
---------------------------
 C      0   0   0     0.000000000000     0.00000000     0.00000000
 C      1   0   0     2.880549803957     0.00000000     0.00000000
 C      2   1   0     2.768098170737   117.32761414     0.00000000
 H      1   2   3     2.096373881260   111.16448276   309.11583059
 H      1   2   3     2.093939014795   111.54206194   188.77596984
 H      1   2   3     2.097389357917   110.78396573    68.53175001
 H      2   1   3     2.073023884227   112.56554017   107.18000348
 H      2   1   3     2.101207849538   112.11856985   227.18422524
 H      3   2   1     2.084839297418   121.18068417    21.67950778
 H      3   2   1     2.081736896426   120.46666688   189.70766119

---------------------
BASIS SET INFORMATION
---------------------
There are 2 groups of distinct atoms

 Group   1 Type C   : 7s4p1d contracted to 3s2p1d pattern {511/31/1}
 Group   2 Type H   : 4s1p contracted to 2s1p pattern {31/1}

Atom   0C    basis set group =>   1
Atom   1C    basis set group =>   1
Atom   2C    basis set group =>   1
Atom   3H    basis set group =>   2
Atom   4H    basis set group =>   2
Atom   5H    basis set group =>   2
Atom   6H    basis set group =>   2
Atom   7H    basis set group =>   2
Atom   8H    basis set group =>   2
Atom   9H    basis set group =>   2
---------------------------------
AUXILIARY/J BASIS SET INFORMATION
---------------------------------
There are 2 groups of distinct atoms

 Group   1 Type C   : 12s5p4d2f1g contracted to 6s4p3d1f1g pattern {711111/2111/211/2/1}
 Group   2 Type H   : 5s2p1d contracted to 3s1p1d pattern {311/2/1}

Atom   0C    basis set group =>   1
Atom   1C    basis set group =>   1
Atom   2C    basis set group =>   1
Atom   3H    basis set group =>   2
Atom   4H    basis set group =>   2
Atom   5H    basis set group =>   2
Atom   6H    basis set group =>   2
Atom   7H    basis set group =>   2
Atom   8H    basis set group =>   2
Atom   9H    basis set group =>   2
[1589382207.855195] [ty2019:9527 :0]            sys.c:618  UCX  ERROR shmget(size=2097152 flags=0xfb0) for mm_recv_desc failed: Operation not permitted, please check shared memory limits by 'ipcs -l'
[1589382207.856628] [ty2019:9526 :0]            sys.c:618  UCX  ERROR shmget(size=2097152 flags=0xfb0) for mm_recv_desc failed: Operation not permitted, please check shared memory limits by 'ipcs -l'
[1589382207.856991] [ty2019:9529 :0]            sys.c:618  UCX  ERROR shmget(size=2097152 flags=0xfb0) for mm_recv_desc failed: Operation not permitted, please check shared memory limits by 'ipcs -l'
[1589382207.857183] [ty2019:9528 :0]            sys.c:618  UCX  ERROR shmget(size=2097152 flags=0xfb0) for mm_recv_desc failed: Operation not permitted, please check shared memory limits by 'ipcs -l'
[1589382207.863309] [ty2019:9526 :0]            sys.c:618  UCX  ERROR shmget(size=2097152 flags=0xb80) for ucp_am_bufs failed: Operation not permitted, please check shared memory limits by 'ipcs -l'
[1589382207.863965] [ty2019:9527 :0]            sys.c:618  UCX  ERROR shmget(size=2097152 flags=0xb80) for ucp_am_bufs failed: Operation not permitted, please check shared memory limits by 'ipcs -l'
[1589382207.869770] [ty2019:9529 :0]            sys.c:618  UCX  ERROR shmget(size=2097152 flags=0xb80) for ucp_am_bufs failed: Operation not permitted, please check shared memory limits by 'ipcs -l'
[1589382207.869770] [ty2019:9528 :0]            sys.c:618  UCX  ERROR shmget(size=2097152 flags=0xb80) for ucp_am_bufs failed: Operation not permitted, please check shared memory limits by 'ipcs -l'


           ************************************************************
           *        Program running with 4 parallel MPI-processes     *
           *              working on a common directory               *
           ************************************************************
------------------------------------------------------------------------------
                           ORCA GTO INTEGRAL CALCULATION
                           -- RI-GTO INTEGRALS CHOSEN --
------------------------------------------------------------------------------

                         BASIS SET STATISTICS AND STARTUP INFO

Gaussian basis set:
 # of primitive gaussian shells          ...   71
 # of primitive gaussian functions       ...  121
 # of contracted shells                  ...   39
 # of contracted basis functions         ...   77
 Highest angular momentum                ...    2
 Maximum contraction depth               ...    5
Auxiliary gaussian basis set:
 # of primitive gaussian shells          ...  128
 # of primitive gaussian functions       ...  322
 # of contracted shells                  ...   80
 # of contracted aux-basis functions     ...  224
 Highest angular momentum                ...    4
 Maximum contraction depth               ...    7
Ratio of auxiliary to basis functions    ...  2.91
Integral package used                  ... LIBINT
 One Electron integrals                  ... done
 Ordering auxiliary basis shells         ... done
 Integral threshhold             Thresh  ...  2.500e-11
 Primitive cut-off               TCut    ...  2.500e-12
 Pre-screening matrix                    ... done
 Shell pair data                         ... 
 Ordering of the shell pairs             ... done (   0.000 sec) 778 of 780 pairs
 Determination of significant pairs      ... done (   0.000 sec)
 Creation of shell pair data             ... done (   0.000 sec)
 Storage of shell pair data              ... done (   0.029 sec)
 Shell pair data done in (   0.029 sec)
 Computing two index integrals           ... done
 Cholesky decomposition of the V-matrix  ... done


Timings:
 Total evaluation time                   ...   0.134 sec (  0.002 min)
 One electron matrix time                ...   0.005 sec (  0.000 min) =  3.5%
 Schwartz matrix evaluation time         ...   0.073 sec (  0.001 min) = 54.3%
 Two index repulsion integral time       ...   0.001 sec (  0.000 min) =  1.1%
 Cholesky decomposition of V             ...   0.001 sec (  0.000 min) =  0.8%
 Three index repulsion integral time     ...   0.000 sec (  0.000 min) =  0.0%

[1589382208.869136] [ty2019:9547 :0]            sys.c:618  UCX  ERROR shmget(size=2097152 flags=0xfb0) for mm_recv_desc failed: Operation not permitted, please check shared memory limits by 'ipcs -l'
[1589382208.871473] [ty2019:9550 :0]            sys.c:618  UCX  ERROR shmget(size=2097152 flags=0xfb0) for mm_recv_desc failed: Operation not permitted, please check shared memory limits by 'ipcs -l'
[1589382208.872285] [ty2019:9548 :0]            sys.c:618  UCX  ERROR shmget(size=2097152 flags=0xfb0) for mm_recv_desc failed: Operation not permitted, please check shared memory limits by 'ipcs -l'
[1589382208.879332] [ty2019:9549 :0]            sys.c:618  UCX  ERROR shmget(size=2097152 flags=0xfb0) for mm_recv_desc failed: Operation not permitted, please check shared memory limits by 'ipcs -l'
[1589382208.886431] [ty2019:9547 :0]            sys.c:618  UCX  ERROR shmget(size=2097152 flags=0xb80) for ucp_am_bufs failed: Operation not permitted, please check shared memory limits by 'ipcs -l'
[1589382208.887074] [ty2019:9548 :0]            sys.c:618  UCX  ERROR shmget(size=2097152 flags=0xb80) for ucp_am_bufs failed: Operation not permitted, please check shared memory limits by 'ipcs -l'
[1589382208.887569] [ty2019:9549 :0]            sys.c:618  UCX  ERROR shmget(size=2097152 flags=0xb80) for ucp_am_bufs failed: Operation not permitted, please check shared memory limits by 'ipcs -l'


           ************************************************************
           *        Program running with 4 parallel MPI-processes     *
           *              working on a common directory               *
           ************************************************************
-------------------------------------------------------------------------------
                                 ORCA SCF
-------------------------------------------------------------------------------

------------
SCF SETTINGS
------------
Hamiltonian:
 Density Functional     Method          .... DFT(GTOs)
 Exchange Functional    Exchange        .... PBE
   PBE kappa parameter   XKappa         ....  0.804000
   PBE mue parameter    XMuePBE         ....  0.219520
 Correlation Functional Correlation     .... PBE
   PBE beta parameter  CBetaPBE         ....  0.066725
 LDA part of GGA corr.  LDAOpt          .... PW91-LDA
 Gradients option       PostSCFGGA      .... off
   Density functional embedding theory  .... OFF
   NL short-range parameter             ....  6.400000
 RI-approximation to the Coulomb term is turned on
   Number of auxiliary basis functions  .... 224


General Settings:
 Integral files         IntName         .... m-mfaV_2-6_hl1d_fbond_scan_4_orca
 Hartree-Fock type      HFTyp           .... UHF
 Total Charge           Charge          ....    0
 Multiplicity           Mult            ....    2
 Number of Electrons    NEL             ....   25
 Basis Dimension        Dim             ....   77
 Nuclear Repulsion      ENuc            ....     76.4323267480 Eh

Convergence Acceleration:
 DIIS                   CNVDIIS         .... on
   Start iteration      DIISMaxIt       ....    12
   Startup error        DIISStart       ....  0.200000
   # of expansion vecs  DIISMaxEq       ....     5
   Bias factor          DIISBfac        ....   1.050
   Max. coefficient     DIISMaxC        ....  10.000
 Newton-Raphson         CNVNR           .... off
 SOSCF                  CNVSOSCF        .... off
 Level Shifting         CNVShift        .... on
   Level shift para.    LevelShift      ....    0.2500
   Turn off err/grad.   ShiftErr        ....    0.0010
 Zerner damping         CNVZerner       .... off
 Static damping         CNVDamp         .... on
   Fraction old density DampFac         ....    0.7000
   Max. Damping (<1)    DampMax         ....    0.9800
   Min. Damping (>=0)   DampMin         ....    0.0000
   Turn off err/grad.   DampErr         ....    0.1000
 Fernandez-Rico         CNVRico         .... off

SCF Procedure:
 Maximum # iterations   MaxIter         ....   250
 SCF integral mode      SCFMode         .... Direct
   Integral package                     .... LIBINT
 Reset frequency        DirectResetFreq ....    20
 Integral Threshold     Thresh          ....  2.500e-11 Eh
 Primitive CutOff       TCut            ....  2.500e-12 Eh

Convergence Tolerance:
 Convergence Check Mode ConvCheckMode   .... Total+1el-Energy
 Convergence forced     ConvForced      .... 0
 Energy Change          TolE            ....  1.000e-08 Eh
 1-El. energy change                    ....  1.000e-05 Eh
 DIIS Error             TolErr          ....  5.000e-07


Diagonalization of the overlap matrix:
Smallest eigenvalue                        ... 2.787e-03
Time for diagonalization                   ...    0.003 sec
Threshold for overlap eigenvalues          ... 1.000e-08
Number of eigenvalues below threshold      ... 0
[1589382208.895553] [ty2019:9550 :0]            sys.c:618  UCX  ERROR shmget(size=2097152 flags=0xb80) for ucp_am_bufs failed: Operation not permitted, please check shared memory limits by 'ipcs -l'
Time for construction of square roots      ...    0.002 sec
Total time needed                          ...    0.004 sec

-------------------
DFT GRID GENERATION
-------------------

General Integration Accuracy     IntAcc      ...  4.340
Radial Grid Type                 RadialGrid  ... Gauss-Chebyshev
Angular Grid (max. acc.)         AngularGrid ... Lebedev-110
Angular grid pruning method      GridPruning ... 3 (G Style)
Weight generation scheme         WeightScheme... Becke
Basis function cutoff            BFCut       ...    1.0000e-11
Integration weight cutoff        WCut        ...    1.0000e-14
Grids for H and He will be reduced by one unit

# of grid points (after initial pruning)     ...  10526 (   0.0 sec)
# of grid points (after weights+screening)   ...  10032 (   0.0 sec)
nearest neighbour list constructed           ...    0.0 sec
Grid point re-assignment to atoms done       ...    0.0 sec
Grid point division into batches done        ...    0.0 sec
Reduced shell lists constructed in    0.0 sec

Total number of grid points                  ...    10032
Total number of batches                      ...      164
Average number of points per batch           ...       61
Average number of grid points per atom       ...     1003
Average number of shells per batch           ...    36.05 (92.43%)
Average number of basis functions per batch  ...    71.29 (92.58%)
Average number of large shells per batch     ...    33.57 (93.13%)
Average number of large basis fcns per batch ...    65.90 (92.45%)
Maximum spatial batch extension              ...  17.56, 15.16, 18.29 au
Average spatial batch extension              ...   0.55,  0.55,  0.65 au

Time for grid setup =    0.034 sec

------------------------------
INITIAL GUESS: MODEL POTENTIAL
------------------------------
Loading Hartree-Fock densities                     ... done
Calculating cut-offs                               ... done
Setting up the integral package                    ... done
Initializing the effective Hamiltonian             ... done
Starting the Coulomb interaction                   ... done (   0.0 sec)
Reading the grid                                   ... done
Mapping shells                                     ... done
Starting the XC term evaluation                    ... done (   0.0 sec)
  promolecular density results
     # of electrons  =     24.992514306
     EX              =    -17.363649479
     EC              =     -0.783119428
     EX+EC           =    -18.146768907
Transforming the Hamiltonian                       ... done (   0.0 sec)
Diagonalizing the Hamiltonian                      ... done (   0.0 sec)
Back transforming the eigenvectors                 ... done (   0.0 sec)
Now organizing SCF variables                       ... done
                      ------------------
                      INITIAL GUESS DONE (   0.1 sec)
                      ------------------

--------------------
CPCM SOLVATION MODEL
--------------------
CPCM parameters:
  Epsilon                                         ...      80.4000
  Refrac                                          ...       1.3300
  Rsolv                                           ...       1.3000
  Surface type                                    ... GAUSSIAN VDW
  Epsilon function type                           ...         CPCM
Radii:
 Radius for C  used is    3.8550 Bohr (=   2.0400 Ang.)
 Radius for H  used is    2.4944 Bohr (=   1.3200 Ang.)
Calculating surface                               ...        done! (  0.0s)
GEPOL surface points                              ...          614
GEPOL Volume                                      ...     534.2259
GEPOL Surface-area                                ...     351.9497
Calculating surface distance matrix               ...        done! (  0.0s)
Performing Cholesky decomposition & store         ...        done! (  0.0s)
Overall time for CPCM initialization              ...                 0.0s
--------------
SCF ITERATIONS
--------------
ITER       Energy         Delta-E        Max-DP      RMS-DP      [F,P]     Damp
               ***  Starting incremental Fock matrix formation  ***
  0   -118.0886806137   0.000000000000 0.04162106  0.00163848  0.1520890 0.7000
  1   -118.1378967407  -0.049216126995 0.02837154  0.00118688  0.0726579 0.7000
                               ***Turning on DIIS***
  2   -118.1557180837  -0.017821342954 0.03462389  0.00193030  0.0204565 0.0000
  3   -118.1798069524  -0.024088868703 0.02226466  0.00079786  0.0460330 0.0000
  4   -118.1888382003  -0.009031247973 0.00718096  0.00026150  0.0093383 0.0000
  5   -118.1893436311  -0.000505430776 0.00139116  0.00010093  0.0024646 0.0000
  6   -118.1893860971  -0.000042466000 0.00133782  0.00006797  0.0008752 0.0000
  7   -118.1893918869  -0.000005789793 0.00036651  0.00000848  0.0004074 0.0000
  8   -118.1893924743  -0.000000587414 0.00007696  0.00000290  0.0000428 0.0000
  9   -118.1893925204  -0.000000046087 0.00002269  0.00000082  0.0000113 0.0000
 10   -118.1893925249  -0.000000004477 0.00000649  0.00000028  0.0000096 0.0000
                 **** Energy Check signals convergence ****

               *****************************************************
               *                     SUCCESS                       *
               *           SCF CONVERGED AFTER  11 CYCLES          *
               *****************************************************

Setting up the final grid:

General Integration Accuracy     IntAcc      ...  4.670
Radial Grid Type                 RadialGrid  ... Gauss-Chebyshev
Angular Grid (max. acc.)         AngularGrid ... Lebedev-302
Angular grid pruning method      GridPruning ... 3 (G Style)
Weight generation scheme         WeightScheme... Becke
Basis function cutoff            BFCut       ...    1.0000e-11
Integration weight cutoff        WCut        ...    1.0000e-14
Grids for H and He will be reduced by one unit

# of grid points (after initial pruning)     ...  42394 (   0.0 sec)
# of grid points (after weights+screening)   ...  39943 (   0.0 sec)
nearest neighbour list constructed           ...    0.0 sec
Grid point re-assignment to atoms done       ...    0.0 sec
Grid point division into batches done        ...    0.1 sec
Reduced shell lists constructed in    0.1 sec

Total number of grid points                  ...    39943
Total number of batches                      ...      629
Average number of points per batch           ...       63
Average number of grid points per atom       ...     3994
Average number of shells per batch           ...    35.01 (89.78%)
Average number of basis functions per batch  ...    69.15 (89.81%)
Average number of large shells per batch     ...    31.69 (90.50%)
Average number of large basis fcns per batch ...    61.75 (89.30%)
Maximum spatial batch extension              ...  13.50, 13.22, 18.24 au
Average spatial batch extension              ...   0.42,  0.42,  0.49 au

Final grid set up in    0.1 sec
Final integration                            ... done (   0.1 sec)
Change in XC energy                          ...    -0.000602179
Integrated number of electrons               ...    24.999981873
Previous integrated no of electrons          ...    24.996833482

----------------
TOTAL SCF ENERGY
----------------

Total Energy       :         -118.18999470 Eh           -3216.11326 eV

Components:
Nuclear Repulsion  :           76.43232675 Eh            2079.82935 eV
Electronic Energy  :         -194.62232145 Eh           -5295.94261 eV
One Electron Energy:         -308.66132366 Eh           -8399.10162 eV
Two Electron Energy:          114.03900221 Eh            3103.15901 eV
CPCM Dielectric    :           -0.00140328 Eh              -0.03819 eV

Virial components:
Potential Energy   :         -235.02820396 Eh           -6395.44257 eV
Kinetic Energy     :          116.83820925 Eh            3179.32931 eV
Virial Ratio       :            2.01156972


DFT components:
N(Alpha)           :       12.999987490793 electrons
N(Beta)            :       11.999994381806 electrons
N(Total)           :       24.999981872599 electrons
E(X)               :      -17.866088844127 Eh       
E(C)               :       -0.792601664584 Eh       
E(XC)              :      -18.658690508711 Eh       
DFET-embed. en.    :        0.000000000000 Eh       
CPCM Solvation Model Properties:
Surface-charge          :           -0.01992927
Charge-correction       :            0.00001869 Eh               0.00051 eV
Free-energy (cav+disp)  :            0.00316749 Eh               0.08619 eV
Corrected G(solv)       :         -118.18680853 Eh           -3216.02656 eV

---------------
SCF CONVERGENCE
---------------

  Last Energy change         ...    1.4599e-10  Tolerance :   1.0000e-08
  Last MAX-Density change    ...    4.2215e-06  Tolerance :   1.0000e-07
  Last RMS-Density change    ...    1.4185e-07  Tolerance :   5.0000e-09
  Last DIIS Error            ...    1.8101e-06  Tolerance :   5.0000e-07

             **** THE GBW FILE WAS UPDATED (m-mfaV_2-6_hl1d_fbond_scan_4_orca.gbw) ****
             **** DENSITY FILE WAS UPDATED (m-mfaV_2-6_hl1d_fbond_scan_4_orca.scfp) ****
             **** ENERGY FILE WAS UPDATED (m-mfaV_2-6_hl1d_fbond_scan_4_orca.en.tmp) ****
----------------------
UHF SPIN CONTAMINATION
----------------------

Warning: in a DFT calculation there is little theoretical justification to 
         calculate <S**2> as in Hartree-Fock theory. We will do it anyways
         but you should keep in mind that the values have only limited relevance

Expectation value of <S**2>     :     0.753118
Ideal value S*(S+1) for S=0.5   :     0.750000
Deviation                       :     0.003118

             **** THE GBW FILE WAS UPDATED (m-mfaV_2-6_hl1d_fbond_scan_4_orca.gbw) ****
             **** DENSITY FILE WAS UPDATED (m-mfaV_2-6_hl1d_fbond_scan_4_orca.scfp) ****
----------------
ORBITAL ENERGIES
----------------
                 SPIN UP ORBITALS
  NO   OCC          E(Eh)            E(eV) 
   0   1.0000      -9.889700      -269.1124 
   1   1.0000      -9.889019      -269.0939 
   2   1.0000      -9.887598      -269.0552 
   3   1.0000      -0.713280       -19.4093 
   4   1.0000      -0.602367       -16.3912 
   5   1.0000      -0.503456       -13.6997 
   6   1.0000      -0.406261       -11.0549 
   7   1.0000      -0.390530       -10.6269 
   8   1.0000      -0.361622        -9.8402 
   9   1.0000      -0.317883        -8.6500 
  10   1.0000      -0.300512        -8.1773 
  11   1.0000      -0.293568        -7.9884 
  12   1.0000      -0.140813        -3.8317 
  13   0.0000       0.048827         1.3287 
  14   0.0000       0.083130         2.2621 
  15   0.0000       0.086199         2.3456 
  16   0.0000       0.099276         2.7014 
  17   0.0000       0.119660         3.2561 
  18   0.0000       0.132668         3.6101 
  19   0.0000       0.138260         3.7623 
  20   0.0000       0.201720         5.4891 
  21   0.0000       0.253312         6.8930 
  22   0.0000       0.360536         9.8107 
  23   0.0000       0.383021        10.4225 
  24   0.0000       0.397784        10.8243 
  25   0.0000       0.446101        12.1390 
  26   0.0000       0.464209        12.6318 
  27   0.0000       0.482415        13.1272 
  28   0.0000       0.566484        15.4148 
  29   0.0000       0.583896        15.8886 
  30   0.0000       0.600906        16.3515 
  31   0.0000       0.610924        16.6241 
  32   0.0000       0.624924        17.0050 
  33   0.0000       0.626151        17.0384 
  34   0.0000       0.642432        17.4815 
  35   0.0000       0.652420        17.7532 
  36   0.0000       0.661452        17.9990 
  37   0.0000       0.697306        18.9747 
  38   0.0000       0.732007        19.9189 
  39   0.0000       0.829329        22.5672 
  40   0.0000       0.900494        24.5037 
  41   0.0000       1.124660        30.6035 
  42   0.0000       1.168540        31.7976 
  43   0.0000       1.178924        32.0801 
  44   0.0000       1.286514        35.0078 
  45   0.0000       1.448739        39.4222 
  46   0.0000       1.473097        40.0850 
  47   0.0000       1.519048        41.3354 
  48   0.0000       1.537996        41.8510 
  49   0.0000       1.633626        44.4532 
  50   0.0000       1.662889        45.2495 
  51   0.0000       1.684307        45.8323 
  52   0.0000       1.707563        46.4652 
  53   0.0000       1.717276        46.7295 
  54   0.0000       1.724160        46.9168 
  55   0.0000       1.778703        48.4010 
  56   0.0000       1.800714        48.9999 
  57   0.0000       1.848988        50.3135 
  58   0.0000       1.872530        50.9541 
  59   0.0000       1.949752        53.0554 
  60   0.0000       2.012329        54.7583 
  61   0.0000       2.099110        57.1197 
  62   0.0000       2.137756        58.1713 
  63   0.0000       2.161749        58.8242 
  64   0.0000       2.280343        62.0513 
  65   0.0000       2.325164        63.2709 
  66   0.0000       2.373834        64.5953 
  67   0.0000       2.446558        66.5742 
  68   0.0000       2.470224        67.2182 
  69   0.0000       2.537743        69.0555 
  70   0.0000       2.659151        72.3592 
  71   0.0000       2.750658        74.8492 
  72   0.0000       2.835923        77.1694 
  73   0.0000       2.883479        78.4635 
  74   0.0000       2.900952        78.9389 
  75   0.0000       2.959842        80.5414 
  76   0.0000       3.035358        82.5963 

                 SPIN DOWN ORBITALS
  NO   OCC          E(Eh)            E(eV) 
   0   1.0000      -9.889825      -269.1158 
   1   1.0000      -9.887504      -269.0527 
   2   1.0000      -9.875900      -268.7369 
   3   1.0000      -0.703590       -19.1457 
   4   1.0000      -0.592396       -16.1199 
   5   1.0000      -0.488321       -13.2879 
   6   1.0000      -0.399242       -10.8639 
   7   1.0000      -0.383438       -10.4339 
   8   1.0000      -0.357061        -9.7161 
   9   1.0000      -0.313529        -8.5316 
  10   1.0000      -0.293207        -7.9786 
  11   1.0000      -0.289498        -7.8776 
  12   0.0000      -0.061400        -1.6708 
  13   0.0000       0.051748         1.4081 
  14   0.0000       0.085693         2.3318 
  15   0.0000       0.092477         2.5164 
  16   0.0000       0.107316         2.9202 
  17   0.0000       0.121627         3.3096 
  18   0.0000       0.135246         3.6802 
  19   0.0000       0.141961         3.8630 
  20   0.0000       0.205313         5.5869 
  21   0.0000       0.261242         7.1088 
  22   0.0000       0.366274         9.9668 
  23   0.0000       0.386159        10.5079 
  24   0.0000       0.400510        10.8984 
  25   0.0000       0.464146        12.6301 
  26   0.0000       0.482139        13.1197 
  27   0.0000       0.533629        14.5208 
  28   0.0000       0.572693        15.5838 
  29   0.0000       0.591562        16.0972 
  30   0.0000       0.604637        16.4530 
  31   0.0000       0.618117        16.8198 
  32   0.0000       0.628691        17.1075 
  33   0.0000       0.638357        17.3706 
  34   0.0000       0.647940        17.6313 
  35   0.0000       0.656583        17.8665 
  36   0.0000       0.668427        18.1888 
  37   0.0000       0.706264        19.2184 
  38   0.0000       0.736698        20.0466 
  39   0.0000       0.836945        22.7744 
  40   0.0000       0.906581        24.6693 
  41   0.0000       1.137645        30.9569 
  42   0.0000       1.182172        32.1685 
  43   0.0000       1.192592        32.4521 
  44   0.0000       1.290830        35.1253 
  45   0.0000       1.452676        39.5293 
  46   0.0000       1.473339        40.0916 
  47   0.0000       1.526336        41.5337 
  48   0.0000       1.540527        41.9199 
  49   0.0000       1.638498        44.5858 
  50   0.0000       1.672237        45.5039 
  51   0.0000       1.691945        46.0402 
  52   0.0000       1.716024        46.6954 
  53   0.0000       1.725553        46.9547 
  54   0.0000       1.737747        47.2865 
  55   0.0000       1.786059        48.6011 
  56   0.0000       1.807435        49.1828 
  57   0.0000       1.858141        50.5626 
  58   0.0000       1.887044        51.3491 
  59   0.0000       1.968357        53.5617 
  60   0.0000       2.040093        55.5138 
  61   0.0000       2.113512        57.5116 
  62   0.0000       2.159739        58.7695 
  63   0.0000       2.184808        59.4516 
  64   0.0000       2.289403        62.2978 
  65   0.0000       2.331253        63.4366 
  66   0.0000       2.379536        64.7505 
  67   0.0000       2.454247        66.7834 
  68   0.0000       2.482807        67.5606 
  69   0.0000       2.547020        69.3079 
  70   0.0000       2.666836        72.5683 
  71   0.0000       2.757490        75.0351 
  72   0.0000       2.840150        77.2844 
  73   0.0000       2.887080        78.5614 
  74   0.0000       2.904888        79.0460 
  75   0.0000       2.967261        80.7433 
  76   0.0000       3.041985        82.7766 

                    ********************************
                    * MULLIKEN POPULATION ANALYSIS *
                    ********************************

--------------------------------------------
MULLIKEN ATOMIC CHARGES AND SPIN POPULATIONS
--------------------------------------------
   0 C :   -0.052083    0.000692
   1 C :   -0.018928   -0.043719
   2 C :   -0.198967    1.049194
   3 H :    0.031352    0.000460
   4 H :    0.035719   -0.000846
   5 H :    0.036148    0.008137
   6 H :    0.041793    0.055434
   7 H :    0.039671    0.025579
   8 H :    0.041407   -0.047799
   9 H :    0.043888   -0.047132
Sum of atomic charges         :   -0.0000000
Sum of atomic spin populations:    1.0000000

-----------------------------------------------------
MULLIKEN REDUCED ORBITAL CHARGES AND SPIN POPULATIONS
-----------------------------------------------------
CHARGE
  0 C s       :     3.029139  s :     3.029139
      pz      :     1.016287  p :     2.998495
      px      :     0.975335
      py      :     1.006873
      dz2     :     0.005319  d :     0.024449
      dxz     :     0.004990
      dyz     :     0.003163
      dx2y2   :     0.005773
      dxy     :     0.005204
  1 C s       :     2.997705  s :     2.997705
      pz      :     1.011612  p :     2.982504
      px      :     0.952633
      py      :     1.018259
      dz2     :     0.008413  d :     0.038719
      dxz     :     0.008630
      dyz     :     0.003380
      dx2y2   :     0.010112
      dxy     :     0.008185
  2 C s       :     3.207426  s :     3.207426
      pz      :     1.056328  p :     2.968712
      px      :     0.954122
      py      :     0.958262
      dz2     :     0.003571  d :     0.022828
      dxz     :     0.002940
      dyz     :     0.002101
      dx2y2   :     0.008430
      dxy     :     0.005786
  3 H s       :     0.945721  s :     0.945721
      pz      :     0.006501  p :     0.022927
      px      :     0.004379
      py      :     0.012047
  4 H s       :     0.941490  s :     0.941490
      pz      :     0.007100  p :     0.022791
      px      :     0.008111
      py      :     0.007580
  5 H s       :     0.940987  s :     0.940987
      pz      :     0.012629  p :     0.022866
      px      :     0.004978
      py      :     0.005258
  6 H s       :     0.929017  s :     0.929017
      pz      :     0.014368  p :     0.029189
      px      :     0.007636
      py      :     0.007186
  7 H s       :     0.938101  s :     0.938101
      pz      :     0.006084  p :     0.022228
      px      :     0.003884
      py      :     0.012261
  8 H s       :     0.935320  s :     0.935320
      pz      :     0.005637  p :     0.023273
      px      :     0.004176
      py      :     0.013460
  9 H s       :     0.933098  s :     0.933098
      pz      :     0.005459  p :     0.023014
      px      :     0.011929
      py      :     0.005626

SPIN
  0 C s       :    -0.001047  s :    -0.001047
      pz      :    -0.001080  p :     0.001520
      px      :     0.000879
      py      :     0.001721
      dz2     :     0.000125  d :     0.000218
      dxz     :     0.000025
      dyz     :     0.000116
      dx2y2   :    -0.000024
      dxy     :    -0.000024
  1 C s       :    -0.016297  s :    -0.016297
      pz      :     0.004571  p :    -0.034391
      px      :    -0.022596
      py      :    -0.016366
      dz2     :     0.004603  d :     0.006969
      dxz     :     0.000555
      dyz     :     0.001389
      dx2y2   :     0.000089
      dxy     :     0.000332
  2 C s       :     0.094636  s :     0.094636
      pz      :     0.860047  p :     0.956626
      px      :     0.048831
      py      :     0.047748
      dz2     :    -0.002038  d :    -0.002068
      dxz     :    -0.000059
      dyz     :     0.000039
      dx2y2   :     0.000088
      dxy     :    -0.000097
  3 H s       :     0.000438  s :     0.000438
      pz      :    -0.000001  p :     0.000022
      px      :     0.000036
      py      :    -0.000013
  4 H s       :    -0.000838  s :    -0.000838
      pz      :    -0.000010  p :    -0.000008
      px      :     0.000008
      py      :    -0.000007
  5 H s       :     0.008181  s :     0.008181
      pz      :    -0.000045  p :    -0.000044
      px      :    -0.000013
      py      :     0.000014
  6 H s       :     0.052908  s :     0.052908
      pz      :    -0.000427  p :     0.002526
      px      :     0.002244
      py      :     0.000709
  7 H s       :     0.025649  s :     0.025649
      pz      :    -0.000048  p :    -0.000069
      px      :     0.000137
      py      :    -0.000158
  8 H s       :    -0.053052  s :    -0.053052
      pz      :     0.005084  p :     0.005253
      px      :    -0.000052
      py      :     0.000221
  9 H s       :    -0.052057  s :    -0.052057
      pz      :     0.004742  p :     0.004925
      px      :     0.000169
      py      :     0.000014


                     *******************************
                     * LOEWDIN POPULATION ANALYSIS *
                     *******************************

-------------------------------------------
LOEWDIN ATOMIC CHARGES AND SPIN POPULATIONS
-------------------------------------------
   0 C :   -0.071959    0.004935
   1 C :   -0.072109    0.023378
   2 C :   -0.080866    0.882681
   3 H :    0.031099    0.000890
   4 H :    0.033033   -0.000757
   5 H :    0.030764    0.004670
   6 H :    0.052808    0.060725
   7 H :    0.039858    0.022964
   8 H :    0.017359    0.000406
   9 H :    0.020012    0.000108

----------------------------------------------------
LOEWDIN REDUCED ORBITAL CHARGES AND SPIN POPULATIONS
----------------------------------------------------
CHARGE
  0 C s       :     2.851453  s :     2.851453
      pz      :     1.069330  p :     3.154223
      px      :     1.021884
      py      :     1.063008
      dz2     :     0.015627  d :     0.066284
      dxz     :     0.011982
      dyz     :     0.008778
      dx2y2   :     0.015759
      dxy     :     0.014137
  1 C s       :     2.820143  s :     2.820143
      pz      :     1.061323  p :     3.150994
      px      :     1.030418
      py      :     1.059252
      dz2     :     0.023193  d :     0.100972
      dxz     :     0.019573
      dyz     :     0.009229
      dx2y2   :     0.026501
      dxy     :     0.022477
  2 C s       :     2.919777  s :     2.919777
      pz      :     1.010750  p :     3.101461
      px      :     1.040879
      py      :     1.049833
      dz2     :     0.006667  d :     0.059627
      dxz     :     0.006289
      dyz     :     0.004520
      dx2y2   :     0.024584
      dxy     :     0.017567
  3 H s       :     0.904853  s :     0.904853
      pz      :     0.016280  p :     0.064047
      px      :     0.012112
      py      :     0.035655
  4 H s       :     0.902986  s :     0.902986
      pz      :     0.018440  p :     0.063980
      px      :     0.024762
      py      :     0.020778
  5 H s       :     0.905149  s :     0.905149
      pz      :     0.037505  p :     0.064087
      px      :     0.014105
      py      :     0.012477
  6 H s       :     0.862939  s :     0.862939
      pz      :     0.042315  p :     0.084253
      px      :     0.023179
      py      :     0.018759
  7 H s       :     0.896527  s :     0.896527
      pz      :     0.016188  p :     0.063614
      px      :     0.011353
      py      :     0.036073
  8 H s       :     0.908586  s :     0.908586
      pz      :     0.021441  p :     0.074055
      px      :     0.010942
      py      :     0.041672
  9 H s       :     0.906586  s :     0.906586
      pz      :     0.020800  p :     0.073402
      px      :     0.036462
      py      :     0.016139

SPIN
  0 C s       :     0.001215  s :     0.001215
      pz      :    -0.000291  p :     0.002933
      px      :     0.001828
      py      :     0.001396
      dz2     :     0.000361  d :     0.000787
      dxz     :     0.000188
      dyz     :     0.000344
      dx2y2   :    -0.000030
      dxy     :    -0.000075
  1 C s       :    -0.002486  s :    -0.002486
      pz      :     0.020877  p :     0.007855
      px      :    -0.006372
      py      :    -0.006650
      dz2     :     0.011233  d :     0.018010
      dxz     :     0.001655
      dyz     :     0.003335
      dx2y2   :     0.000464
      dxy     :     0.001323
  2 C s       :     0.028794  s :     0.028794
      pz      :     0.794811  p :     0.856458
      px      :     0.034882
      py      :     0.026765
      dz2     :    -0.001427  d :    -0.002572
      dxz     :     0.000124
      dyz     :     0.000239
      dx2y2   :    -0.000761
      dxy     :    -0.000747
  3 H s       :     0.000816  s :     0.000816
      pz      :    -0.000003  p :     0.000074
      px      :     0.000080
      py      :    -0.000004
  4 H s       :    -0.000828  s :    -0.000828
      pz      :     0.000009  p :     0.000071
      px      :     0.000054
      py      :     0.000008
  5 H s       :     0.004239  s :     0.004239
      pz      :     0.000154  p :     0.000431
      px      :     0.000122
      py      :     0.000154
  6 H s       :     0.054022  s :     0.054022
      pz      :    -0.000201  p :     0.006703
      px      :     0.004955
      py      :     0.001949
  7 H s       :     0.022668  s :     0.022668
      pz      :     0.000607  p :     0.000296
      px      :     0.000154
      py      :    -0.000465
  8 H s       :    -0.023161  s :    -0.023161
      pz      :     0.020020  p :     0.023567
      px      :     0.000624
      py      :     0.002922
  9 H s       :    -0.022585  s :    -0.022585
      pz      :     0.019136  p :     0.022693
      px      :     0.002604
      py      :     0.000953


                      *****************************
                      * MAYER POPULATION ANALYSIS *
                      *****************************

  NA   - Mulliken gross atomic population
  ZA   - Total nuclear charge
  QA   - Mulliken gross atomic charge
  VA   - Mayer's total valence
  BVA  - Mayer's bonded valence
  FA   - Mayer's free valence

  ATOM       NA         ZA         QA         VA         BVA        FA
  0 C      6.0521     6.0000    -0.0521     4.0067     4.0067     0.0000
  1 C      6.0189     6.0000    -0.0189     4.1003     4.0971     0.0033
  2 C      6.1990     6.0000    -0.1990     3.9288     3.1245     0.8042
  3 H      0.9686     1.0000     0.0314     0.9882     0.9882     0.0000
  4 H      0.9643     1.0000     0.0357     0.9848     0.9848     0.0000
  5 H      0.9639     1.0000     0.0361     0.9851     0.9850     0.0001
  6 H      0.9582     1.0000     0.0418     0.9810     0.9774     0.0036
  7 H      0.9603     1.0000     0.0397     0.9747     0.9740     0.0007
  8 H      0.9586     1.0000     0.0414     0.9873     0.9844     0.0029
  9 H      0.9561     1.0000     0.0439     0.9792     0.9764     0.0028

  Mayer bond orders larger than 0.100000
B(  0-C ,  1-C ) :   1.1082 B(  0-C ,  3-H ) :   0.9633 B(  0-C ,  4-H ) :   0.9627 
B(  0-C ,  5-H ) :   0.9690 B(  1-C ,  2-C ) :   1.1171 B(  1-C ,  6-H ) :   0.8991 
B(  1-C ,  7-H ) :   0.9296 B(  2-C ,  8-H ) :   0.9618 B(  2-C ,  9-H ) :   0.9592 



------------------
HIRSHFELD ANALYSIS
------------------

Total integrated alpha density =     12.998383859
Total integrated beta density  =     11.998449622

  ATOM     CHARGE      SPIN    
   0 C   -0.068576    0.010637
   1 C   -0.046763    0.083766
   2 C   -0.078683    0.713908
   3 H    0.029121    0.001274
   4 H    0.030261    0.000050
   5 H    0.026143    0.005615
   6 H    0.037530    0.064496
   7 H    0.036009    0.024361
   8 H    0.016684    0.049426
   9 H    0.021441    0.046402

  TOTAL   0.003167    0.999934

-------
TIMINGS
-------

Total SCF time: 0 days 0 hours 0 min 3 sec 

Total time                  ....       3.921 sec
Sum of individual times     ....       3.819 sec  ( 97.4%)

Fock matrix formation       ....       3.508 sec  ( 89.5%)
  Split-RI-J                ....       0.977 sec  ( 27.8% of F)
  XC integration            ....       0.377 sec  ( 10.7% of F)
    Basis function eval.    ....       0.078 sec  ( 20.8% of XC)
    Density eval.           ....       0.052 sec  ( 13.7% of XC)
    XC-Functional eval.     ....       0.025 sec  (  6.6% of XC)
    XC-Potential eval.      ....       0.091 sec  ( 24.3% of XC)
Diagonalization             ....       0.013 sec  (  0.3%)
Density matrix formation    ....       0.001 sec  (  0.0%)
Population analysis         ....       0.018 sec  (  0.4%)
Initial guess               ....       0.096 sec  (  2.4%)
Orbital Transformation      ....       0.000 sec  (  0.0%)
Orbital Orthonormalization  ....       0.000 sec  (  0.0%)
DIIS solution               ....       0.005 sec  (  0.1%)
Grid generation             ....       0.178 sec  (  4.6%)


-------------------------------------------------------------------------------
                          DFT DISPERSION CORRECTION                            
                                                                               
                              DFTD3 V3.1  Rev 1                                
                          USING Becke-Johnson damping                          
-------------------------------------------------------------------------------
The PBE functional is recognized
Active option DFTDOPT                   ...         4   

molecular C6(AA) [au] = 669.676870 


            DFT-D V3
 parameters
 s6 scaling factor         :     1.0000 
 a1 scaling factor         :     0.4289 
 s8 scaling factor         :     0.7875 
 a2 scaling factor         :     4.4407 
 ad hoc parameters k1-k3   :    16.0000     1.3333    -4.0000 

 Edisp/kcal,au: -3.409056173199  -0.005432676239 
 E6   /kcal   :  -2.477753762 
 E8   /kcal   :  -0.931302411 
 % E8         :  27.318482419 

-------------------------   ----------------
Dispersion correction           -0.005432676
-------------------------   ----------------


-------------------------   --------------------
FINAL SINGLE POINT ENERGY      -118.195427379986
-------------------------   --------------------

[1589382213.700531] [ty2019:9575 :0]            sys.c:618  UCX  ERROR shmget(size=2097152 flags=0xfb0) for mm_recv_desc failed: Operation not permitted, please check shared memory limits by 'ipcs -l'
[1589382213.704146] [ty2019:9573 :0]            sys.c:618  UCX  ERROR shmget(size=2097152 flags=0xfb0) for mm_recv_desc failed: Operation not permitted, please check shared memory limits by 'ipcs -l'
[1589382213.713743] [ty2019:9574 :0]            sys.c:618  UCX  ERROR shmget(size=2097152 flags=0xfb0) for mm_recv_desc failed: Operation not permitted, please check shared memory limits by 'ipcs -l'
[1589382213.713879] [ty2019:9572 :0]            sys.c:618  UCX  ERROR shmget(size=2097152 flags=0xfb0) for mm_recv_desc failed: Operation not permitted, please check shared memory limits by 'ipcs -l'
[1589382213.720818] [ty2019:9572 :0]            sys.c:618  UCX  ERROR shmget(size=2097152 flags=0xb80) for ucp_am_bufs failed: Operation not permitted, please check shared memory limits by 'ipcs -l'


           ************************************************************
           *        Program running with 4 parallel MPI-processes     *
           *              working on a common directory               *
           ************************************************************
[1589382213.723526] [ty2019:9574 :0]            sys.c:618  UCX  ERROR shmget(size=2097152 flags=0xb80) for ucp_am_bufs failed: Operation not permitted, please check shared memory limits by 'ipcs -l'
[1589382213.724037] [ty2019:9573 :0]            sys.c:618  UCX  ERROR shmget(size=2097152 flags=0xb80) for ucp_am_bufs failed: Operation not permitted, please check shared memory limits by 'ipcs -l'
------------------------------------------------------------------------------
                         ORCA SCF GRADIENT CALCULATION
------------------------------------------------------------------------------

Gradient of the Kohn-Sham DFT energy:
Kohn-Sham wavefunction type      ... UKS
Hartree-Fock exchange scaling    ...    0.000
Number of operators              ...    2
Number of atoms                  ...   10
Basis set dimensions             ...   77
Integral neglect threshold       ... 2.5e-11
Integral primitive cutoff        ... 2.5e-12

[1589382213.915515] [ty2019:9575 :0]            sys.c:618  UCX  ERROR shmget(size=2097152 flags=0xb80) for ucp_am_bufs failed: Operation not permitted, please check shared memory limits by 'ipcs -l'
Nuclear repulsion gradient       ... done
One Electron Gradient            ... done
Pre-screening matrix             ... done
RI-J gradient                    ... done
Exchange-correlation gradient    ... done
Dispersion correction            ... done

------------------
CARTESIAN GRADIENT
------------------

   1   C   :   -0.001114107   -0.001191732   -0.001296350
   2   C   :    0.024370292    0.016033671    0.010550679
   3   C   :   -0.033109365   -0.031276218    0.038189329
   4   H   :    0.000095795   -0.000141621    0.000001634
   5   H   :   -0.000137266   -0.000079081    0.000139697
   6   H   :   -0.000252302    0.000028062   -0.000008036
   7   H   :    0.010973086    0.016387849   -0.046272174
   8   H   :   -0.000117701    0.000842154   -0.000872756
   9   H   :   -0.000716589   -0.000305699   -0.000253341
  10   H   :    0.000008157   -0.000297385   -0.000178682

Difference to translation invariance:
           :   -0.0000000000    0.0000000000    0.0000000000

Norm of the cartesian gradient     ...    0.0838570464
RMS gradient                       ...    0.0153101320
MAX gradient                       ...    0.0462721739

-------
TIMINGS
-------

Total SCF gradient time            ...        0.841 sec

One electron gradient       ....       0.008 sec  (  1.0%)
Prescreening matrices       ....       0.009 sec  (  1.1%)
RI-J Coulomb gradient       ....       0.108 sec  ( 12.9%)
XC gradient                 ....       0.289 sec  ( 34.4%)
CPCM gradient               ....       0.113 sec  ( 13.4%)
   A-Matrix (El+Nuc)        ....       0.018 sec  (  2.1%)
   Potential                ....       0.095 sec  ( 11.3%)
------------------------------------------------------------------------------
                         ORCA GEOMETRY RELAXATION STEP
------------------------------------------------------------------------------

Reading the OPT-File                    .... done
Getting information on internals        .... done
Copying old internal coords+grads       .... done
Making the new internal coordinates     .... (new redundants).... done
Validating the new internal coordinates .... (new redundants).... done
Calculating the B-matrix                .... done
Calculating the G,G- and P matrices     .... done
Transforming gradient to internals      .... done
Projecting the internal gradient        .... done
Number of atoms                         ....  10
Number of internal coordinates          ....  40
Current Energy                          ....  -118.195427380 Eh
Current gradient norm                   ....     0.083857046 Eh/bohr
Maximum allowed component of the step   ....  0.300
Current trust radius                    ....  0.300
Evaluating the initial hessian          ....  (Almloef) done
Projecting the Hessian                  .... done
Forming the augmented Hessian           .... done
Diagonalizing the augmented Hessian     .... done
Last element of RFO vector              ....  0.996674292
Lowest eigenvalues of augmented Hessian:
 -0.001419981  0.011580353  0.023548355  0.025545766  0.074484430
Length of the computed step             ....  0.081760286
The final length of the internal step   ....  0.081760286
Converting the step to cartesian space:
 Initial RMS(Int)=    0.0129274362
Transforming coordinates:
 Iter   0:  RMS(Cart)=    0.0128411907 RMS(Int)=    0.0128809178
 Iter   1:  RMS(Cart)=    0.0001124655 RMS(Int)=    0.0001329169
 Iter   2:  RMS(Cart)=    0.0000017169 RMS(Int)=    0.0000016138
 Iter   3:  RMS(Cart)=    0.0000000223 RMS(Int)=    0.0000000209
Imposing constraints:
 Iter   0:  RMS(Cart)=    0.0000436439 RMS(Int)=    0.0001088487
 Iter   1:  RMS(Cart)=    0.0000138888 RMS(Int)=    0.0000346387
 Iter   2:  RMS(Cart)=    0.0000044198 RMS(Int)=    0.0000110230
 Iter   3:  RMS(Cart)=    0.0000014065 RMS(Int)=    0.0000035078
 Iter   4:  RMS(Cart)=    0.0000004476 RMS(Int)=    0.0000011163
 Iter   5:  RMS(Cart)=    0.0000001424 RMS(Int)=    0.0000003552
 Iter   6:  RMS(Cart)=    0.0000000453 RMS(Int)=    0.0000001130
 Iter   7:  RMS(Cart)=    0.0000000144 RMS(Int)=    0.0000000360
CONVERGED
done
Storing new coordinates                 .... done

                                .--------------------.
          ----------------------|Geometry convergence|-------------------------
          Item                value                   Tolerance       Converged
          ---------------------------------------------------------------------
          RMS gradient        0.0032476984            0.0005000000      NO
          MAX gradient        0.0126741691            0.0020000000      NO
          RMS step            0.0129274362            0.0070000000      NO
          MAX step            0.0338998833            0.0100000000      NO
          ........................................................
          Max(Bonds)      0.0179      Max(Angles)    1.62
          Max(Dihed)        1.18      Max(Improp)    0.00
          ---------------------------------------------------------------------

The optimization has not yet converged - more geometry cycles are needed


    ---------------------------------------------------------------------------
                         Redundant Internal Coordinates
                            (Angstroem and degrees)

        Definition                    Value    dE/dq     Step     New-Value
    ----------------------------------------------------------------------------
     1. B(C   1,C   0)                1.5245  0.000862 -0.0012    1.5233   
     2. B(C   2,C   1)                1.4278 -0.026181  0.0179    1.4457   
     3. B(H   3,C   0)                1.1094 -0.000132  0.0002    1.1096   
     4. B(H   4,C   0)                1.1082  0.000199 -0.0003    1.1079   
     5. B(H   5,C   0)                1.1100  0.000082 -0.0001    1.1099   
     6. B(H   6,C   1)                1.0694 -0.017679  0.0162    1.0855   
     7. B(H   6,C   2)                1.7872 -0.036162 -0.0000    1.7872 C 
     8. B(H   7,C   1)                1.1119 -0.000505  0.0008    1.1127   
     9. B(H   8,C   2)                1.1034 -0.000249  0.0004    1.1037   
    10. B(H   9,C   2)                1.1017  0.000144 -0.0002    1.1015   
    11. A(H   4,C   0,H   5)          107.92 -0.000142    0.01    107.93   
    12. A(C   1,C   0,H   4)          111.54 -0.000019    0.01    111.55   
    13. A(C   1,C   0,H   3)          111.16 -0.000213    0.04    111.20   
    14. A(H   3,C   0,H   5)          107.46 -0.000042   -0.00    107.45   
    15. A(C   1,C   0,H   5)          110.79  0.000374   -0.08    110.71   
    16. A(H   3,C   0,H   4)          107.80  0.000034    0.02    107.82   
    17. A(C   0,C   1,C   2)          118.99  0.003507   -0.15    118.84   
    18. A(C   0,C   1,H   6)          114.35  0.001801   -0.09    114.27   
    19. A(C   2,C   1,H   6)           90.23 -0.002819   -1.62     88.61   
    20. A(C   0,C   1,H   7)          111.45 -0.001675    0.63    112.08   
    21. A(C   2,C   1,H   7)          112.69 -0.001397    0.59    113.29   
    22. A(H   6,C   1,H   7)          106.94  0.000421    0.25    107.19   
    23. A(C   1,C   2,H   8)          121.17 -0.000688    0.08    121.25   
    24. A(C   1,C   2,H   9)          120.49  0.000144   -0.06    120.43   
    25. A(H   8,C   2,H   9)          117.31  0.000595   -0.16    117.15   
    26. D(H   7,C   1,C   0,H   4)     56.11  0.000393   -0.38     55.73   
    27. D(C   2,C   1,C   0,H   4)   -170.13  0.000055    1.11   -169.02   
    28. D(C   2,C   1,C   0,H   3)    -49.79 -0.000061    1.17    -48.61   
    29. D(H   7,C   1,C   0,H   3)    176.46  0.000277   -0.32    176.13   
    30. D(H   6,C   1,C   0,H   3)     55.03 -0.000316   -1.07     53.95   
    31. D(H   6,C   1,C   0,H   5)    174.44 -0.000262   -1.10    173.34   
    32. D(H   7,C   1,C   0,H   5)    -64.13  0.000332   -0.35    -64.48   
    33. D(H   6,C   1,C   0,H   4)    -65.31 -0.000200   -1.13    -66.45   
    34. D(C   2,C   1,C   0,H   5)     69.62 -0.000006    1.15     70.77   
    35. D(H   9,C   2,C   1,H   7)    -37.15  0.000297    0.40    -36.75   
    36. D(H   8,C   2,C   1,H   6)    -96.69 -0.001054    0.83    -95.87   
    37. D(H   8,C   2,C   1,H   7)    154.80 -0.000067    1.18    155.98   
    38. D(H   9,C   2,C   1,C   0)   -170.38  0.000720   -1.12   -171.50   
    39. D(H   8,C   2,C   1,C   0)     21.58  0.000357   -0.34     21.24   
    40. D(H   9,C   2,C   1,H   6)     71.35 -0.000691    0.05     71.40   
    ----------------------------------------------------------------------------

         *************************************************************
         *                GEOMETRY OPTIMIZATION CYCLE   2            *
         *************************************************************
---------------------------------
CARTESIAN COORDINATES (ANGSTROEM)
---------------------------------
  C     -1.206759    0.112582    0.013365
  C      0.189479   -0.484605    0.132811
  C      1.324444    0.306579   -0.287524
  H     -1.243942    1.135183    0.442487
  H     -1.959864   -0.504496    0.542019
  H     -1.512131    0.186936   -1.051076
  H      0.592066   -0.478878    1.141083
  H      0.227355   -1.535694   -0.230396
  H      1.261348    1.406286   -0.357643
  H      2.327903   -0.143994   -0.345126

----------------------------
CARTESIAN COORDINATES (A.U.)
----------------------------
  NO LB      ZA    FRAG     MASS         X           Y           Z
   0 C     6.0000    0    12.011   -2.280444    0.212749    0.025256
   1 C     6.0000    0    12.011    0.358064   -0.915771    0.250976
   2 C     6.0000    0    12.011    2.502837    0.579351   -0.543342
   3 H     1.0000    0     1.008   -2.350709    2.145186    0.836180
   4 H     1.0000    0     1.008   -3.703606   -0.953360    1.024268
   5 H     1.0000    0     1.008   -2.857513    0.353258   -1.986245
   6 H     1.0000    0     1.008    1.118843   -0.904948    2.156334
   7 H     1.0000    0     1.008    0.429638   -2.902041   -0.435385
   8 H     1.0000    0     1.008    2.383602    2.657496   -0.675847
   9 H     1.0000    0     1.008    4.399100   -0.272109   -0.652193

--------------------------------
INTERNAL COORDINATES (ANGSTROEM)
--------------------------------
 C      0   0   0     0.000000000000     0.00000000     0.00000000
 C      1   0   0     1.523279536045     0.00000000     0.00000000
 C      2   1   0     1.445959713350   118.82605416     0.00000000
 H      1   2   3     1.109613864847   111.20390218   311.37976570
 H      1   2   3     1.107893179315   111.54885614   190.97692983
 H      1   2   3     1.109871430118   110.71152342    70.76204798
 H      2   1   3     1.085689433242   114.24505642   102.58218975
 H      2   1   3     1.112717473908   112.08188650   224.75307813
 H      3   2   1     1.103745087020   121.24939186    21.23917201
 H      3   2   1     1.101483148165   120.42736420   188.50747137

---------------------------
INTERNAL COORDINATES (A.U.)
---------------------------
 C      0   0   0     0.000000000000     0.00000000     0.00000000
 C      1   0   0     2.878581148531     0.00000000     0.00000000
 C      2   1   0     2.732467858914   118.82605416     0.00000000
 H      1   2   3     2.096866318963   111.20390218   311.37976570
 H      1   2   3     2.093614694544   111.54885614   190.97692983
 H      1   2   3     2.097353046786   110.71152342    70.76204798
 H      2   1   3     2.051655695320   114.24505642   102.58218975
 H      2   1   3     2.102731290114   112.08188650   224.75307813
 H      3   2   1     2.085775936128   121.24939186    21.23917201
 H      3   2   1     2.081501491161   120.42736420   188.50747137

[1589382215.506711] [ty2019:9596 :0]            sys.c:618  UCX  ERROR shmget(size=2097152 flags=0xfb0) for mm_recv_desc failed: Operation not permitted, please check shared memory limits by 'ipcs -l'
[1589382215.509343] [ty2019:9599 :0]            sys.c:618  UCX  ERROR shmget(size=2097152 flags=0xfb0) for mm_recv_desc failed: Operation not permitted, please check shared memory limits by 'ipcs -l'
[1589382215.509537] [ty2019:9598 :0]            sys.c:618  UCX  ERROR shmget(size=2097152 flags=0xfb0) for mm_recv_desc failed: Operation not permitted, please check shared memory limits by 'ipcs -l'
[1589382215.509762] [ty2019:9597 :0]            sys.c:618  UCX  ERROR shmget(size=2097152 flags=0xfb0) for mm_recv_desc failed: Operation not permitted, please check shared memory limits by 'ipcs -l'
[1589382215.517248] [ty2019:9598 :0]            sys.c:618  UCX  ERROR shmget(size=2097152 flags=0xb80) for ucp_am_bufs failed: Operation not permitted, please check shared memory limits by 'ipcs -l'
[1589382215.517984] [ty2019:9599 :0]            sys.c:618  UCX  ERROR shmget(size=2097152 flags=0xb80) for ucp_am_bufs failed: Operation not permitted, please check shared memory limits by 'ipcs -l'
[1589382215.518247] [ty2019:9596 :0]            sys.c:618  UCX  ERROR shmget(size=2097152 flags=0xb80) for ucp_am_bufs failed: Operation not permitted, please check shared memory limits by 'ipcs -l'


           ************************************************************
           *        Program running with 4 parallel MPI-processes     *
           *              working on a common directory               *
           ************************************************************
[1589382215.519433] [ty2019:9597 :0]            sys.c:618  UCX  ERROR shmget(size=2097152 flags=0xb80) for ucp_am_bufs failed: Operation not permitted, please check shared memory limits by 'ipcs -l'
 One Electron integrals                  ... done
 Pre-screening matrix                    ... done
[1589382216.554651] [ty2019:9618 :0]            sys.c:618  UCX  ERROR shmget(size=2097152 flags=0xfb0) for mm_recv_desc failed: Operation not permitted, please check shared memory limits by 'ipcs -l'
[1589382216.557291] [ty2019:9621 :0]            sys.c:618  UCX  ERROR shmget(size=2097152 flags=0xfb0) for mm_recv_desc failed: Operation not permitted, please check shared memory limits by 'ipcs -l'
[1589382216.565008] [ty2019:9619 :0]            sys.c:618  UCX  ERROR shmget(size=2097152 flags=0xfb0) for mm_recv_desc failed: Operation not permitted, please check shared memory limits by 'ipcs -l'
[1589382216.565028] [ty2019:9620 :0]            sys.c:618  UCX  ERROR shmget(size=2097152 flags=0xfb0) for mm_recv_desc failed: Operation not permitted, please check shared memory limits by 'ipcs -l'
[1589382216.571939] [ty2019:9618 :0]            sys.c:618  UCX  ERROR shmget(size=2097152 flags=0xb80) for ucp_am_bufs failed: Operation not permitted, please check shared memory limits by 'ipcs -l'
[1589382216.571918] [ty2019:9620 :0]            sys.c:618  UCX  ERROR shmget(size=2097152 flags=0xb80) for ucp_am_bufs failed: Operation not permitted, please check shared memory limits by 'ipcs -l'


           ************************************************************
           *        Program running with 4 parallel MPI-processes     *
           *              working on a common directory               *
           ************************************************************
[1589382216.574859] [ty2019:9619 :0]            sys.c:618  UCX  ERROR shmget(size=2097152 flags=0xb80) for ucp_am_bufs failed: Operation not permitted, please check shared memory limits by 'ipcs -l'

Diagonalization of the overlap matrix:
Smallest eigenvalue                        ... 2.891e-03
Time for diagonalization                   ...    0.002 sec
Threshold for overlap eigenvalues          ... 1.000e-08
Number of eigenvalues below threshold      ... 0
Time for construction of square roots      ...    0.001 sec
Total time needed                          ...    0.003 sec

[1589382216.583012] [ty2019:9621 :0]            sys.c:618  UCX  ERROR shmget(size=2097152 flags=0xb80) for ucp_am_bufs failed: Operation not permitted, please check shared memory limits by 'ipcs -l'
-------------------
DFT GRID GENERATION
-------------------

General Integration Accuracy     IntAcc      ...  4.340
Radial Grid Type                 RadialGrid  ... Gauss-Chebyshev
Angular Grid (max. acc.)         AngularGrid ... Lebedev-110
Angular grid pruning method      GridPruning ... 3 (G Style)
Weight generation scheme         WeightScheme... Becke
Basis function cutoff            BFCut       ...    1.0000e-11
Integration weight cutoff        WCut        ...    1.0000e-14
Grids for H and He will be reduced by one unit

# of grid points (after initial pruning)     ...  10526 (   0.0 sec)
# of grid points (after weights+screening)   ...  10032 (   0.0 sec)
nearest neighbour list constructed           ...    0.0 sec
Grid point re-assignment to atoms done       ...    0.0 sec
Grid point division into batches done        ...    0.0 sec
Reduced shell lists constructed in    0.0 sec

Total number of grid points                  ...    10032
Total number of batches                      ...      163
Average number of points per batch           ...       61
Average number of grid points per atom       ...     1003
Average number of shells per batch           ...    36.05 (92.43%)
Average number of basis functions per batch  ...    71.33 (92.64%)
Average number of large shells per batch     ...    33.67 (93.39%)
Average number of large basis fcns per batch ...    66.29 (92.92%)
Maximum spatial batch extension              ...  17.58, 15.16, 18.29 au
Average spatial batch extension              ...   0.57,  0.55,  0.66 au

Time for grid setup =    0.023 sec


--------------------
CPCM SOLVATION MODEL
--------------------
CPCM parameters:
  Epsilon                                         ...      80.4000
  Refrac                                          ...       1.3300
  Rsolv                                           ...       1.3000
  Surface type                                    ... GAUSSIAN VDW
  Epsilon function type                           ...         CPCM
Radii:
 Radius for C  used is    3.8550 Bohr (=   2.0400 Ang.)
 Radius for H  used is    2.4944 Bohr (=   1.3200 Ang.)
Calculating surface                               ...        done! (  0.0s)
GEPOL surface points                              ...          614
GEPOL Volume                                      ...     536.2746
GEPOL Surface-area                                ...     353.1606
Calculating surface distance matrix               ...        done! (  0.0s)
Performing Cholesky decomposition & store         ...        done! (  0.0s)
Overall time for CPCM initialization              ...                 0.0s
--------------
SCF ITERATIONS
--------------
ITER       Energy         Delta-E        Max-DP      RMS-DP      [F,P]     Damp
               ***  Starting incremental Fock matrix formation  ***
  0   -118.1902094921   0.000000000000 0.00164129  0.00006273  0.0054214 0.7000
  1   -118.1902745737  -0.000065081566 0.00133065  0.00005533  0.0035755 0.7000
                               ***Turning on DIIS***
  2   -118.1903219384  -0.000047364696 0.00322090  0.00013892  0.0021607 0.0000
  3   -118.1904312536  -0.000109315209 0.00072294  0.00003591  0.0006773 0.0000
  4   -118.1904326403  -0.000001386658 0.00045075  0.00001620  0.0007385 0.0000
  5   -118.1904341705  -0.000001530267 0.00012356  0.00000446  0.0002296 0.0000
  6   -118.1904343152  -0.000000144667 0.00003487  0.00000116  0.0000334 0.0000
[...]
  34   0.0000       0.649429        17.6719 
  35   0.0000       0.657160        17.8822 
  36   0.0000       0.668621        18.1941 
  37   0.0000       0.691304        18.8114 
  38   0.0000       0.733040        19.9470 
  39   0.0000       0.814685        22.1687 
  40   0.0000       0.914871        24.8949 
  41   0.0000       1.135387        30.8955 
  42   0.0000       1.169586        31.8261 
  43   0.0000       1.210764        32.9466 
  44   0.0000       1.287880        35.0450 
  45   0.0000       1.439022        39.1578 
  46   0.0000       1.472348        40.0646 
  47   0.0000       1.515571        41.2408 
  48   0.0000       1.541648        41.9504 
  49   0.0000       1.646222        44.7960 
  50   0.0000       1.666302        45.3424 
  51   0.0000       1.692567        46.0571 
  52   0.0000       1.715697        46.6865 
  53   0.0000       1.720878        46.8275 
  54   0.0000       1.723175        46.8900 
  55   0.0000       1.768486        48.1230 
  56   0.0000       1.801812        49.0298 
  57   0.0000       1.851445        50.3804 
  58   0.0000       1.887279        51.3555 
  59   0.0000       1.984947        54.0131 
  60   0.0000       2.025640        55.1205 
  61   0.0000       2.102510        57.2122 
  62   0.0000       2.129977        57.9596 
  63   0.0000       2.194756        59.7224 
  64   0.0000       2.274797        61.9004 
  65   0.0000       2.322277        63.1924 
  66   0.0000       2.376580        64.6700 
  67   0.0000       2.444072        66.5066 
  68   0.0000       2.459446        66.9249 
  69   0.0000       2.529227        68.8238 
  70   0.0000       2.673432        72.7478 
  71   0.0000       2.748652        74.7946 
  72   0.0000       2.819309        76.7173 
  73   0.0000       2.885904        78.5294 
  74   0.0000       2.901126        78.9437 
  75   0.0000       2.935734        79.8854 
  76   0.0000       3.015905        82.0669 

                    ********************************
                    * MULLIKEN POPULATION ANALYSIS *
                    ********************************

--------------------------------------------
MULLIKEN ATOMIC CHARGES AND SPIN POPULATIONS
--------------------------------------------
   0 C :   -0.046877    0.002277
   1 C :   -0.044427   -0.029261
   2 C :   -0.196559    1.045699
   3 H :    0.031778   -0.000341
   4 H :    0.036211   -0.000483
   5 H :    0.035700    0.010149
   6 H :    0.049890    0.052502
   7 H :    0.043667    0.011205
   8 H :    0.046134   -0.045865
   9 H :    0.044483   -0.045882
Sum of atomic charges         :   -0.0000000
Sum of atomic spin populations:    1.0000000

-----------------------------------------------------
MULLIKEN REDUCED ORBITAL CHARGES AND SPIN POPULATIONS
-----------------------------------------------------
CHARGE
  0 C s       :     3.028060  s :     3.028060
      pz      :     1.015998  p :     2.994324
      px      :     0.972487
      py      :     1.005839
      dz2     :     0.005319  d :     0.024493
      dxz     :     0.005291
      dyz     :     0.002945
      dx2y2   :     0.005883
      dxy     :     0.005055
  1 C s       :     3.034061  s :     3.034061
      pz      :     1.010176  p :     2.973355
      px      :     0.950497
      py      :     1.012683
      dz2     :     0.007882  d :     0.037011
      dxz     :     0.008310
      dyz     :     0.002937
      dx2y2   :     0.009918
      dxy     :     0.007964
  2 C s       :     3.216104  s :     3.216104
      pz      :     1.051054  p :     2.958299
      px      :     0.952692
      py      :     0.954553
      dz2     :     0.003674  d :     0.022156
      dxz     :     0.002798
      dyz     :     0.002304
      dx2y2   :     0.007908
      dxy     :     0.005472
  3 H s       :     0.945281  s :     0.945281
      pz      :     0.006352  p :     0.022942
      px      :     0.004362
      py      :     0.012227
  4 H s       :     0.940971  s :     0.940971
      pz      :     0.007272  p :     0.022818
      px      :     0.008143
      py      :     0.007403
  5 H s       :     0.941412  s :     0.941412
      pz      :     0.012615  p :     0.022888
      px      :     0.005038
      py      :     0.005235
  6 H s       :     0.921660  s :     0.921660
      pz      :     0.014117  p :     0.028449
      px      :     0.007667
      py      :     0.006665
  7 H s       :     0.934380  s :     0.934380
      pz      :     0.005735  p :     0.021953
      px      :     0.003696
      py      :     0.012522
  8 H s       :     0.930828  s :     0.930828
      pz      :     0.005438  p :     0.023038
      px      :     0.004222
      py      :     0.013378
  9 H s       :     0.932588  s :     0.932588
      pz      :     0.005524  p :     0.022928
      px      :     0.011711
      py      :     0.005693

SPIN
  0 C s       :    -0.001475  s :    -0.001475
      pz      :    -0.001352  p :     0.003512
      px      :     0.002638
      py      :     0.002226
      dz2     :     0.000128  d :     0.000240
      dxz     :     0.000032
      dyz     :     0.000115
      dx2y2   :    -0.000027
      dxy     :    -0.000008
  1 C s       :    -0.012050  s :    -0.012050
      pz      :     0.012374  p :    -0.023040
      px      :    -0.021401
      py      :    -0.014014
      dz2     :     0.004325  d :     0.005828
      dxz     :     0.000300
      dyz     :     0.000913
      dx2y2   :     0.000157
      dxy     :     0.000133
  2 C s       :     0.095649  s :     0.095649
      pz      :     0.855041  p :     0.952150
      px      :     0.059122
      py      :     0.037987
      dz2     :    -0.002009  d :    -0.002101
      dxz     :    -0.000112
      dyz     :     0.000037
      dx2y2   :     0.000087
      dxy     :    -0.000104
  3 H s       :    -0.000382  s :    -0.000382
      pz      :     0.000001  p :     0.000042
      px      :     0.000039
      py      :     0.000001
  4 H s       :    -0.000480  s :    -0.000480
      pz      :    -0.000011  p :    -0.000003
      px      :     0.000016
      py      :    -0.000008
  5 H s       :     0.010186  s :     0.010186
      pz      :    -0.000054  p :    -0.000036
      px      :    -0.000005
      py      :     0.000023
  6 H s       :     0.049490  s :     0.049490
      pz      :    -0.000420  p :     0.003012
      px      :     0.002500
      py      :     0.000932
  7 H s       :     0.011176  s :     0.011176
      pz      :     0.000041  p :     0.000029
      px      :     0.000045
      py      :    -0.000056
  8 H s       :    -0.050814  s :    -0.050814
      pz      :     0.004695  p :     0.004949
      px      :     0.000018
      py      :     0.000237
  9 H s       :    -0.050747  s :    -0.050747
      pz      :     0.004801  p :     0.004865
      px      :     0.000146
      py      :    -0.000081


                     *******************************
                     * LOEWDIN POPULATION ANALYSIS *
                     *******************************

-------------------------------------------
LOEWDIN ATOMIC CHARGES AND SPIN POPULATIONS
-------------------------------------------
   0 C :   -0.073311    0.008172
   1 C :   -0.070526    0.028156
   2 C :   -0.085765    0.885058
   3 H :    0.032143    0.000599
   4 H :    0.032834   -0.000670
   5 H :    0.030571    0.005672
   6 H :    0.058596    0.059780
   7 H :    0.038059    0.011277
   8 H :    0.018112    0.001158
   9 H :    0.019286    0.000799

----------------------------------------------------
LOEWDIN REDUCED ORBITAL CHARGES AND SPIN POPULATIONS
----------------------------------------------------
CHARGE
  0 C s       :     2.851561  s :     2.851561
      pz      :     1.069268  p :     3.155184
      px      :     1.022993
      py      :     1.062924
      dz2     :     0.015639  d :     0.066566
      dxz     :     0.012805
      dyz     :     0.008163
      dx2y2   :     0.016113
      dxy     :     0.013846
  1 C s       :     2.833211  s :     2.833211
      pz      :     1.058181  p :     3.141622
      px      :     1.025292
      py      :     1.058149
      dz2     :     0.021362  d :     0.095694
      dxz     :     0.018955
      dyz     :     0.007845
      dx2y2   :     0.025887
      dxy     :     0.021645
  2 C s       :     2.932792  s :     2.932792
      pz      :     1.012273  p :     3.096288
      px      :     1.037302
      py      :     1.046713
      dz2     :     0.006764  d :     0.056684
      dxz     :     0.005793
      dyz     :     0.004811
      dx2y2   :     0.022516
      dxy     :     0.016800
  3 H s       :     0.903907  s :     0.903907
      pz      :     0.015767  p :     0.063949
      px      :     0.011993
      py      :     0.036189
  4 H s       :     0.903150  s :     0.903150
      pz      :     0.019034  p :     0.064016
      px      :     0.024804
      py      :     0.020179
  5 H s       :     0.905336  s :     0.905336
      pz      :     0.037487  p :     0.064093
      px      :     0.014241
      py      :     0.012366
  6 H s       :     0.860375  s :     0.860375
      pz      :     0.041260  p :     0.081029
      px      :     0.022739
      py      :     0.017029
  7 H s       :     0.897890  s :     0.897890
      pz      :     0.015600  p :     0.064051
      px      :     0.011131
      py      :     0.037320
  8 H s       :     0.908271  s :     0.908271
      pz      :     0.020902  p :     0.073617
      px      :     0.011016
      py      :     0.041699
  9 H s       :     0.907034  s :     0.907034
      pz      :     0.020965  p :     0.073679
      px      :     0.036428
      py      :     0.016286

SPIN
  0 C s       :     0.002480  s :     0.002480
      pz      :    -0.000423  p :     0.004882
      px      :     0.003574
      py      :     0.001731
      dz2     :     0.000366  d :     0.000810
      dxz     :     0.000220
      dyz     :     0.000333
      dx2y2   :    -0.000058
      dxy     :    -0.000052
  1 C s       :    -0.001650  s :    -0.001650
      pz      :     0.027050  p :     0.015052
      px      :    -0.006866
      py      :    -0.005132
      dz2     :     0.010249  d :     0.014754
      dxz     :     0.001034
      dyz     :     0.002148
      dx2y2   :     0.000518
      dxy     :     0.000804
  2 C s       :     0.032801  s :     0.032801
      pz      :     0.793902  p :     0.854593
      px      :     0.044015
      py      :     0.016676
      dz2     :    -0.001093  d :    -0.002336
      dxz     :     0.000007
      dyz     :     0.000196
      dx2y2   :    -0.000712
      dxy     :    -0.000734
  3 H s       :     0.000492  s :     0.000492
      pz      :    -0.000006  p :     0.000107
      px      :     0.000109
      py      :     0.000003
  4 H s       :    -0.000774  s :    -0.000774
      pz      :    -0.000001  p :     0.000103
      px      :     0.000101
      py      :     0.000004
  5 H s       :     0.005097  s :     0.005097
      pz      :     0.000194  p :     0.000574
      px      :     0.000208
      py      :     0.000173
  6 H s       :     0.051467  s :     0.051467
      pz      :     0.000013  p :     0.008313
      px      :     0.005704
      py      :     0.002596
  7 H s       :     0.010559  s :     0.010559
      pz      :     0.000954  p :     0.000718
      px      :    -0.000026
      py      :    -0.000210
  8 H s       :    -0.021604  s :    -0.021604
      pz      :     0.019087  p :     0.022762
      px      :     0.000845
      py      :     0.002830
  9 H s       :    -0.021816  s :    -0.021816
      pz      :     0.019276  p :     0.022615
      px      :     0.002589
      py      :     0.000751


                      *****************************
                      * MAYER POPULATION ANALYSIS *
                      *****************************

  NA   - Mulliken gross atomic population
  ZA   - Total nuclear charge
  QA   - Mulliken gross atomic charge
  VA   - Mayer's total valence
  BVA  - Mayer's bonded valence
  FA   - Mayer's free valence

  ATOM       NA         ZA         QA         VA         BVA        FA
  0 C      6.0469     6.0000    -0.0469     4.0022     4.0022     0.0001
  1 C      6.0444     6.0000    -0.0444     4.0978     4.0941     0.0037
  2 C      6.1966     6.0000    -0.1966     3.9130     3.1077     0.8053
  3 H      0.9682     1.0000     0.0318     0.9894     0.9894     0.0000
  4 H      0.9638     1.0000     0.0362     0.9849     0.9849     0.0000
  5 H      0.9643     1.0000     0.0357     0.9859     0.9857     0.0001
  6 H      0.9501     1.0000     0.0499     0.9791     0.9758     0.0033
  7 H      0.9563     1.0000     0.0437     0.9752     0.9751     0.0002
  8 H      0.9539     1.0000     0.0461     0.9853     0.9827     0.0027
  9 H      0.9555     1.0000     0.0445     0.9794     0.9767     0.0027

  Mayer bond orders larger than 0.100000
B(  0-C ,  1-C ) :   1.1078 B(  0-C ,  3-H ) :   0.9629 B(  0-C ,  4-H ) :   0.9624 
B(  0-C ,  5-H ) :   0.9683 B(  1-C ,  2-C ) :   1.1053 B(  1-C ,  6-H ) :   0.8989 
B(  1-C ,  7-H ) :   0.9398 B(  2-C ,  8-H ) :   0.9603 B(  2-C ,  9-H ) :   0.9602 



------------------
HIRSHFELD ANALYSIS
------------------

Total integrated alpha density =     12.999738187
Total integrated beta density  =     11.998997475

  ATOM     CHARGE      SPIN    
   0 C   -0.070094    0.013742
   1 C   -0.043677    0.082987
   2 C   -0.083566    0.722397
   3 H    0.030188    0.001024
   4 H    0.030167    0.000050
   5 H    0.025453    0.006779
   6 H    0.037922    0.063883
   7 H    0.036499    0.013955
   8 H    0.017563    0.048844
   9 H    0.020808    0.047082

  TOTAL   0.001264    1.000741

-------
TIMINGS
-------

Total SCF time: 0 days 0 hours 0 min 2 sec 

Total time                  ....       2.495 sec
Sum of individual times     ....       2.333 sec  ( 93.5%)

Fock matrix formation       ....       2.116 sec  ( 84.8%)
  Split-RI-J                ....       0.566 sec  ( 26.7% of F)
  XC integration            ....       0.206 sec  (  9.7% of F)
    Basis function eval.    ....       0.060 sec  ( 29.1% of XC)
    Density eval.           ....       0.043 sec  ( 20.8% of XC)
    XC-Functional eval.     ....       0.019 sec  (  9.2% of XC)
    XC-Potential eval.      ....       0.066 sec  ( 32.1% of XC)
Diagonalization             ....       0.009 sec  (  0.4%)
Density matrix formation    ....       0.001 sec  (  0.0%)
Population analysis         ....       0.032 sec  (  1.3%)
Initial guess               ....       0.003 sec  (  0.1%)
Orbital Transformation      ....       0.000 sec  (  0.0%)
Orbital Orthonormalization  ....       0.001 sec  (  0.1%)
DIIS solution               ....       0.003 sec  (  0.1%)
Grid generation             ....       0.170 sec  (  6.8%)


-------------------------------------------------------------------------------
                          DFT DISPERSION CORRECTION                            
                                                                               
                              DFTD3 V3.1  Rev 1                                
                          USING Becke-Johnson damping                          
-------------------------------------------------------------------------------
The PBE functional is recognized
Active option DFTDOPT                   ...         4   

molecular C6(AA) [au] = 669.791970 


            DFT-D V3
 parameters
 s6 scaling factor         :     1.0000 
 a1 scaling factor         :     0.4289 
 s8 scaling factor         :     0.7875 
 a2 scaling factor         :     4.4407 
 ad hoc parameters k1-k3   :    16.0000     1.3333    -4.0000 

 Edisp/kcal,au: -3.398817819522  -0.005416360386 
 E6   /kcal   :  -2.470289711 
 E8   /kcal   :  -0.928528109 
 % E8         :  27.319149123 

-------------------------   ----------------
Dispersion correction           -0.005416360
-------------------------   ----------------


-------------------------   --------------------
FINAL SINGLE POINT ENERGY      -118.196822290914
-------------------------   --------------------

                                *** OPTIMIZATION RUN DONE ***

                            ***************************************
                            *     ORCA property calculations      *
                            ***************************************

                                    ---------------------
                                    Active property flags
                                    ---------------------
   (+) Dipole Moment


------------------------------------------------------------------------------
                       ORCA ELECTRIC PROPERTIES CALCULATION
------------------------------------------------------------------------------

Dipole Moment Calculation                       ... on
Quadrupole Moment Calculation                   ... off
Polarizability Calculation                      ... off
GBWName                                         ... m-mfaV_2-6_hl1d_fbond_scan_4_orca.gbw
Electron density file                           ... m-mfaV_2-6_hl1d_fbond_scan_4_orca.scfp
The origin for moment calculation is the CENTER OF MASS  = ( 0.141402, -0.036631 -0.091532)

-------------
DIPOLE MOMENT
-------------
                                X             Y             Z
Electronic contribution:      0.66447      -0.29926      -0.24908
Nuclear contribution   :     -0.76642       0.19841       0.49605
                        -----------------------------------------
Total Dipole Moment    :     -0.10194      -0.10085       0.24697
                        -----------------------------------------
Magnitude (a.u.)       :      0.28558
Magnitude (Debye)      :      0.72589



--------------------
Rotational spectrum 
--------------------
 
Rotational constants in cm-1:     1.190172     0.290451     0.257102 
Rotational constants in MHz : 35680.457939  8707.487704  7707.709208 

 Dipole components along the rotational axes: 
x,y,z [a.u.] :    -0.133798     0.157123     0.197403 
x,y,z [Debye]:    -0.340087     0.399376     0.501757 

 
[1589382276.229218] [ty2019:10206:0]            sys.c:618  UCX  ERROR shmget(size=2097152 flags=0xfb0) for mm_recv_desc failed: Operation not permitted, please check shared memory limits by 'ipcs -l'
[1589382276.231985] [ty2019:10207:0]            sys.c:618  UCX  ERROR shmget(size=2097152 flags=0xfb0) for mm_recv_desc failed: Operation not permitted, please check shared memory limits by 'ipcs -l'
[1589382276.234024] [ty2019:10209:0]            sys.c:618  UCX  ERROR shmget(size=2097152 flags=0xfb0) for mm_recv_desc failed: Operation not permitted, please check shared memory limits by 'ipcs -l'
[1589382276.237017] [ty2019:10208:0]            sys.c:618  UCX  ERROR shmget(size=2097152 flags=0xfb0) for mm_recv_desc failed: Operation not permitted, please check shared memory limits by 'ipcs -l'
[1589382276.242839] [ty2019:10206:0]            sys.c:618  UCX  ERROR shmget(size=2097152 flags=0xb80) for ucp_am_bufs failed: Operation not permitted, please check shared memory limits by 'ipcs -l'
[1589382276.243180] [ty2019:10208:0]            sys.c:618  UCX  ERROR shmget(size=2097152 flags=0xb80) for ucp_am_bufs failed: Operation not permitted, please check shared memory limits by 'ipcs -l'
[1589382276.245519] [ty2019:10207:0]            sys.c:618  UCX  ERROR shmget(size=2097152 flags=0xb80) for ucp_am_bufs failed: Operation not permitted, please check shared memory limits by 'ipcs -l'

Timings for individual modules:

Sum of individual times         ...       67.588 sec (=   1.126 min)
GTO integral calculation        ...       10.191 sec (=   0.170 min)  15.1 %
SCF iterations                  ...       41.650 sec (=   0.694 min)  61.6 %
SCF Gradient evaluation         ...       15.214 sec (=   0.254 min)  22.5 %
Geometry relaxation             ...        0.533 sec (=   0.009 min)   0.8 %
                             ****ORCA TERMINATED NORMALLY****
TOTAL RUN TIME: 0 days 0 hours 1 minutes 9 seconds 321 msec
