
                                 *****************
                                 * O   R   C   A *
                                 *****************

           --- An Ab Initio, DFT and Semiempirical electronic structure package ---

                  #######################################################
                  #                        -***-                        #
                  #          Department of theory and spectroscopy      #
                  #               Directorship: Frank Neese             #
                  #        Max Planck Institute fuer Kohlenforschung    #
                  #                Kaiser Wilhelm Platz 1               #
                  #                 D-45470 Muelheim/Ruhr               #
                  #                      Germany                        #
                  #                                                     #
                  #                  All rights reserved                #
                  #                        -***-                        #
                  #######################################################


                         Program Version 4.2.1 -  RELEASE  -


 With contributions from (in alphabetic order):
   Daniel Aravena         : Magnetic Suceptibility
   Michael Atanasov       : Ab Initio Ligand Field Theory (pilot matlab implementation)
   Alexander A. Auer      : GIAO ZORA, VPT2
   Ute Becker             : Parallelization
   Giovanni Bistoni       : ED, misc. LED, open-shell LED, HFLD
   Martin Brehm           : Molecular dynamics
   Dmytro Bykov           : SCF Hessian
   Vijay G. Chilkuri      : MRCI spin determinant printing, contributions to CSF-ICE
   Dipayan Datta          : RHF DLPNO-CCSD density
   Achintya Kumar Dutta   : EOM-CC, STEOM-CC
   Dmitry Ganyushin       : Spin-Orbit,Spin-Spin,Magnetic field MRCI
   Miquel Garcia          : C-PCM Hessian, Gaussian charge scheme
   Yang Guo               : DLPNO-NEVPT2, CIM, IAO-localization
   Andreas Hansen         : Spin unrestricted coupled pair/coupled cluster methods
   Benjamin Helmich-Paris : CASSCF linear response (MC-RPA)
   Lee Huntington         : MR-EOM, pCC
   Robert Izsak           : Overlap fitted RIJCOSX, COSX-SCS-MP3, EOM
   Christian Kollmar      : KDIIS, OOCD, Brueckner-CCSD(T), CCSD density
   Simone Kossmann        : Meta GGA functionals, TD-DFT gradient, OOMP2, MP2 Hessian
   Martin Krupicka        : AUTO-CI
   Lucas Lang             : DCDCAS
   Dagmar Lenk            : GEPOL surface, SMD
   Dimitrios Liakos       : Extrapolation schemes; Compound Job, initial MDCI parallelization
   Dimitrios Manganas     : Further ROCIS development; embedding schemes
   Dimitrios Pantazis     : SARC Basis sets
   Taras Petrenko         : DFT Hessian,TD-DFT gradient, ASA, ECA, R-Raman, ABS, FL, XAS/XES, NRVS
   Peter Pinski           : DLPNO-MP2, DLPNO-MP2 Gradient
   Christoph Reimann      : Effective Core Potentials
   Marius Retegan         : Local ZFS, SOC
   Christoph Riplinger    : Optimizer, TS searches, QM/MM, DLPNO-CCSD(T), (RO)-DLPNO pert. Triples
   Tobias Risthaus        : Range-separated hybrids, TD-DFT gradient, RPA, STAB
   Michael Roemelt        : Original ROCIS implementation
   Masaaki Saitow         : Open-shell DLPNO-CCSD energy and density
   Barbara Sandhoefer     : DKH picture change effects
   Avijit Sen             : IP-ROCIS
   Kantharuban Sivalingam : CASSCF convergence, NEVPT2, FIC-MRCI
   Bernardo de Souza      : ESD, SOC TD-DFT
   Georgi Stoychev        : AutoAux, RI-MP2 NMR
   Willem Van den Heuvel  : Paramagnetic NMR
   Boris Wezisla          : Elementary symmetry handling
   Frank Wennmohs         : Technical directorship


 We gratefully acknowledge several colleagues who have allowed us to
 interface, adapt or use parts of their codes:
   Stefan Grimme, W. Hujo, H. Kruse,             : VdW corrections, initial TS optimization,
                  C. Bannwarth                     DFT functionals, gCP, sTDA/sTD-DF
   Ed Valeev, F. Pavosevic, A. Kumar             : LibInt (2-el integral package), F12 methods
   Garnet Chan, S. Sharma, J. Yang, R. Olivares  : DMRG
   Ulf Ekstrom                                   : XCFun DFT Library
   Mihaly Kallay                                 : mrcc  (arbitrary order and MRCC methods)
   Andreas Klamt, Michael Diedenhofen            : otool_cosmo (COSMO solvation model)
   Jiri Pittner, Ondrej Demel                    : Mk-CCSD
   Frank Weinhold                                : gennbo (NPA and NBO analysis)
   Christopher J. Cramer and Donald G. Truhlar   : smd solvation model
   Lars Goerigk                                  : TD-DFT with DH, B97 family of functionals
   V. Asgeirsson, H. Jonsson                     : NEB implementation
   FAccTs GmbH                                   : IRC, NEB, NEB-TS, Multilevel, MM, QM/MM, CI optimization
   S Lehtola, MJT Oliveira, MAL Marques          : LibXC Library


 Your calculation uses the libint2 library for the computation of 2-el integrals
 For citations please refer to: http://libint.valeyev.net

 Your ORCA version has been built with support for libXC version: 4.2.3
 For citations please refer to: https://tddft.org/programs/libxc/

 This ORCA versions uses:
   CBLAS   interface :  Fast vector & matrix operations
   LAPACKE interface :  Fast linear algebra routines
   SCALAPACK package :  Parallel linear algebra routines


Your calculation utilizes the atom-pairwise dispersion correction
with the Becke-Johnson damping scheme (D3BJ)
Cite in your paper:
S.Grimme, S.Ehrlich, L.Goerigk, J Comput Chem, (2011), 32, 1456–1465 
S.Grimme, J.Antony, S.Ehrlich and H.Krieg, J.Chem.Phys., 132, (2010), 154104 
   

----- Orbital basis set information -----
Your calculation utilizes the basis: def2-SVP
   F. Weigend and R. Ahlrichs, Phys. Chem. Chem. Phys. 7, 3297 (2005).

----- AuxJ basis set information -----
Your calculation utilizes the auxiliary basis: def2/J
   F. Weigend, Phys. Chem. Chem. Phys. 8, 1057 (2006).

================================================================================
                                        WARNINGS
                       Please study these warnings very carefully!
================================================================================


WARNING: your system is open-shell and RHF/RKS was chosen
  ===> : WILL SWITCH to UHF/UKS


WARNING: Geometry Optimization
  ===> : Switching off AutoStart
         For restart on a previous wavefunction, please use MOREAD

INFO   : the flag for use of LIBINT has been found!

================================================================================
                                       INPUT FILE
================================================================================
NAME = m-mfaV_2-6_hl1d_fbond_scan_0_orca.inp
|  1> ! LooseOpt PBE RI D3BJ def2-SVP def2/J CPCM(Water)
|  2> %cpcm
|  3>  surfacetype vdw_gaussian
|  4> end
|  5> %geom Constraints
|  6> { B 2 6 2.1872432992239337 C }
|  7>     end
|  8> end
|  9> %geom MaxIter 100 end
| 10> %pal nprocs 4
| 11> end
| 12> %output 
| 13> xyzfile=True 
| 14> end 
| 15> %scf 
| 16> maxiter 250 
| 17> end
| 18> %output
| 19> Print[P_Hirshfeld] = 1
| 20> end
| 21> % maxcore
| 22> 4000
| 23> *xyz 0 2
| 24> C   -1.18490000   0.09830000  -0.01420000 
| 25> C    0.21850000  -0.44640000   0.24130000 
| 26> C    1.26010000   0.43090000  -0.37970000 
| 27> H   -1.19780000   1.20990000   0.09510000 
| 28> H   -1.85350000  -0.40480000   0.71120000 
| 29> H   -1.45310000  -0.12700000  -1.07020000 
| 30> H    0.36460000  -0.59570000   1.33150000 
| 31> H    0.25760000  -1.43420000  -0.29700000 
| 32> H    1.44600000   1.36670000   0.13380000 
| 33> H    2.14240000  -0.09780000  -0.75180000 
| 34> *
| 35> 
| 36>                          ****END OF INPUT****
================================================================================

                       *****************************
                       * Geometry Optimization Run *
                       *****************************

Geometry optimization settings:
Update method            Update   .... BFGS
Choice of coordinates    CoordSys .... Z-matrix Internals
Initial Hessian          InHess   .... Almoef's Model

Convergence Tolerances:
Energy Change            TolE     ....  3.0000e-05 Eh
Max. Gradient            TolMAXG  ....  2.0000e-03 Eh/bohr
RMS Gradient             TolRMSG  ....  5.0000e-04 Eh/bohr
Max. Displacement        TolMAXD  ....  1.0000e-02 bohr
RMS Displacement         TolRMSD  ....  7.0000e-03 bohr
Strict Convergence                ....  False
------------------------------------------------------------------------------
                        ORCA OPTIMIZATION COORDINATE SETUP
------------------------------------------------------------------------------

The optimization will be done in new redundant internal coordinates
Making redundant internal coordinates   ...  (new redundants) done
Evaluating the initial hessian          ...  (Almloef) done
Evaluating the coordinates              ...  done
Calculating the B-matrix                .... done
Calculating the G-matrix                .... done
Diagonalizing the G-matrix              .... done
Imposing constraints:
 Iter   0:  RMS(Cart)=    0.0000000005 RMS(Int)=    0.0000000012
CONVERGED
The first mode is                       ....   16
The number of degrees of freedom        ....   24
Storing new coordinates                 .... done

    -----------------------------------------------------------------
                    Redundant Internal Coordinates


    -----------------------------------------------------------------
         Definition                    Initial Value    Approx d2E/dq
    -----------------------------------------------------------------
      1. B(C   1,C   0)                  1.5269         0.377814   
      2. B(C   2,C   1)                  1.4967         0.422128   
      3. B(H   3,C   0)                  1.1170         0.326055   
      4. B(H   4,C   0)                  1.1074         0.337799   
      5. B(H   5,C   0)                  1.1126         0.331439   
      6. B(H   6,C   1)                  1.1100         0.334551   
      7. B(H   6,C   2)                  2.1872         0.006395 C 
      8. B(H   7,C   1)                  1.1256         0.315920   
      9. B(H   8,C   2)                  1.0835         0.368808   
     10. B(H   9,C   2)                  1.0938         0.355086   
     11. A(H   4,C   0,H   5)          112.5938         0.284240   
     12. A(C   1,C   0,H   4)          106.4536         0.321531   
     13. A(C   1,C   0,H   3)          110.4405         0.319676   
     14. A(H   3,C   0,H   5)          106.9541         0.282683   
     15. A(C   1,C   0,H   5)          107.9473         0.320533   
     16. A(H   3,C   0,H   4)          112.3974         0.283518   
     17. A(C   0,C   1,C   2)          111.1674         0.371766   
     18. A(C   0,C   1,H   6)          109.4686         0.321024   
     19. A(C   2,C   1,H   6)          113.2492         0.326922   
     20. A(C   0,C   1,H   7)          105.3642         0.318034   
     21. A(C   2,C   1,H   7)          106.9646         0.323856   
     22. A(H   6,C   1,H   7)          110.3084         0.281711   
     23. A(C   1,C   2,H   8)          115.4047         0.332230   
     24. A(C   1,C   2,H   9)          114.7823         0.330151   
     25. A(H   8,C   2,H   9)          116.1226         0.291291   
     26. D(H   7,C   1,C   0,H   4)     81.3243         0.011384   
     27. D(C   2,C   1,C   0,H   4)   -163.1518         0.011384   
     28. D(C   2,C   1,C   0,H   3)    -40.8712         0.011384   
     29. D(H   7,C   1,C   0,H   3)   -156.3951         0.011384   
     30. D(H   6,C   1,C   0,H   3)     84.9914         0.011384   
     31. D(H   6,C   1,C   0,H   5)   -158.4036         0.011384   
     32. D(H   7,C   1,C   0,H   5)    -39.7901         0.011384   
     33. D(H   6,C   1,C   0,H   4)    -37.2891         0.011384   
     34. D(C   2,C   1,C   0,H   5)     75.7338         0.011384   
     35. D(H   9,C   2,C   1,H   7)    -31.9088         0.014096   
     36. D(H   8,C   2,C   1,H   6)    -49.2989         0.014096   
     37. D(H   8,C   2,C   1,H   7)   -171.0339         0.014096   
     38. D(H   9,C   2,C   1,C   0)   -146.4391         0.014096   
     39. D(H   8,C   2,C   1,C   0)     74.4358         0.014096   
     40. D(H   9,C   2,C   1,H   6)     89.8262         0.014096   
    -----------------------------------------------------------------

Number of atoms                         .... 10
Number of degrees of freedom            .... 40

         *************************************************************
         *                GEOMETRY OPTIMIZATION CYCLE   1            *
         *************************************************************
---------------------------------
CARTESIAN COORDINATES (ANGSTROEM)
---------------------------------
  C     -1.184900    0.098300   -0.014200
  C      0.218500   -0.446400    0.241300
  C      1.260100    0.430900   -0.379700
  H     -1.197800    1.209900    0.095100
  H     -1.853500   -0.404800    0.711200
  H     -1.453100   -0.127000   -1.070200
  H      0.364600   -0.595700    1.331500
  H      0.257600   -1.434200   -0.297000
  H      1.446000    1.366700    0.133800
  H      2.142400   -0.097800   -0.751800

----------------------------
CARTESIAN COORDINATES (A.U.)
----------------------------
  NO LB      ZA    FRAG     MASS         X           Y           Z
   0 C     6.0000    0    12.011   -2.239136    0.185760   -0.026834
   1 C     6.0000    0    12.011    0.412905   -0.843574    0.455991
   2 C     6.0000    0    12.011    2.381244    0.814283   -0.717529
   3 H     1.0000    0     1.008   -2.263514    2.286380    0.179713
   4 H     1.0000    0     1.008   -3.502607   -0.764961    1.343973
   5 H     1.0000    0     1.008   -2.745961   -0.239995   -2.022385
   6 H     1.0000    0     1.008    0.688994   -1.125710    2.516170
   7 H     1.0000    0     1.008    0.486793   -2.710245   -0.561249
   8 H     1.0000    0     1.008    2.732544    2.582689    0.252845
   9 H     1.0000    0     1.008    4.048549   -0.184815   -1.420696

--------------------------------
INTERNAL COORDINATES (ANGSTROEM)
--------------------------------
 C      0   0   0     0.000000000000     0.00000000     0.00000000
 C      1   0   0     1.526928256337     0.00000000     0.00000000
 C      2   1   0     1.496738738057   111.16744663     0.00000000
 H      1   2   3     1.117035120307   110.44051954   319.12879606
 H      1   2   3     1.107402695500   106.45358612   196.84824245
 H      1   2   3     1.112576887231   107.94728058    75.73381767
 H      2   1   3     1.110032314845   109.46859064   125.86261792
 H      2   1   3     1.125630729858   105.36423022   244.47608033
 H      3   2   1     1.083495592977   115.40465272    74.43580775
 H      3   2   1     1.093816890526   114.78226289   213.56094287

---------------------------
INTERNAL COORDINATES (A.U.)
---------------------------
 C      0   0   0     0.000000000000     0.00000000     0.00000000
 C      1   0   0     2.885476230623     0.00000000     0.00000000
 C      2   1   0     2.828426308958   111.16744663     0.00000000
 H      1   2   3     2.110890459353   110.44051954   319.12879606
 H      1   2   3     2.092687814461   106.45358612   196.84824245
 H      1   2   3     2.102465619797   107.94728058    75.73381767
 H      2   1   3     2.097657074860   109.46859064   125.86261792
 H      2   1   3     2.127133807357   105.36423022   244.47608033
 H      3   2   1     2.047509938037   115.40465272    74.43580775
 H      3   2   1     2.067014363751   114.78226289   213.56094287

---------------------
BASIS SET INFORMATION
---------------------
There are 2 groups of distinct atoms

 Group   1 Type C   : 7s4p1d contracted to 3s2p1d pattern {511/31/1}
 Group   2 Type H   : 4s1p contracted to 2s1p pattern {31/1}

Atom   0C    basis set group =>   1
Atom   1C    basis set group =>   1
Atom   2C    basis set group =>   1
Atom   3H    basis set group =>   2
Atom   4H    basis set group =>   2
Atom   5H    basis set group =>   2
Atom   6H    basis set group =>   2
Atom   7H    basis set group =>   2
Atom   8H    basis set group =>   2
Atom   9H    basis set group =>   2
---------------------------------
AUXILIARY/J BASIS SET INFORMATION
---------------------------------
There are 2 groups of distinct atoms

 Group   1 Type C   : 12s5p4d2f1g contracted to 6s4p3d1f1g pattern {711111/2111/211/2/1}
 Group   2 Type H   : 5s2p1d contracted to 3s1p1d pattern {311/2/1}

Atom   0C    basis set group =>   1
Atom   1C    basis set group =>   1
Atom   2C    basis set group =>   1
Atom   3H    basis set group =>   2
Atom   4H    basis set group =>   2
Atom   5H    basis set group =>   2
Atom   6H    basis set group =>   2
Atom   7H    basis set group =>   2
Atom   8H    basis set group =>   2
Atom   9H    basis set group =>   2
[1589382026.098766] [ty2019:7665 :0]            sys.c:618  UCX  ERROR shmget(size=2097152 flags=0xfb0) for mm_recv_desc failed: Operation not permitted, please check shared memory limits by 'ipcs -l'
[1589382026.106914] [ty2019:7664 :0]            sys.c:618  UCX  ERROR shmget(size=2097152 flags=0xfb0) for mm_recv_desc failed: Operation not permitted, please check shared memory limits by 'ipcs -l'
[1589382026.107644] [ty2019:7663 :0]            sys.c:618  UCX  ERROR shmget(size=2097152 flags=0xfb0) for mm_recv_desc failed: Operation not permitted, please check shared memory limits by 'ipcs -l'
[1589382026.107706] [ty2019:7662 :0]            sys.c:618  UCX  ERROR shmget(size=2097152 flags=0xfb0) for mm_recv_desc failed: Operation not permitted, please check shared memory limits by 'ipcs -l'
[1589382026.114198] [ty2019:7662 :0]            sys.c:618  UCX  ERROR shmget(size=2097152 flags=0xb80) for ucp_am_bufs failed: Operation not permitted, please check shared memory limits by 'ipcs -l'
[1589382026.119522] [ty2019:7665 :0]            sys.c:618  UCX  ERROR shmget(size=2097152 flags=0xb80) for ucp_am_bufs failed: Operation not permitted, please check shared memory limits by 'ipcs -l'
[1589382026.119605] [ty2019:7664 :0]            sys.c:618  UCX  ERROR shmget(size=2097152 flags=0xb80) for ucp_am_bufs failed: Operation not permitted, please check shared memory limits by 'ipcs -l'
[1589382026.120128] [ty2019:7663 :0]            sys.c:618  UCX  ERROR shmget(size=2097152 flags=0xb80) for ucp_am_bufs failed: Operation not permitted, please check shared memory limits by 'ipcs -l'


           ************************************************************
           *        Program running with 4 parallel MPI-processes     *
           *              working on a common directory               *
           ************************************************************
------------------------------------------------------------------------------
                           ORCA GTO INTEGRAL CALCULATION
                           -- RI-GTO INTEGRALS CHOSEN --
------------------------------------------------------------------------------

                         BASIS SET STATISTICS AND STARTUP INFO

Gaussian basis set:
 # of primitive gaussian shells          ...   71
 # of primitive gaussian functions       ...  121
 # of contracted shells                  ...   39
 # of contracted basis functions         ...   77
 Highest angular momentum                ...    2
 Maximum contraction depth               ...    5
Auxiliary gaussian basis set:
 # of primitive gaussian shells          ...  128
 # of primitive gaussian functions       ...  322
 # of contracted shells                  ...   80
 # of contracted aux-basis functions     ...  224
 Highest angular momentum                ...    4
 Maximum contraction depth               ...    7
Ratio of auxiliary to basis functions    ...  2.91
Integral package used                  ... LIBINT
 One Electron integrals                  ... done
 Ordering auxiliary basis shells         ... done
 Integral threshhold             Thresh  ...  2.500e-11
 Primitive cut-off               TCut    ...  2.500e-12
 Pre-screening matrix                    ... done
 Shell pair data                         ... 
 Ordering of the shell pairs             ... done (   0.000 sec) 779 of 780 pairs
 Determination of significant pairs      ... done (   0.000 sec)
 Creation of shell pair data             ... done (   0.000 sec)
 Storage of shell pair data              ... done (   0.001 sec)
 Shell pair data done in (   0.001 sec)
 Computing two index integrals           ... done
 Cholesky decomposition of the V-matrix  ... done


Timings:
 Total evaluation time                   ...   0.143 sec (  0.002 min)
 One electron matrix time                ...   0.013 sec (  0.000 min) =  9.1%
 Schwartz matrix evaluation time         ...   0.108 sec (  0.002 min) = 75.8%
 Two index repulsion integral time       ...   0.003 sec (  0.000 min) =  1.8%
 Cholesky decomposition of V             ...   0.002 sec (  0.000 min) =  1.2%
 Three index repulsion integral time     ...   0.000 sec (  0.000 min) =  0.0%

[1589382027.127583] [ty2019:7687 :0]            sys.c:618  UCX  ERROR shmget(size=2097152 flags=0xfb0) for mm_recv_desc failed: Operation not permitted, please check shared memory limits by 'ipcs -l'
[1589382027.128287] [ty2019:7685 :0]            sys.c:618  UCX  ERROR shmget(size=2097152 flags=0xfb0) for mm_recv_desc failed: Operation not permitted, please check shared memory limits by 'ipcs -l'
[1589382027.137672] [ty2019:7684 :0]            sys.c:618  UCX  ERROR shmget(size=2097152 flags=0xfb0) for mm_recv_desc failed: Operation not permitted, please check shared memory limits by 'ipcs -l'
[1589382027.138125] [ty2019:7686 :0]            sys.c:618  UCX  ERROR shmget(size=2097152 flags=0xfb0) for mm_recv_desc failed: Operation not permitted, please check shared memory limits by 'ipcs -l'
[1589382027.144944] [ty2019:7686 :0]            sys.c:618  UCX  ERROR shmget(size=2097152 flags=0xb80) for ucp_am_bufs failed: Operation not permitted, please check shared memory limits by 'ipcs -l'
[1589382027.144970] [ty2019:7684 :0]            sys.c:618  UCX  ERROR shmget(size=2097152 flags=0xb80) for ucp_am_bufs failed: Operation not permitted, please check shared memory limits by 'ipcs -l'


           ************************************************************
           *        Program running with 4 parallel MPI-processes     *
           *              working on a common directory               *
           ************************************************************
[1589382027.147066] [ty2019:7685 :0]            sys.c:618  UCX  ERROR shmget(size=2097152 flags=0xb80) for ucp_am_bufs failed: Operation not permitted, please check shared memory limits by 'ipcs -l'
-------------------------------------------------------------------------------
                                 ORCA SCF
-------------------------------------------------------------------------------

[1589382027.147474] [ty2019:7687 :0]            sys.c:618  UCX  ERROR shmget(size=2097152 flags=0xb80) for ucp_am_bufs failed: Operation not permitted, please check shared memory limits by 'ipcs -l'
------------
SCF SETTINGS
------------
Hamiltonian:
 Density Functional     Method          .... DFT(GTOs)
 Exchange Functional    Exchange        .... PBE
   PBE kappa parameter   XKappa         ....  0.804000
   PBE mue parameter    XMuePBE         ....  0.219520
 Correlation Functional Correlation     .... PBE
   PBE beta parameter  CBetaPBE         ....  0.066725
 LDA part of GGA corr.  LDAOpt          .... PW91-LDA
 Gradients option       PostSCFGGA      .... off
   Density functional embedding theory  .... OFF
   NL short-range parameter             ....  6.400000
 RI-approximation to the Coulomb term is turned on
   Number of auxiliary basis functions  .... 224


General Settings:
 Integral files         IntName         .... m-mfaV_2-6_hl1d_fbond_scan_0_orca
 Hartree-Fock type      HFTyp           .... UHF
 Total Charge           Charge          ....    0
 Multiplicity           Mult            ....    2
 Number of Electrons    NEL             ....   25
 Basis Dimension        Dim             ....   77
 Nuclear Repulsion      ENuc            ....     75.7789833062 Eh

Convergence Acceleration:
 DIIS                   CNVDIIS         .... on
   Start iteration      DIISMaxIt       ....    12
   Startup error        DIISStart       ....  0.200000
   # of expansion vecs  DIISMaxEq       ....     5
   Bias factor          DIISBfac        ....   1.050
   Max. coefficient     DIISMaxC        ....  10.000
 Newton-Raphson         CNVNR           .... off
 SOSCF                  CNVSOSCF        .... off
 Level Shifting         CNVShift        .... on
   Level shift para.    LevelShift      ....    0.2500
   Turn off err/grad.   ShiftErr        ....    0.0010
 Zerner damping         CNVZerner       .... off
 Static damping         CNVDamp         .... on
   Fraction old density DampFac         ....    0.7000
   Max. Damping (<1)    DampMax         ....    0.9800
   Min. Damping (>=0)   DampMin         ....    0.0000
   Turn off err/grad.   DampErr         ....    0.1000
 Fernandez-Rico         CNVRico         .... off

SCF Procedure:
 Maximum # iterations   MaxIter         ....   250
 SCF integral mode      SCFMode         .... Direct
   Integral package                     .... LIBINT
 Reset frequency        DirectResetFreq ....    20
 Integral Threshold     Thresh          ....  2.500e-11 Eh
 Primitive CutOff       TCut            ....  2.500e-12 Eh

Convergence Tolerance:
 Convergence Check Mode ConvCheckMode   .... Total+1el-Energy
 Convergence forced     ConvForced      .... 0
 Energy Change          TolE            ....  1.000e-08 Eh
 1-El. energy change                    ....  1.000e-05 Eh
 DIIS Error             TolErr          ....  5.000e-07


Diagonalization of the overlap matrix:
Smallest eigenvalue                        ... 2.913e-03
Time for diagonalization                   ...    0.001 sec
Threshold for overlap eigenvalues          ... 1.000e-08
Number of eigenvalues below threshold      ... 0
Time for construction of square roots      ...    0.001 sec
Total time needed                          ...    0.002 sec

-------------------
DFT GRID GENERATION
-------------------

General Integration Accuracy     IntAcc      ...  4.340
Radial Grid Type                 RadialGrid  ... Gauss-Chebyshev
Angular Grid (max. acc.)         AngularGrid ... Lebedev-110
Angular grid pruning method      GridPruning ... 3 (G Style)
Weight generation scheme         WeightScheme... Becke
Basis function cutoff            BFCut       ...    1.0000e-11
Integration weight cutoff        WCut        ...    1.0000e-14
Grids for H and He will be reduced by one unit

# of grid points (after initial pruning)     ...  10526 (   0.0 sec)
# of grid points (after weights+screening)   ...  10016 (   0.0 sec)
nearest neighbour list constructed           ...    0.0 sec
Grid point re-assignment to atoms done       ...    0.0 sec
Grid point division into batches done        ...    0.0 sec
Reduced shell lists constructed in    0.0 sec

Total number of grid points                  ...    10016
Total number of batches                      ...      162
Average number of points per batch           ...       61
Average number of grid points per atom       ...     1002
Average number of shells per batch           ...    36.31 (93.10%)
Average number of basis functions per batch  ...    71.88 (93.35%)
Average number of large shells per batch     ...    33.90 (93.38%)
Average number of large basis fcns per batch ...    66.67 (92.75%)
Maximum spatial batch extension              ...  14.54, 16.57, 15.88 au
Average spatial batch extension              ...   0.55,  0.60,  0.59 au

Time for grid setup =    0.030 sec

------------------------------
INITIAL GUESS: MODEL POTENTIAL
------------------------------
Loading Hartree-Fock densities                     ... done
Calculating cut-offs                               ... done
Setting up the integral package                    ... done
Initializing the effective Hamiltonian             ... done
Starting the Coulomb interaction                   ... done (   0.0 sec)
Reading the grid                                   ... done
Mapping shells                                     ... done
Starting the XC term evaluation                    ... done (   0.0 sec)
  promolecular density results
     # of electrons  =     24.992719230
     EX              =    -17.337418539
     EC              =     -0.780147148
     EX+EC           =    -18.117565687
Transforming the Hamiltonian                       ... done (   0.0 sec)
Diagonalizing the Hamiltonian                      ... done (   0.0 sec)
Back transforming the eigenvectors                 ... done (   0.0 sec)
Now organizing SCF variables                       ... done
                      ------------------
                      INITIAL GUESS DONE (   0.1 sec)
                      ------------------

--------------------
CPCM SOLVATION MODEL
--------------------
CPCM parameters:
  Epsilon                                         ...      80.4000
  Refrac                                          ...       1.3300
  Rsolv                                           ...       1.3000
  Surface type                                    ... GAUSSIAN VDW
  Epsilon function type                           ...         CPCM
Radii:
 Radius for C  used is    3.8550 Bohr (=   2.0400 Ang.)
 Radius for H  used is    2.4944 Bohr (=   1.3200 Ang.)
Calculating surface                               ...        done! (  0.0s)
GEPOL surface points                              ...          610
GEPOL Volume                                      ...     540.6898
GEPOL Surface-area                                ...     355.1441
Calculating surface distance matrix               ...        done! (  0.0s)
Performing Cholesky decomposition & store         ...        done! (  0.0s)
Overall time for CPCM initialization              ...                 0.0s
--------------
SCF ITERATIONS
--------------
ITER       Energy         Delta-E        Max-DP      RMS-DP      [F,P]     Damp
               ***  Starting incremental Fock matrix formation  ***
  0   -118.1018238761   0.000000000000 0.03653855  0.00157214  0.1537145 0.7000
  1   -118.1472217651  -0.045397888997 0.02054760  0.00116417  0.0722676 0.7000
                               ***Turning on DIIS***
  2   -118.1636316313  -0.016409866222 0.03813909  0.00199095  0.0192291 0.0000
  3   -118.1860546286  -0.022422997294 0.01547411  0.00075072  0.0465426 0.0000
  4   -118.1943050486  -0.008250419990 0.00526087  0.00025980  0.0086140 0.0000
  5   -118.1947763235  -0.000471274958 0.00146738  0.00010360  0.0025052 0.0000
  6   -118.1948188839  -0.000042560362 0.00137083  0.00007708  0.0008406 0.0000
  7   -118.1948255440  -0.000006660090 0.00034808  0.00000814  0.0003621 0.0000
  8   -118.1948260790  -0.000000534982 0.00007412  0.00000272  0.0000632 0.0000
  9   -118.1948261122  -0.000000033265 0.00002963  0.00000108  0.0000518 0.0000
 10   -118.1948261221  -0.000000009891 0.00001231  0.00000044  0.0000086 0.0000
 11   -118.1948261236  -0.000000001454 0.00000400  0.00000013  0.0000015 0.0000
 12   -118.1948261230   0.000000000612 0.00000208  0.00000008  0.0000010 0.0000
                            ***DIIS convergence achieved***

               *****************************************************
               *                     SUCCESS                       *
               *           SCF CONVERGED AFTER  13 CYCLES          *
               *****************************************************

Setting up the final grid:

General Integration Accuracy     IntAcc      ...  4.670
Radial Grid Type                 RadialGrid  ... Gauss-Chebyshev
Angular Grid (max. acc.)         AngularGrid ... Lebedev-302
Angular grid pruning method      GridPruning ... 3 (G Style)
Weight generation scheme         WeightScheme... Becke
Basis function cutoff            BFCut       ...    1.0000e-11
Integration weight cutoff        WCut        ...    1.0000e-14
Grids for H and He will be reduced by one unit

# of grid points (after initial pruning)     ...  42394 (   0.0 sec)
# of grid points (after weights+screening)   ...  39942 (   0.0 sec)
nearest neighbour list constructed           ...    0.0 sec
Grid point re-assignment to atoms done       ...    0.0 sec
Grid point division into batches done        ...    0.1 sec
Reduced shell lists constructed in    0.1 sec

Total number of grid points                  ...    39942
Total number of batches                      ...      629
Average number of points per batch           ...       63
Average number of grid points per atom       ...     3994
Average number of shells per batch           ...    35.08 (89.94%)
Average number of basis functions per batch  ...    69.35 (90.07%)
Average number of large shells per batch     ...    31.87 (90.86%)
Average number of large basis fcns per batch ...    62.43 (90.02%)
Maximum spatial batch extension              ...  14.38, 16.15, 15.27 au
Average spatial batch extension              ...   0.42,  0.45,  0.45 au

Final grid set up in    0.1 sec
Final integration                            ... done (   0.1 sec)
Change in XC energy                          ...    -0.000298120
Integrated number of electrons               ...    24.999969260
Previous integrated no of electrons          ...    24.997188617

----------------
TOTAL SCF ENERGY
----------------

Total Energy       :         -118.19512424 Eh           -3216.25284 eV

Components:
Nuclear Repulsion  :           75.77898331 Eh            2062.05097 eV
Electronic Energy  :         -193.97410755 Eh           -5278.30381 eV
One Electron Energy:         -307.42608603 Eh           -8365.48909 eV
Two Electron Energy:          113.45197848 Eh            3087.18528 eV
CPCM Dielectric    :           -0.00133800 Eh              -0.03641 eV

Virial components:
Potential Energy   :         -234.91586794 Eh           -6392.38575 eV
Kinetic Energy     :          116.72074370 Eh            3176.13291 eV
Virial Ratio       :            2.01263169


DFT components:
N(Alpha)           :       12.999989907656 electrons
N(Beta)            :       11.999979352036 electrons
N(Total)           :       24.999969259692 electrons
E(X)               :      -17.837011009634 Eh       
E(C)               :       -0.788606478084 Eh       
E(XC)              :      -18.625617487718 Eh       
DFET-embed. en.    :        0.000000000000 Eh       
CPCM Solvation Model Properties:
Surface-charge          :           -0.01977808
Charge-correction       :            0.00003041 Eh               0.00083 eV
Free-energy (cav+disp)  :            0.00317713 Eh               0.08645 eV
Corrected G(solv)       :         -118.19191670 Eh           -3216.16556 eV

---------------
SCF CONVERGENCE
---------------

  Last Energy change         ...    1.0201e-09  Tolerance :   1.0000e-08
  Last MAX-Density change    ...    5.6328e-07  Tolerance :   1.0000e-07
  Last RMS-Density change    ...    1.7128e-08  Tolerance :   5.0000e-09
  Last DIIS Error            ...    4.3929e-07  Tolerance :   5.0000e-07

             **** THE GBW FILE WAS UPDATED (m-mfaV_2-6_hl1d_fbond_scan_0_orca.gbw) ****
             **** DENSITY FILE WAS UPDATED (m-mfaV_2-6_hl1d_fbond_scan_0_orca.scfp) ****
             **** ENERGY FILE WAS UPDATED (m-mfaV_2-6_hl1d_fbond_scan_0_orca.en.tmp) ****
----------------------
UHF SPIN CONTAMINATION
----------------------

Warning: in a DFT calculation there is little theoretical justification to 
         calculate <S**2> as in Hartree-Fock theory. We will do it anyways
         but you should keep in mind that the values have only limited relevance

Expectation value of <S**2>     :     0.752806
Ideal value S*(S+1) for S=0.5   :     0.750000
Deviation                       :     0.002806

             **** THE GBW FILE WAS UPDATED (m-mfaV_2-6_hl1d_fbond_scan_0_orca.gbw) ****
             **** DENSITY FILE WAS UPDATED (m-mfaV_2-6_hl1d_fbond_scan_0_orca.scfp) ****
----------------
ORBITAL ENERGIES
----------------
                 SPIN UP ORBITALS
  NO   OCC          E(Eh)            E(eV) 
   0   1.0000      -9.898966      -269.3646 
   1   1.0000      -9.892397      -269.1858 
   2   1.0000      -9.886027      -269.0125 
   3   1.0000      -0.701079       -19.0773 
   4   1.0000      -0.594897       -16.1880 
   5   1.0000      -0.500027       -13.6064 
   6   1.0000      -0.408841       -11.1251 
   7   1.0000      -0.387830       -10.5534 
   8   1.0000      -0.347046        -9.4436 
   9   1.0000      -0.317671        -8.6443 
  10   1.0000      -0.295929        -8.0526 
  11   1.0000      -0.279204        -7.5975 
  12   1.0000      -0.178116        -4.8468 
  13   0.0000       0.044844         1.2203 
  14   0.0000       0.083040         2.2596 
  15   0.0000       0.090126         2.4524 
  16   0.0000       0.094846         2.5809 
  17   0.0000       0.119912         3.2630 
  18   0.0000       0.131614         3.5814 
  19   0.0000       0.166156         4.5213 
  20   0.0000       0.183604         4.9961 
  21   0.0000       0.225132         6.1261 
  22   0.0000       0.383235        10.4283 
  23   0.0000       0.396831        10.7983 
  24   0.0000       0.407900        11.0995 
  25   0.0000       0.425226        11.5710 
  26   0.0000       0.462188        12.5768 
  27   0.0000       0.502688        13.6788 
  28   0.0000       0.541447        14.7335 
  29   0.0000       0.564757        15.3678 
  30   0.0000       0.594010        16.1638 
  31   0.0000       0.603315        16.4170 
  32   0.0000       0.630971        17.1696 
  33   0.0000       0.633314        17.2334 
  34   0.0000       0.638545        17.3757 
  35   0.0000       0.643708        17.5162 
  36   0.0000       0.650293        17.6954 
  37   0.0000       0.665085        18.0979 
  38   0.0000       0.706462        19.2238 
  39   0.0000       0.844940        22.9920 
  40   0.0000       0.925872        25.1943 
  41   0.0000       1.073244        29.2045 
  42   0.0000       1.111837        30.2546 
  43   0.0000       1.263084        34.3703 
  44   0.0000       1.321758        35.9669 
  45   0.0000       1.376747        37.4632 
  46   0.0000       1.452370        39.5210 
  47   0.0000       1.513264        41.1780 
  48   0.0000       1.566929        42.6383 
  49   0.0000       1.614538        43.9338 
  50   0.0000       1.660201        45.1764 
  51   0.0000       1.686109        45.8814 
  52   0.0000       1.691009        46.0147 
  53   0.0000       1.702955        46.3398 
  54   0.0000       1.750895        47.6443 
  55   0.0000       1.769490        48.1503 
  56   0.0000       1.778485        48.3950 
  57   0.0000       1.793777        48.8112 
  58   0.0000       1.857607        50.5481 
  59   0.0000       1.967785        53.5462 
  60   0.0000       1.998458        54.3808 
  61   0.0000       2.063752        56.1575 
  62   0.0000       2.119415        57.6722 
  63   0.0000       2.203887        59.9708 
  64   0.0000       2.232305        60.7441 
  65   0.0000       2.282388        62.1069 
  66   0.0000       2.328964        63.3743 
  67   0.0000       2.469332        67.1939 
  68   0.0000       2.480883        67.5083 
  69   0.0000       2.544998        69.2529 
  70   0.0000       2.676883        72.8417 
  71   0.0000       2.761203        75.1362 
  72   0.0000       2.807807        76.4043 
  73   0.0000       2.824173        76.8497 
  74   0.0000       2.867863        78.0385 
  75   0.0000       2.921449        79.4967 
  76   0.0000       2.953662        80.3732 

                 SPIN DOWN ORBITALS
  NO   OCC          E(Eh)            E(eV) 
   0   1.0000      -9.892949      -269.2008 
   1   1.0000      -9.885305      -268.9928 
   2   1.0000      -9.885266      -268.9918 
   3   1.0000      -0.692996       -18.8574 
   4   1.0000      -0.580359       -15.7924 
   5   1.0000      -0.489947       -13.3321 
   6   1.0000      -0.403604       -10.9826 
   7   1.0000      -0.381931       -10.3929 
   8   1.0000      -0.341225        -9.2852 
   9   1.0000      -0.311465        -8.4754 
  10   1.0000      -0.290022        -7.8919 
  11   1.0000      -0.277002        -7.5376 
  12   0.0000      -0.089597        -2.4381 
  13   0.0000       0.048572         1.3217 
  14   0.0000       0.085762         2.3337 
  15   0.0000       0.093945         2.5564 
  16   0.0000       0.100233         2.7275 
  17   0.0000       0.124171         3.3789 
  18   0.0000       0.135264         3.6807 
  19   0.0000       0.169896         4.6231 
  20   0.0000       0.187892         5.1128 
  21   0.0000       0.236076         6.4240 
  22   0.0000       0.388235        10.5644 
  23   0.0000       0.404153        10.9976 
  24   0.0000       0.417575        11.3628 
  25   0.0000       0.433195        11.7878 
  26   0.0000       0.498196        13.5566 
  27   0.0000       0.522477        14.2173 
  28   0.0000       0.558064        15.1857 
  29   0.0000       0.573768        15.6130 
  30   0.0000       0.602731        16.4012 
  31   0.0000       0.614680        16.7263 
  32   0.0000       0.635303        17.2875 
  33   0.0000       0.638224        17.3670 
  34   0.0000       0.642558        17.4849 
  35   0.0000       0.653319        17.7777 
  36   0.0000       0.654796        17.8179 
  37   0.0000       0.672093        18.2886 
  38   0.0000       0.712468        19.3872 
  39   0.0000       0.855126        23.2692 
  40   0.0000       0.929410        25.2905 
  41   0.0000       1.079794        29.3827 
  42   0.0000       1.124320        30.5943 
  43   0.0000       1.269580        34.5470 
  44   0.0000       1.323869        36.0243 
  45   0.0000       1.393962        37.9316 
  46   0.0000       1.452948        39.5367 
  47   0.0000       1.524813        41.4923 
  48   0.0000       1.572418        42.7877 
  49   0.0000       1.633816        44.4584 
  50   0.0000       1.666858        45.3575 
  51   0.0000       1.687403        45.9166 
  52   0.0000       1.693378        46.0791 
  53   0.0000       1.704108        46.3711 
  54   0.0000       1.756966        47.8095 
  55   0.0000       1.781586        48.4794 
  56   0.0000       1.790247        48.7151 
  57   0.0000       1.801119        49.0109 
  58   0.0000       1.877906        51.1004 
  59   0.0000       1.987057        54.0706 
  60   0.0000       2.016027        54.8589 
  61   0.0000       2.083262        56.6885 
  62   0.0000       2.134728        58.0889 
  63   0.0000       2.216195        60.3057 
  64   0.0000       2.257210        61.4218 
  65   0.0000       2.287024        62.2331 
  66   0.0000       2.341740        63.7220 
  67   0.0000       2.478259        67.4369 
  68   0.0000       2.484216        67.5989 
  69   0.0000       2.556548        69.5672 
  70   0.0000       2.687191        73.1222 
  71   0.0000       2.767065        75.2957 
  72   0.0000       2.813388        76.5562 
  73   0.0000       2.828412        76.9650 
  74   0.0000       2.876250        78.2667 
  75   0.0000       2.930911        79.7541 
  76   0.0000       2.960140        80.5495 

                    ********************************
                    * MULLIKEN POPULATION ANALYSIS *
                    ********************************

--------------------------------------------
MULLIKEN ATOMIC CHARGES AND SPIN POPULATIONS
--------------------------------------------
   0 C :   -0.070741    0.017286
   1 C :   -0.085128   -0.069418
   2 C :   -0.123429    1.053474
   3 H :    0.034775   -0.000433
   4 H :    0.037041    0.008564
   5 H :    0.035047    0.005195
   6 H :    0.051314    0.055191
   7 H :    0.034821    0.001816
   8 H :    0.042604   -0.035245
   9 H :    0.043696   -0.036429
Sum of atomic charges         :   -0.0000000
Sum of atomic spin populations:    1.0000000

-----------------------------------------------------
MULLIKEN REDUCED ORBITAL CHARGES AND SPIN POPULATIONS
-----------------------------------------------------
CHARGE
  0 C s       :     3.047905  s :     3.047905
      pz      :     1.006738  p :     2.997724
      px      :     0.985654
      py      :     1.005332
      dz2     :     0.005987  d :     0.025112
      dxz     :     0.005751
      dyz     :     0.002144
      dx2y2   :     0.006691
      dxy     :     0.004539
  1 C s       :     3.057958  s :     3.057958
      pz      :     0.995456  p :     2.992499
      px      :     0.979473
      py      :     1.017571
      dz2     :     0.007721  d :     0.034671
      dxz     :     0.006043
      dyz     :     0.005060
      dx2y2   :     0.008881
      dxy     :     0.006966
  2 C s       :     3.201969  s :     3.201969
      pz      :     0.973018  p :     2.899518
      px      :     0.957897
      py      :     0.968603
      dz2     :     0.002481  d :     0.021942
      dxz     :     0.003097
      dyz     :     0.004747
      dx2y2   :     0.005589
      dxy     :     0.006029
  3 H s       :     0.942894  s :     0.942894
      pz      :     0.005226  p :     0.022331
      px      :     0.004200
      py      :     0.012905
  4 H s       :     0.940234  s :     0.940234
      pz      :     0.008398  p :     0.022725
      px      :     0.007857
      py      :     0.006469
  5 H s       :     0.942452  s :     0.942452
      pz      :     0.012214  p :     0.022501
      px      :     0.004894
      py      :     0.005393
  6 H s       :     0.926465  s :     0.926465
      pz      :     0.013030  p :     0.022221
      px      :     0.004413
      py      :     0.004779
  7 H s       :     0.943799  s :     0.943799
      pz      :     0.006247  p :     0.021379
      px      :     0.004410
      py      :     0.010723
  8 H s       :     0.933638  s :     0.933638
      pz      :     0.006986  p :     0.023758
      px      :     0.005100
      py      :     0.011672
  9 H s       :     0.933057  s :     0.933057
      pz      :     0.006103  p :     0.023248
      px      :     0.010356
      py      :     0.006789

SPIN
  0 C s       :    -0.000902  s :    -0.000902
      pz      :     0.000792  p :     0.018013
      px      :     0.014762
      py      :     0.002460
      dz2     :     0.000066  d :     0.000174
      dxz     :    -0.000065
      dyz     :     0.000087
      dx2y2   :    -0.000034
      dxy     :     0.000120
  1 C s       :    -0.024793  s :    -0.024793
      pz      :    -0.017356  p :    -0.050631
      px      :    -0.017207
      py      :    -0.016069
      dz2     :     0.003323  d :     0.006006
      dxz     :     0.000254
      dyz     :     0.001238
      dx2y2   :     0.001184
      dxy     :     0.000008
  2 C s       :     0.138789  s :     0.138789
      pz      :     0.608642  p :     0.917492
      px      :     0.209476
      py      :     0.099373
      dz2     :    -0.000653  d :    -0.002807
      dxz     :    -0.000864
      dyz     :    -0.001003
      dx2y2   :     0.000185
      dxy     :    -0.000472
  3 H s       :    -0.000541  s :    -0.000541
      pz      :     0.000032  p :     0.000108
      px      :     0.000006
      py      :     0.000070
  4 H s       :     0.008559  s :     0.008559
      pz      :    -0.000020  p :     0.000005
      px      :     0.000029
      py      :    -0.000004
  5 H s       :     0.005136  s :     0.005136
      pz      :     0.000003  p :     0.000059
      px      :     0.000032
      py      :     0.000024
  6 H s       :     0.055289  s :     0.055289
      pz      :    -0.000374  p :    -0.000097
      px      :     0.000150
      py      :     0.000126
  7 H s       :     0.002011  s :     0.002011
      pz      :    -0.000075  p :    -0.000195
      px      :    -0.000058
      py      :    -0.000062
  8 H s       :    -0.039599  s :    -0.039599
      pz      :     0.002201  p :     0.004354
      px      :     0.000723
      py      :     0.001430
  9 H s       :    -0.040763  s :    -0.040763
      pz      :     0.004053  p :     0.004334
      px      :     0.000237
      py      :     0.000043


                     *******************************
                     * LOEWDIN POPULATION ANALYSIS *
                     *******************************

-------------------------------------------
LOEWDIN ATOMIC CHARGES AND SPIN POPULATIONS
-------------------------------------------
   0 C :   -0.075691    0.027017
   1 C :   -0.074980   -0.002290
   2 C :   -0.042717    0.910125
   3 H :    0.027501    0.000841
   4 H :    0.030290    0.004471
   5 H :    0.029994    0.002099
   6 H :    0.039917    0.048191
   7 H :    0.035262    0.001793
   8 H :    0.013571    0.004148
   9 H :    0.016852    0.003606

----------------------------------------------------
LOEWDIN REDUCED ORBITAL CHARGES AND SPIN POPULATIONS
----------------------------------------------------
CHARGE
  0 C s       :     2.859853  s :     2.859853
      pz      :     1.062457  p :     3.149090
      px      :     1.028958
      py      :     1.057675
      dz2     :     0.016762  d :     0.066748
      dxz     :     0.014143
      dyz     :     0.005630
      dx2y2   :     0.018940
      dxy     :     0.011273
  1 C s       :     2.849633  s :     2.849633
      pz      :     1.048271  p :     3.135838
      px      :     1.032374
      py      :     1.055193
      dz2     :     0.021906  d :     0.089509
      dxz     :     0.013465
      dyz     :     0.013997
      dx2y2   :     0.021599
      dxy     :     0.018543
  2 C s       :     2.947655  s :     2.947655
      pz      :     0.985688  p :     3.039681
      px      :     1.007025
      py      :     1.046969
      dz2     :     0.004443  d :     0.055381
      dxz     :     0.007677
      dyz     :     0.012269
      dx2y2   :     0.013968
      dxy     :     0.017023
  3 H s       :     0.909465  s :     0.909465
      pz      :     0.011878  p :     0.063034
      px      :     0.011925
      py      :     0.039231
  4 H s       :     0.904620  s :     0.904620
      pz      :     0.023863  p :     0.065090
      px      :     0.023553
      py      :     0.017675
  5 H s       :     0.906480  s :     0.906480
      pz      :     0.036703  p :     0.063526
      px      :     0.013984
      py      :     0.012840
  6 H s       :     0.894523  s :     0.894523
      pz      :     0.039227  p :     0.065560
      px      :     0.013324
      py      :     0.013008
  7 H s       :     0.903426  s :     0.903426
      pz      :     0.017079  p :     0.061311
      px      :     0.012413
      py      :     0.031818
  8 H s       :     0.911441  s :     0.911441
      pz      :     0.024414  p :     0.074987
      px      :     0.014718
      py      :     0.035855
  9 H s       :     0.910053  s :     0.910053
      pz      :     0.019555  p :     0.073094
      px      :     0.033635
      py      :     0.019905

SPIN
  0 C s       :     0.008588  s :     0.008588
      pz      :     0.000896  p :     0.018239
      px      :     0.015674
      py      :     0.001669
      dz2     :     0.000126  d :     0.000190
      dxz     :    -0.000140
      dyz     :     0.000203
      dx2y2   :    -0.000159
      dxy     :     0.000159
  1 C s       :    -0.003250  s :    -0.003250
      pz      :    -0.001035  p :    -0.014862
      px      :    -0.008819
      py      :    -0.005009
      dz2     :     0.008448  d :     0.015822
      dxz     :     0.000930
      dyz     :     0.003075
      dx2y2   :     0.002928
      dxy     :     0.000441
  2 C s       :     0.062575  s :     0.062575
      pz      :     0.584896  p :     0.850644
      px      :     0.183027
      py      :     0.082722
      dz2     :    -0.000055  d :    -0.003094
      dxz     :    -0.000756
      dyz     :    -0.001020
      dx2y2   :    -0.000209
      dxy     :    -0.001054
  3 H s       :     0.000218  s :     0.000218
      pz      :     0.000059  p :     0.000623
      px      :     0.000135
      py      :     0.000428
  4 H s       :     0.004046  s :     0.004046
      pz      :     0.000000  p :     0.000425
      px      :     0.000434
      py      :    -0.000010
  5 H s       :     0.001330  s :     0.001330
      pz      :     0.000362  p :     0.000769
      px      :     0.000353
      py      :     0.000054
  6 H s       :     0.048598  s :     0.048598
      pz      :    -0.000776  p :    -0.000408
      px      :     0.000021
      py      :     0.000348
  7 H s       :     0.002195  s :     0.002195
      pz      :    -0.000126  p :    -0.000402
      px      :    -0.000190
      py      :    -0.000087
  8 H s       :    -0.015307  s :    -0.015307
      pz      :     0.010709  p :     0.019456
      px      :     0.003796
      py      :     0.004950
  9 H s       :    -0.015774  s :    -0.015774
      pz      :     0.013951  p :     0.019380
      px      :     0.003865
      py      :     0.001564


                      *****************************
                      * MAYER POPULATION ANALYSIS *
                      *****************************

  NA   - Mulliken gross atomic population
  ZA   - Total nuclear charge
  QA   - Mulliken gross atomic charge
  VA   - Mayer's total valence
  BVA  - Mayer's bonded valence
  FA   - Mayer's free valence

  ATOM       NA         ZA         QA         VA         BVA        FA
  0 C      6.0707     6.0000    -0.0707     4.0042     4.0037     0.0005
  1 C      6.0851     6.0000    -0.0851     4.1117     4.1087     0.0030
  2 C      6.1234     6.0000    -0.1234     3.9507     3.1126     0.8381
  3 H      0.9652     1.0000     0.0348     0.9928     0.9928     0.0000
  4 H      0.9630     1.0000     0.0370     0.9846     0.9845     0.0001
  5 H      0.9650     1.0000     0.0350     0.9847     0.9847     0.0000
  6 H      0.9487     1.0000     0.0513     0.9718     0.9686     0.0032
  7 H      0.9652     1.0000     0.0348     0.9693     0.9693     0.0000
  8 H      0.9574     1.0000     0.0426     0.9808     0.9788     0.0019
  9 H      0.9563     1.0000     0.0437     0.9771     0.9751     0.0020

  Mayer bond orders larger than 0.100000
B(  0-C ,  1-C ) :   1.0899 B(  0-C ,  3-H ) :   0.9711 B(  0-C ,  4-H ) :   0.9627 
B(  0-C ,  5-H ) :   0.9739 B(  1-C ,  2-C ) :   1.1201 B(  1-C ,  6-H ) :   0.9250 
B(  1-C ,  7-H ) :   0.9484 B(  2-C ,  8-H ) :   0.9642 B(  2-C ,  9-H ) :   0.9662 



------------------
HIRSHFELD ANALYSIS
------------------

Total integrated alpha density =     12.998133186
Total integrated beta density  =     11.999055430

  ATOM     CHARGE      SPIN    
   0 C   -0.076877    0.031069
   1 C   -0.043380    0.053919
   2 C   -0.059640    0.754781
   3 H    0.022706    0.003678
   4 H    0.028792    0.004758
   5 H    0.024529    0.005222
   6 H    0.035489    0.045325
   7 H    0.027419    0.004799
   8 H    0.022164    0.047239
   9 H    0.021610    0.048287

  TOTAL   0.002811    0.999078

-------
TIMINGS
-------

Total SCF time: 0 days 0 hours 0 min 3 sec 

Total time                  ....       3.918 sec
Sum of individual times     ....       3.811 sec  ( 97.3%)

Fock matrix formation       ....       3.488 sec  ( 89.0%)
  Split-RI-J                ....       0.981 sec  ( 28.1% of F)
  XC integration            ....       0.347 sec  ( 10.0% of F)
    Basis function eval.    ....       0.104 sec  ( 29.9% of XC)
    Density eval.           ....       0.068 sec  ( 19.6% of XC)
    XC-Functional eval.     ....       0.032 sec  (  9.3% of XC)
    XC-Potential eval.      ....       0.118 sec  ( 34.0% of XC)
Diagonalization             ....       0.016 sec  (  0.4%)
Density matrix formation    ....       0.001 sec  (  0.0%)
Population analysis         ....       0.018 sec  (  0.5%)
Initial guess               ....       0.107 sec  (  2.7%)
Orbital Transformation      ....       0.000 sec  (  0.0%)
Orbital Orthonormalization  ....       0.000 sec  (  0.0%)
DIIS solution               ....       0.006 sec  (  0.2%)
Grid generation             ....       0.174 sec  (  4.4%)


-------------------------------------------------------------------------------
                          DFT DISPERSION CORRECTION                            
                                                                               
                              DFTD3 V3.1  Rev 1                                
                          USING Becke-Johnson damping                          
-------------------------------------------------------------------------------
The PBE functional is recognized
Active option DFTDOPT                   ...         4   

molecular C6(AA) [au] = 670.163609 


            DFT-D V3
 parameters
 s6 scaling factor         :     1.0000 
 a1 scaling factor         :     0.4289 
 s8 scaling factor         :     0.7875 
 a2 scaling factor         :     4.4407 
 ad hoc parameters k1-k3   :    16.0000     1.3333    -4.0000 

 Edisp/kcal,au: -3.430442237590  -0.005466757098 
 E6   /kcal   :  -2.492900386 
 E8   /kcal   :  -0.937541851 
 % E8         :  27.330057943 

-------------------------   ----------------
Dispersion correction           -0.005466757
-------------------------   ----------------


-------------------------   --------------------
FINAL SINGLE POINT ENERGY      -118.200590998908
-------------------------   --------------------

[1589382031.996126] [ty2019:7712 :0]            sys.c:618  UCX  ERROR shmget(size=2097152 flags=0xfb0) for mm_recv_desc failed: Operation not permitted, please check shared memory limits by 'ipcs -l'
[1589382032.004370] [ty2019:7709 :0]            sys.c:618  UCX  ERROR shmget(size=2097152 flags=0xfb0) for mm_recv_desc failed: Operation not permitted, please check shared memory limits by 'ipcs -l'
[1589382032.006288] [ty2019:7711 :0]            sys.c:618  UCX  ERROR shmget(size=2097152 flags=0xfb0) for mm_recv_desc failed: Operation not permitted, please check shared memory limits by 'ipcs -l'
[1589382032.008758] [ty2019:7710 :0]            sys.c:618  UCX  ERROR shmget(size=2097152 flags=0xfb0) for mm_recv_desc failed: Operation not permitted, please check shared memory limits by 'ipcs -l'
[1589382032.015390] [ty2019:7709 :0]            sys.c:618  UCX  ERROR shmget(size=2097152 flags=0xb80) for ucp_am_bufs failed: Operation not permitted, please check shared memory limits by 'ipcs -l'
[1589382032.015891] [ty2019:7710 :0]            sys.c:618  UCX  ERROR shmget(size=2097152 flags=0xb80) for ucp_am_bufs failed: Operation not permitted, please check shared memory limits by 'ipcs -l'


           ************************************************************
           *        Program running with 4 parallel MPI-processes     *
           *              working on a common directory               *
           ************************************************************
[1589382032.020282] [ty2019:7711 :0]            sys.c:618  UCX  ERROR shmget(size=2097152 flags=0xb80) for ucp_am_bufs failed: Operation not permitted, please check shared memory limits by 'ipcs -l'
------------------------------------------------------------------------------
                         ORCA SCF GRADIENT CALCULATION
------------------------------------------------------------------------------

Gradient of the Kohn-Sham DFT energy:
Kohn-Sham wavefunction type      ... UKS
Hartree-Fock exchange scaling    ...    0.000
Number of operators              ...    2
Number of atoms                  ...   10
Basis set dimensions             ...   77
Integral neglect threshold       ... 2.5e-11
Integral primitive cutoff        ... 2.5e-12

[1589382032.213161] [ty2019:7712 :0]            sys.c:618  UCX  ERROR shmget(size=2097152 flags=0xb80) for ucp_am_bufs failed: Operation not permitted, please check shared memory limits by 'ipcs -l'
Nuclear repulsion gradient       ... done
One Electron Gradient            ... done
Pre-screening matrix             ... done
RI-J gradient                    ... done
Exchange-correlation gradient    ... done
Dispersion correction            ... done

------------------
CARTESIAN GRADIENT
------------------

   1   C   :   -0.000972917   -0.003051967   -0.000901631
   2   C   :    0.000143395    0.005659687    0.028625587
   3   C   :   -0.002734092    0.019943769   -0.016662369
   4   H   :    0.004865634    0.004623324   -0.004259708
   5   H   :    0.009137788   -0.005047724    0.005192952
   6   H   :    0.005533348   -0.000813826   -0.004530080
   7   H   :   -0.004473145    0.001036672   -0.002343693
   8   H   :   -0.002396257   -0.002570502   -0.013529153
   9   H   :   -0.001849789   -0.017472311   -0.000088794
  10   H   :   -0.007253964   -0.002307122    0.008496889

Difference to translation invariance:
           :    0.0000000000   -0.0000000000   -0.0000000000

Norm of the cartesian gradient     ...    0.0495698681
RMS gradient                       ...    0.0090501783
MAX gradient                       ...    0.0286255875

-------
TIMINGS
-------

Total SCF gradient time            ...        0.849 sec

One electron gradient       ....       0.008 sec  (  1.0%)
Prescreening matrices       ....       0.009 sec  (  1.1%)
RI-J Coulomb gradient       ....       0.108 sec  ( 12.7%)
XC gradient                 ....       0.289 sec  ( 34.1%)
CPCM gradient               ....       0.113 sec  ( 13.3%)
   A-Matrix (El+Nuc)        ....       0.022 sec  (  2.6%)
   Potential                ....       0.091 sec  ( 10.7%)
------------------------------------------------------------------------------
                         ORCA GEOMETRY RELAXATION STEP
------------------------------------------------------------------------------

Reading the OPT-File                    .... done
Getting information on internals        .... done
Copying old internal coords+grads       .... done
Making the new internal coordinates     .... (new redundants).... done
Validating the new internal coordinates .... (new redundants).... done
Calculating the B-matrix                .... done
Calculating the G,G- and P matrices     .... done
Transforming gradient to internals      .... done
Projecting the internal gradient        .... done
Number of atoms                         ....  10
Number of internal coordinates          ....  40
Current Energy                          ....  -118.200590999 Eh
Current gradient norm                   ....     0.049569868 Eh/bohr
Maximum allowed component of the step   ....  0.300
Current trust radius                    ....  0.300
Evaluating the initial hessian          ....  (Almloef) done
Projecting the Hessian                  .... done
Forming the augmented Hessian           .... done
Diagonalizing the augmented Hessian     .... done
Last element of RFO vector              ....  0.954826556
Lowest eigenvalues of augmented Hessian:
 -0.008780568  0.011698101  0.014220324  0.046453870  0.097256903
Length of the computed step             ....  0.311222672
Warning: the length of the step is outside the trust region - taking restricted step instead
The input lambda is                     ....    -0.008781
   iter:   1  x=   -0.010346  g=    4.381070 f(x)=     0.006860
   iter:   2  x=   -0.010478  g=    3.773069 f(x)=     0.000495
   iter:   3  x=   -0.010478  g=    3.728413 f(x)=     0.000003
   iter:   4  x=   -0.010478  g=    3.728148 f(x)=     0.000000
   iter:   5  x=   -0.010478  g=    3.728148 f(x)=    -0.000000
The output lambda is                    ....    -0.010478 (5 iterations)
The final length of the internal step   ....  0.300000000
Converting the step to cartesian space:
 Initial RMS(Int)=    0.0474341649
Transforming coordinates:
 Iter   0:  RMS(Cart)=    0.0559039826 RMS(Int)=    0.0479790123
 Iter   1:  RMS(Cart)=    0.0024610879 RMS(Int)=    0.0021456963
 Iter   2:  RMS(Cart)=    0.0002077206 RMS(Int)=    0.0002052754
 Iter   3:  RMS(Cart)=    0.0000218226 RMS(Int)=    0.0000201628
 Iter   4:  RMS(Cart)=    0.0000024900 RMS(Int)=    0.0000024759
 Iter   5:  RMS(Cart)=    0.0000002634 RMS(Int)=    0.0000002416
 Iter   6:  RMS(Cart)=    0.0000000302 RMS(Int)=    0.0000000305
Imposing constraints:
 Iter   0:  RMS(Cart)=    0.0000104733 RMS(Int)=    0.0000261863
 Iter   1:  RMS(Cart)=    0.0000032729 RMS(Int)=    0.0000081832
 Iter   2:  RMS(Cart)=    0.0000010228 RMS(Int)=    0.0000025573
 Iter   3:  RMS(Cart)=    0.0000003196 RMS(Int)=    0.0000007992
 Iter   4:  RMS(Cart)=    0.0000000999 RMS(Int)=    0.0000002497
 Iter   5:  RMS(Cart)=    0.0000000312 RMS(Int)=    0.0000000780
CONVERGED
done
Storing new coordinates                 .... done

                                .--------------------.
          ----------------------|Geometry convergence|-------------------------
          Item                value                   Tolerance       Converged
          ---------------------------------------------------------------------
          RMS gradient        0.0066691664            0.0005000000      NO
          MAX gradient        0.0178373403            0.0020000000      NO
          RMS step            0.0474341649            0.0070000000      NO
          MAX step            0.1355365350            0.0100000000      NO
          ........................................................
          Max(Bonds)      0.0243      Max(Angles)    3.36
          Max(Dihed)        7.77      Max(Improp)    0.00
          ---------------------------------------------------------------------

The optimization has not yet converged - more geometry cycles are needed


    ---------------------------------------------------------------------------
                         Redundant Internal Coordinates
                            (Angstroem and degrees)

        Definition                    Value    dE/dq     Step     New-Value
    ----------------------------------------------------------------------------
     1. B(C   1,C   0)                1.5269 -0.017837  0.0243    1.5512   
     2. B(C   2,C   1)                1.4967 -0.005029  0.0095    1.5063   
     3. B(H   3,C   0)                1.1170  0.004131 -0.0065    1.1105   
     4. B(H   4,C   0)                1.1074  0.000177 -0.0003    1.1071   
     5. B(H   5,C   0)                1.1126  0.003128 -0.0048    1.1077   
     6. B(H   6,C   1)                1.1100 -0.003302  0.0088    1.1188   
     7. B(H   6,C   2)                2.1872  0.000351  0.0000    2.1872 C 
     8. B(H   7,C   1)                1.1256  0.008642 -0.0140    1.1116   
     9. B(H   8,C   2)                1.0835 -0.015455  0.0216    1.1051   
    10. B(H   9,C   2)                1.0938 -0.007623  0.0110    1.1049   
    11. A(H   4,C   0,H   5)          112.59  0.010087   -1.93    110.66   
    12. A(C   1,C   0,H   4)          106.45 -0.014571    2.46    108.92   
    13. A(C   1,C   0,H   3)          110.44 -0.002155    0.47    110.91   
    14. A(H   3,C   0,H   5)          106.95  0.002736   -0.14    106.82   
    15. A(C   1,C   0,H   5)          107.95 -0.006399    1.29    109.24   
    16. A(H   3,C   0,H   4)          112.40  0.009575   -2.01    110.39   
    17. A(C   0,C   1,C   2)          111.17 -0.007225    1.50    112.67   
    18. A(C   0,C   1,H   6)          109.47  0.001517   -0.77    108.70   
    19. A(C   2,C   1,H   6)          113.25  0.005586   -1.25    112.00   
    20. A(C   0,C   1,H   7)          105.36 -0.003395    1.81    107.17   
    21. A(C   2,C   1,H   7)          106.96 -0.000406    1.02    107.98   
    22. A(H   6,C   1,H   7)          110.31  0.003304   -2.08    108.23   
    23. A(C   1,C   2,H   8)          115.40 -0.005979    2.62    118.02   
    24. A(C   1,C   2,H   9)          114.78 -0.010277    3.36    118.14   
    25. A(H   8,C   2,H   9)          116.12  0.006715    1.17    117.30   
    26. D(H   7,C   1,C   0,H   4)     81.32  0.003502   -3.83     77.50   
    27. D(C   2,C   1,C   0,H   4)   -163.15 -0.002415   -0.88   -164.03   
    28. D(C   2,C   1,C   0,H   3)    -40.87 -0.001164   -1.51    -42.38   
    29. D(H   7,C   1,C   0,H   3)   -156.40  0.004752   -4.45   -160.85   
    30. D(H   6,C   1,C   0,H   3)     84.99  0.001978   -2.61     82.38   
    31. D(H   6,C   1,C   0,H   5)   -158.40  0.000373   -1.77   -160.18   
    32. D(H   7,C   1,C   0,H   5)    -39.79  0.003148   -3.61    -43.40   
    33. D(H   6,C   1,C   0,H   4)    -37.29  0.000727   -1.99    -39.28   
    34. D(C   2,C   1,C   0,H   5)     75.73 -0.002769   -0.67     75.07   
    35. D(H   9,C   2,C   1,H   7)    -31.91 -0.009023    5.20    -26.71   
    36. D(H   8,C   2,C   1,H   6)    -49.30  0.007535   -6.97    -56.26   
    37. D(H   8,C   2,C   1,H   7)   -171.03  0.000182   -4.28   -175.31   
    38. D(H   9,C   2,C   1,C   0)   -146.44 -0.001060    1.71   -144.73   
    39. D(H   8,C   2,C   1,C   0)     74.44  0.008145   -7.77     66.67   
    40. D(H   9,C   2,C   1,H   6)     89.83 -0.001671    2.51     92.34   
    ----------------------------------------------------------------------------

         *************************************************************
         *                GEOMETRY OPTIMIZATION CYCLE   2            *
         *************************************************************
---------------------------------
CARTESIAN COORDINATES (ANGSTROEM)
---------------------------------
  C     -1.199212    0.098101   -0.013069
  C      0.225065   -0.463226    0.237301
  C      1.303202    0.405523   -0.355887
  H     -1.224647    1.197528    0.141556
  H     -1.908272   -0.404203    0.672984
  H     -1.482328   -0.083471   -1.068510
  H      0.364082   -0.611534    1.337536
  H      0.276596   -1.457547   -0.257035
  H      1.448297    1.411955    0.076775
  H      2.197118   -0.093228   -0.771651

----------------------------
CARTESIAN COORDINATES (A.U.)
----------------------------
  NO LB      ZA    FRAG     MASS         X           Y           Z
   0 C     6.0000    0    12.011   -2.266182    0.185383   -0.024698
   1 C     6.0000    0    12.011    0.425311   -0.875370    0.448434
   2 C     6.0000    0    12.011    2.462694    0.766328   -0.672529
   3 H     1.0000    0     1.008   -2.314248    2.263001    0.267502
   4 H     1.0000    0     1.008   -3.606112   -0.763832    1.271756
   5 H     1.0000    0     1.008   -2.801194   -0.157737   -2.019191
   6 H     1.0000    0     1.008    0.688016   -1.155631    2.527577
   7 H     1.0000    0     1.008    0.522690   -2.754364   -0.485725
   8 H     1.0000    0     1.008    2.736885    2.668209    0.145083
   9 H     1.0000    0     1.008    4.151951   -0.176175   -1.458209

--------------------------------
INTERNAL COORDINATES (ANGSTROEM)
--------------------------------
 C      0   0   0     0.000000000000     0.00000000     0.00000000
 C      1   0   0     1.551237551212     0.00000000     0.00000000
 C      2   1   0     1.506312259903   112.63807555     0.00000000
 H      1   2   3     1.110539336395   110.90339244   317.63695139
 H      1   2   3     1.107133458715   108.89541459   195.98868028
 H      1   2   3     1.107735390604   109.21604411    75.07745731
 H      2   1   3     1.118855889453   108.70890753   124.74563399
 H      2   1   3     1.111619104510   107.12525715   241.49633583
 H      3   2   1     1.105058256921   117.71403833    66.57554338
 H      3   2   1     1.104852291823   117.83561413   215.34263913

---------------------------
INTERNAL COORDINATES (A.U.)
---------------------------
 C      0   0   0     0.000000000000     0.00000000     0.00000000
 C      1   0   0     2.931414140445     0.00000000     0.00000000
 C      2   1   0     2.846517643385   112.63807555     0.00000000
 H      1   2   3     2.098615206734   110.90339244   317.63695139
 H      1   2   3     2.092179030673   108.89541459   195.98868028
 H      1   2   3     2.093316517094   109.21604411    75.07745731
 H      2   1   3     2.114331214391   108.70890753   124.74563399
 H      2   1   3     2.100655672759   107.12525715   241.49633583
 H      3   2   1     2.088257467609   117.71403833    66.57554338
 H      3   2   1     2.087868249981   117.83561413   215.34263913

[1589382033.829744] [ty2019:7733 :0]            sys.c:618  UCX  ERROR shmget(size=2097152 flags=0xfb0) for mm_recv_desc failed: Operation not permitted, please check shared memory limits by 'ipcs -l'
[1589382033.832366] [ty2019:7732 :0]            sys.c:618  UCX  ERROR shmget(size=2097152 flags=0xfb0) for mm_recv_desc failed: Operation not permitted, please check shared memory limits by 'ipcs -l'
[1589382033.833172] [ty2019:7735 :0]            sys.c:618  UCX  ERROR shmget(size=2097152 flags=0xfb0) for mm_recv_desc failed: Operation not permitted, please check shared memory limits by 'ipcs -l'
[1589382033.833896] [ty2019:7734 :0]            sys.c:618  UCX  ERROR shmget(size=2097152 flags=0xfb0) for mm_recv_desc failed: Operation not permitted, please check shared memory limits by 'ipcs -l'
[1589382033.840812] [ty2019:7732 :0]            sys.c:618  UCX  ERROR shmget(size=2097152 flags=0xb80) for ucp_am_bufs failed: Operation not permitted, please check shared memory limits by 'ipcs -l'
[1589382033.840794] [ty2019:7734 :0]            sys.c:618  UCX  ERROR shmget(size=2097152 flags=0xb80) for ucp_am_bufs failed: Operation not permitted, please check shared memory limits by 'ipcs -l'


           ************************************************************
           *        Program running with 4 parallel MPI-processes     *
           *              working on a common directory               *
           ************************************************************
[1589382033.842233] [ty2019:7733 :0]            sys.c:618  UCX  ERROR shmget(size=2097152 flags=0xb80) for ucp_am_bufs failed: Operation not permitted, please check shared memory limits by 'ipcs -l'
 One Electron integrals                  ... done
 Pre-screening matrix                    ... done
[1589382033.978872] [ty2019:7735 :0]            sys.c:618  UCX  ERROR shmget(size=2097152 flags=0xb80) for ucp_am_bufs failed: Operation not permitted, please check shared memory limits by 'ipcs -l'
[1589382034.876052] [ty2019:7755 :0]            sys.c:618  UCX  ERROR shmget(size=2097152 flags=0xfb0) for mm_recv_desc failed: Operation not permitted, please check shared memory limits by 'ipcs -l'
[1589382034.876315] [ty2019:7757 :0]            sys.c:618  UCX  ERROR shmget(size=2097152 flags=0xfb0) for mm_recv_desc failed: Operation not permitted, please check shared memory limits by 'ipcs -l'
[1589382034.876477] [ty2019:7756 :0]            sys.c:618  UCX  ERROR shmget(size=2097152 flags=0xfb0) for mm_recv_desc failed: Operation not permitted, please check shared memory limits by 'ipcs -l'
[1589382034.876861] [ty2019:7754 :0]            sys.c:618  UCX  ERROR shmget(size=2097152 flags=0xfb0) for mm_recv_desc failed: Operation not permitted, please check shared memory limits by 'ipcs -l'
[1589382034.884708] [ty2019:7754 :0]            sys.c:618  UCX  ERROR shmget(size=2097152 flags=0xb80) for ucp_am_bufs failed: Operation not permitted, please check shared memory limits by 'ipcs -l'
[1589382034.885208] [ty2019:7757 :0]            sys.c:618  UCX  ERROR shmget(size=2097152 flags=0xb80) for ucp_am_bufs failed: Operation not permitted, please check shared memory limits by 'ipcs -l'
[1589382034.885760] [ty2019:7756 :0]            sys.c:618  UCX  ERROR shmget(size=2097152 flags=0xb80) for ucp_am_bufs failed: Operation not permitted, please check shared memory limits by 'ipcs -l'


           ************************************************************
           *        Program running with 4 parallel MPI-processes     *
           *              working on a common directory               *
           ************************************************************
[1589382034.888271] [ty2019:7755 :0]            sys.c:618  UCX  ERROR shmget(size=2097152 flags=0xb80) for ucp_am_bufs failed: Operation not permitted, please check shared memory limits by 'ipcs -l'

Diagonalization of the overlap matrix:
Smallest eigenvalue                        ... 3.243e-03
Time for diagonalization                   ...    0.002 sec
Threshold for overlap eigenvalues          ... 1.000e-08
Number of eigenvalues below threshold      ... 0
Time for construction of square roots      ...    0.001 sec
Total time needed                          ...    0.002 sec

-------------------
DFT GRID GENERATION
-------------------

General Integration Accuracy     IntAcc      ...  4.340
Radial Grid Type                 RadialGrid  ... Gauss-Chebyshev
Angular Grid (max. acc.)         AngularGrid ... Lebedev-110
Angular grid pruning method      GridPruning ... 3 (G Style)
Weight generation scheme         WeightScheme... Becke
Basis function cutoff            BFCut       ...    1.0000e-11
Integration weight cutoff        WCut        ...    1.0000e-14
Grids for H and He will be reduced by one unit

# of grid points (after initial pruning)     ...  10526 (   0.0 sec)
# of grid points (after weights+screening)   ...  10037 (   0.0 sec)
nearest neighbour list constructed           ...    0.0 sec
Grid point re-assignment to atoms done       ...    0.0 sec
Grid point division into batches done        ...    0.0 sec
Reduced shell lists constructed in    0.0 sec

Total number of grid points                  ...    10037
Total number of batches                      ...      162
Average number of points per batch           ...       61
Average number of grid points per atom       ...     1004
Average number of shells per batch           ...    36.21 (92.86%)
Average number of basis functions per batch  ...    71.55 (92.92%)
Average number of large shells per batch     ...    33.67 (92.97%)
Average number of large basis fcns per batch ...    66.05 (92.31%)
Maximum spatial batch extension              ...  14.65, 16.80, 15.97 au
Average spatial batch extension              ...   0.55,  0.59,  0.58 au

Time for grid setup =    0.023 sec


--------------------
CPCM SOLVATION MODEL
--------------------
CPCM parameters:
  Epsilon                                         ...      80.4000
  Refrac                                          ...       1.3300
  Rsolv                                           ...       1.3000
  Surface type                                    ... GAUSSIAN VDW
  Epsilon function type                           ...         CPCM
Radii:
 Radius for C  used is    3.8550 Bohr (=   2.0400 Ang.)
 Radius for H  used is    2.4944 Bohr (=   1.3200 Ang.)
Calculating surface                               ...        done! (  0.0s)
GEPOL surface points                              ...          611
GEPOL Volume                                      ...     545.1433
GEPOL Surface-area                                ...     358.6024
Calculating surface distance matrix               ...        done! (  0.0s)
Performing Cholesky decomposition & store         ...        done! (  0.0s)
Overall time for CPCM initialization              ...                 0.0s
--------------
SCF ITERATIONS
--------------
ITER       Energy         Delta-E        Max-DP      RMS-DP      [F,P]     Damp
               ***  Starting incremental Fock matrix formation  ***
  0   -118.1991496249   0.000000000000 0.00437355  0.00013532  0.0125453 0.7000
  1   -118.1996270337  -0.000477408766 0.00411996  0.00013028  0.0097871 0.7000
                               ***Turning on DIIS***
  2   -118.1999963642  -0.000369330576 0.01061443  0.00035790  0.0073288 0.0000
  3   -118.2008972830  -0.000900918726 0.00257823  0.00006651  0.0010541 0.0000
  4   -118.2009113452  -0.000014062238 0.00244780  0.00006177  0.0005517 0.0000
  5   -118.2009158351  -0.000004489935 0.00025956  0.00001027  0.0002822 0.0000
  6   -118.2009163185  -0.000000483349 0.00007480  0.00000362  0.0001192 0.0000
[...]
  39   0.0000       0.847354        23.0577 
  40   0.0000       0.956010        26.0143 
  41   0.0000       1.078957        29.3599 
  42   0.0000       1.174256        31.9531 
  43   0.0000       1.186117        32.2759 
  44   0.0000       1.308359        35.6023 
  45   0.0000       1.426939        38.8290 
  46   0.0000       1.473769        40.1033 
  47   0.0000       1.513736        41.1909 
  48   0.0000       1.548913        42.1481 
  49   0.0000       1.579191        42.9720 
  50   0.0000       1.674498        45.5654 
  51   0.0000       1.696333        46.1596 
  52   0.0000       1.721989        46.8577 
  53   0.0000       1.728628        47.0383 
  54   0.0000       1.758284        47.8453 
  55   0.0000       1.783006        48.5181 
  56   0.0000       1.785679        48.5908 
  57   0.0000       1.805998        49.1437 
  58   0.0000       1.881029        51.1854 
  59   0.0000       1.928385        52.4740 
  60   0.0000       1.987653        54.0868 
  61   0.0000       2.093354        56.9631 
  62   0.0000       2.149830        58.4998 
  63   0.0000       2.190833        59.6156 
  64   0.0000       2.282634        62.1136 
  65   0.0000       2.303766        62.6887 
  66   0.0000       2.319691        63.1220 
  67   0.0000       2.424869        65.9840 
  68   0.0000       2.472962        67.2927 
  69   0.0000       2.518567        68.5337 
  70   0.0000       2.677813        72.8670 
  71   0.0000       2.746831        74.7451 
  72   0.0000       2.781630        75.6920 
  73   0.0000       2.854506        77.6751 
  74   0.0000       2.875134        78.2364 
  75   0.0000       2.948451        80.2314 
  76   0.0000       2.992359        81.4262 

                    ********************************
                    * MULLIKEN POPULATION ANALYSIS *
                    ********************************

--------------------------------------------
MULLIKEN ATOMIC CHARGES AND SPIN POPULATIONS
--------------------------------------------
   0 C :   -0.075544    0.004650
   1 C :   -0.059463   -0.079061
   2 C :   -0.155835    1.071524
   3 H :    0.035187   -0.000317
   4 H :    0.033094    0.000532
   5 H :    0.033342    0.004772
   6 H :    0.050153    0.066749
   7 H :    0.038644    0.026088
   8 H :    0.051199   -0.047473
   9 H :    0.049224   -0.047465
Sum of atomic charges         :    0.0000000
Sum of atomic spin populations:    1.0000000

-----------------------------------------------------
MULLIKEN REDUCED ORBITAL CHARGES AND SPIN POPULATIONS
-----------------------------------------------------
CHARGE
  0 C s       :     3.046322  s :     3.046322
      pz      :     1.016580  p :     3.004527
      px      :     0.975950
      py      :     1.011998
      dz2     :     0.005820  d :     0.024694
      dxz     :     0.004347
      dyz     :     0.003440
      dx2y2   :     0.005566
      dxy     :     0.005521
  1 C s       :     3.048160  s :     3.048160
      pz      :     1.004710  p :     2.977004
      px      :     0.966530
      py      :     1.005764
      dz2     :     0.008323  d :     0.034299
      dxz     :     0.005778
      dyz     :     0.004377
      dx2y2   :     0.008847
      dxy     :     0.006975
  2 C s       :     3.213963  s :     3.213963
      pz      :     1.010201  p :     2.922532
      px      :     0.952502
      py      :     0.959829
      dz2     :     0.002932  d :     0.019341
      dxz     :     0.002263
      dyz     :     0.001647
      dx2y2   :     0.007741
      dxy     :     0.004758
  3 H s       :     0.942065  s :     0.942065
      pz      :     0.006677  p :     0.022748
      px      :     0.004391
      py      :     0.011680
  4 H s       :     0.944231  s :     0.944231
      pz      :     0.006503  p :     0.022675
      px      :     0.008521
      py      :     0.007651
  5 H s       :     0.943956  s :     0.943956
      pz      :     0.012789  p :     0.022702
      px      :     0.004660
      py      :     0.005253
  6 H s       :     0.927902  s :     0.927902
      pz      :     0.012716  p :     0.021945
      px      :     0.004193
      py      :     0.005036
  7 H s       :     0.939283  s :     0.939283
      pz      :     0.006421  p :     0.022074
      px      :     0.004024
      py      :     0.011628
  8 H s       :     0.925801  s :     0.925801
      pz      :     0.005400  p :     0.023001
      px      :     0.004267
      py      :     0.013333
  9 H s       :     0.927928  s :     0.927928
      pz      :     0.005369  p :     0.022849
      px      :     0.011925
      py      :     0.005555

SPIN
  0 C s       :     0.000014  s :     0.000014
      pz      :     0.000155  p :     0.004634
      px      :     0.002453
      py      :     0.002025
      dz2     :     0.000061  d :     0.000003
      dxz     :    -0.000088
      dyz     :     0.000054
      dx2y2   :    -0.000028
      dxy     :     0.000003
  1 C s       :    -0.023359  s :    -0.023359
      pz      :    -0.020941  p :    -0.062779
      px      :    -0.024744
      py      :    -0.017093
      dz2     :     0.004302  d :     0.007077
      dxz     :     0.000976
      dyz     :     0.001531
      dx2y2   :     0.000097
      dxy     :     0.000171
  2 C s       :     0.095936  s :     0.095936
      pz      :     0.793038  p :     0.977867
      px      :     0.106878
      py      :     0.077951
      dz2     :    -0.001522  d :    -0.002279
      dxz     :    -0.000520
      dyz     :    -0.000226
      dx2y2   :     0.000020
      dxy     :    -0.000031
  3 H s       :    -0.000373  s :    -0.000373
      pz      :     0.000002  p :     0.000056
      px      :     0.000061
      py      :    -0.000006
  4 H s       :     0.000518  s :     0.000518
      pz      :    -0.000012  p :     0.000014
      px      :     0.000016
      py      :     0.000010
  5 H s       :     0.004791  s :     0.004791
      pz      :    -0.000005  p :    -0.000019
      px      :    -0.000017
      py      :     0.000003
  6 H s       :     0.066882  s :     0.066882
      pz      :    -0.000418  p :    -0.000132
      px      :     0.000302
      py      :    -0.000017
  7 H s       :     0.026258  s :     0.026258
      pz      :    -0.000095  p :    -0.000169
      px      :     0.000142
      py      :    -0.000217
  8 H s       :    -0.052577  s :    -0.052577
      pz      :     0.004500  p :     0.005104
      px      :     0.000279
      py      :     0.000325
  9 H s       :    -0.052425  s :    -0.052425
      pz      :     0.004382  p :     0.004960
      px      :     0.000417
      py      :     0.000161


                     *******************************
                     * LOEWDIN POPULATION ANALYSIS *
                     *******************************

-------------------------------------------
LOEWDIN ATOMIC CHARGES AND SPIN POPULATIONS
-------------------------------------------
   0 C :   -0.076490    0.007981
   1 C :   -0.074732   -0.008535
   2 C :   -0.056812    0.918474
   3 H :    0.029468    0.000253
   4 H :    0.030868    0.000156
   5 H :    0.027410    0.002073
   6 H :    0.043328    0.058675
   7 H :    0.038723    0.023451
   8 H :    0.019221   -0.001072
   9 H :    0.019016   -0.001456

----------------------------------------------------
LOEWDIN REDUCED ORBITAL CHARGES AND SPIN POPULATIONS
----------------------------------------------------
CHARGE
  0 C s       :     2.855256  s :     2.855256
      pz      :     1.069502  p :     3.155057
      px      :     1.023011
      py      :     1.062545
      dz2     :     0.016891  d :     0.066176
      dxz     :     0.009879
      dyz     :     0.009281
      dx2y2   :     0.015134
      dxy     :     0.014990
  1 C s       :     2.850258  s :     2.850258
      pz      :     1.051153  p :     3.135078
      px      :     1.030622
      py      :     1.053302
      dz2     :     0.023521  d :     0.089396
      dxz     :     0.013174
      dyz     :     0.011632
      dx2y2   :     0.021804
      dxy     :     0.019265
  2 C s       :     2.942226  s :     2.942226
      pz      :     0.988008  p :     3.064183
      px      :     1.030321
      py      :     1.045855
      dz2     :     0.005323  d :     0.050404
      dxz     :     0.005167
      dyz     :     0.003851
      dx2y2   :     0.021314
      dxy     :     0.014750
  3 H s       :     0.906582  s :     0.906582
      pz      :     0.016995  p :     0.063949
      px      :     0.012254
      py      :     0.034700
  4 H s       :     0.905036  s :     0.905036
      pz      :     0.016691  p :     0.064096
      px      :     0.026350
      py      :     0.021056
  5 H s       :     0.908489  s :     0.908489
      pz      :     0.038147  p :     0.064101
      px      :     0.013219
      py      :     0.012735
  6 H s       :     0.894170  s :     0.894170
      pz      :     0.037878  p :     0.062502
      px      :     0.012057
      py      :     0.012567
  7 H s       :     0.897739  s :     0.897739
      pz      :     0.016387  p :     0.063538
      px      :     0.012016
      py      :     0.035135
  8 H s       :     0.907731  s :     0.907731
      pz      :     0.019275  p :     0.073049
      px      :     0.011536
      py      :     0.042237
  9 H s       :     0.908268  s :     0.908268
      pz      :     0.019129  p :     0.072716
      px      :     0.037638
      py      :     0.015949

SPIN
  0 C s       :     0.002103  s :     0.002103
      pz      :     0.000522  p :     0.005809
      px      :     0.003613
      py      :     0.001673
      dz2     :     0.000142  d :     0.000069
      dxz     :    -0.000186
      dyz     :     0.000189
      dx2y2   :    -0.000049
      dxy     :    -0.000027
  1 C s       :    -0.005081  s :    -0.005081
      pz      :    -0.004736  p :    -0.021788
      px      :    -0.009371
      py      :    -0.007682
      dz2     :     0.010790  d :     0.018334
      dxz     :     0.002480
      dyz     :     0.003835
      dx2y2   :     0.000404
      dxy     :     0.000825
  2 C s       :     0.031598  s :     0.031598
      pz      :     0.750375  p :     0.890370
      px      :     0.085569
      py      :     0.054425
      dz2     :    -0.001155  d :    -0.003493
      dxz     :    -0.000590
      dyz     :    -0.000310
      dx2y2   :    -0.000815
      dxy     :    -0.000623
  3 H s       :     0.000085  s :     0.000085
      pz      :     0.000004  p :     0.000169
      px      :     0.000145
      py      :     0.000020
  4 H s       :    -0.000052  s :    -0.000052
      pz      :     0.000045  p :     0.000208
      px      :     0.000130
      py      :     0.000033
  5 H s       :     0.001656  s :     0.001656
      pz      :     0.000257  p :     0.000417
      px      :     0.000035
      py      :     0.000125
  6 H s       :     0.059464  s :     0.059464
      pz      :    -0.000827  p :    -0.000789
      px      :     0.000218
      py      :    -0.000180
  7 H s       :     0.024113  s :     0.024113
      pz      :    -0.000261  p :    -0.000662
      px      :     0.000149
      py      :    -0.000551
  8 H s       :    -0.023263  s :    -0.023263
      pz      :     0.016806  p :     0.022191
      px      :     0.001843
      py      :     0.003542
  9 H s       :    -0.023241  s :    -0.023241
      pz      :     0.016458  p :     0.021785
      px      :     0.003820
      py      :     0.001507


                      *****************************
                      * MAYER POPULATION ANALYSIS *
                      *****************************

  NA   - Mulliken gross atomic population
  ZA   - Total nuclear charge
  QA   - Mulliken gross atomic charge
  VA   - Mayer's total valence
  BVA  - Mayer's bonded valence
  FA   - Mayer's free valence

  ATOM       NA         ZA         QA         VA         BVA        FA
  0 C      6.0755     6.0000    -0.0755     4.0149     4.0149     0.0001
  1 C      6.0595     6.0000    -0.0595     4.1024     4.0995     0.0030
  2 C      6.1558     6.0000    -0.1558     3.9479     3.1099     0.8379
  3 H      0.9648     1.0000     0.0352     0.9852     0.9852     0.0000
  4 H      0.9669     1.0000     0.0331     0.9834     0.9834     0.0000
  5 H      0.9667     1.0000     0.0333     0.9860     0.9860     0.0000
  6 H      0.9498     1.0000     0.0502     0.9704     0.9657     0.0047
  7 H      0.9614     1.0000     0.0386     0.9715     0.9708     0.0007
  8 H      0.9488     1.0000     0.0512     0.9854     0.9826     0.0028
  9 H      0.9508     1.0000     0.0492     0.9780     0.9752     0.0028

  Mayer bond orders larger than 0.100000
B(  0-C ,  1-C ) :   1.1032 B(  0-C ,  3-H ) :   0.9677 B(  0-C ,  4-H ) :   0.9627 
B(  0-C ,  5-H ) :   0.9725 B(  1-C ,  2-C ) :   1.1174 B(  1-C ,  6-H ) :   0.9181 
B(  1-C ,  7-H ) :   0.9328 B(  2-C ,  8-H ) :   0.9668 B(  2-C ,  9-H ) :   0.9614 



------------------
HIRSHFELD ANALYSIS
------------------

Total integrated alpha density =     12.997775505
Total integrated beta density  =     11.999103746

  ATOM     CHARGE      SPIN    
   0 C   -0.074325    0.012067
   1 C   -0.042236    0.057262
   2 C   -0.064791    0.749424
   3 H    0.026468    0.000747
   4 H    0.028159    0.000911
   5 H    0.022841    0.004374
   6 H    0.031058    0.055359
   7 H    0.030900    0.023969
   8 H    0.022393    0.047934
   9 H    0.022654    0.046624

  TOTAL   0.003121    0.998672

-------
TIMINGS
-------

Total SCF time: 0 days 0 hours 0 min 2 sec 

Total time                  ....       2.567 sec
Sum of individual times     ....       2.366 sec  ( 92.2%)

Fock matrix formation       ....       2.144 sec  ( 83.5%)
  Split-RI-J                ....       0.598 sec  ( 27.9% of F)
  XC integration            ....       0.221 sec  ( 10.3% of F)
    Basis function eval.    ....       0.061 sec  ( 27.9% of XC)
    Density eval.           ....       0.044 sec  ( 19.9% of XC)
    XC-Functional eval.     ....       0.019 sec  (  8.8% of XC)
    XC-Potential eval.      ....       0.062 sec  ( 27.9% of XC)
Diagonalization             ....       0.009 sec  (  0.3%)
Density matrix formation    ....       0.001 sec  (  0.0%)
Population analysis         ....       0.029 sec  (  1.1%)
Initial guess               ....       0.005 sec  (  0.2%)
Orbital Transformation      ....       0.000 sec  (  0.0%)
Orbital Orthonormalization  ....       0.002 sec  (  0.1%)
DIIS solution               ....       0.003 sec  (  0.1%)
Grid generation             ....       0.175 sec  (  6.8%)


-------------------------------------------------------------------------------
                          DFT DISPERSION CORRECTION                            
                                                                               
                              DFTD3 V3.1  Rev 1                                
                          USING Becke-Johnson damping                          
-------------------------------------------------------------------------------
The PBE functional is recognized
Active option DFTDOPT                   ...         4   

molecular C6(AA) [au] = 670.450090 


            DFT-D V3
 parameters
 s6 scaling factor         :     1.0000 
 a1 scaling factor         :     0.4289 
 s8 scaling factor         :     0.7875 
 a2 scaling factor         :     4.4407 
 ad hoc parameters k1-k3   :    16.0000     1.3333    -4.0000 

 Edisp/kcal,au: -3.397125722812  -0.005413663858 
 E6   /kcal   :  -2.467408430 
 E8   /kcal   :  -0.929717293 
 % E8         :  27.367762296 

-------------------------   ----------------
Dispersion correction           -0.005413664
-------------------------   ----------------


-------------------------   --------------------
FINAL SINGLE POINT ENERGY      -118.210277468968
-------------------------   --------------------

                                *** OPTIMIZATION RUN DONE ***

                            ***************************************
                            *     ORCA property calculations      *
                            ***************************************

                                    ---------------------
                                    Active property flags
                                    ---------------------
   (+) Dipole Moment


------------------------------------------------------------------------------
                       ORCA ELECTRIC PROPERTIES CALCULATION
------------------------------------------------------------------------------

Dipole Moment Calculation                       ... on
Quadrupole Moment Calculation                   ... off
Polarizability Calculation                      ... off
GBWName                                         ... m-mfaV_2-6_hl1d_fbond_scan_0_orca.gbw
Electron density file                           ... m-mfaV_2-6_hl1d_fbond_scan_0_orca.scfp
The origin for moment calculation is the CENTER OF MASS  = ( 0.193615, -0.009025 -0.035319)

-------------
DIPOLE MOMENT
-------------
                                X             Y             Z
Electronic contribution:      0.96724      -0.13963      -0.08755
Nuclear contribution   :     -1.04938       0.04881       0.19141
                        -----------------------------------------
Total Dipole Moment    :     -0.08214      -0.09083       0.10386
                        -----------------------------------------
Magnitude (a.u.)       :      0.16057
Magnitude (Debye)      :      0.40815



--------------------
Rotational spectrum 
--------------------
 
Rotational constants in cm-1:     1.077338     0.295991     0.255924 
Rotational constants in MHz : 32297.768764  8873.591942  7672.399347 

 Dipole components along the rotational axes: 
x,y,z [a.u.] :    -0.102168     0.115698     0.044267 
x,y,z [Debye]:    -0.259691     0.294081     0.112518 

 
[1589382125.683603] [ty2019:8646 :0]            sys.c:618  UCX  ERROR shmget(size=2097152 flags=0xfb0) for mm_recv_desc failed: Operation not permitted, please check shared memory limits by 'ipcs -l'
[1589382125.695852] [ty2019:8645 :0]            sys.c:618  UCX  ERROR shmget(size=2097152 flags=0xfb0) for mm_recv_desc failed: Operation not permitted, please check shared memory limits by 'ipcs -l'
[1589382125.696701] [ty2019:8644 :0]            sys.c:618  UCX  ERROR shmget(size=2097152 flags=0xfb0) for mm_recv_desc failed: Operation not permitted, please check shared memory limits by 'ipcs -l'
[1589382125.698166] [ty2019:8643 :0]            sys.c:618  UCX  ERROR shmget(size=2097152 flags=0xfb0) for mm_recv_desc failed: Operation not permitted, please check shared memory limits by 'ipcs -l'
[1589382125.705065] [ty2019:8645 :0]            sys.c:618  UCX  ERROR shmget(size=2097152 flags=0xb80) for ucp_am_bufs failed: Operation not permitted, please check shared memory limits by 'ipcs -l'
[1589382125.705065] [ty2019:8646 :0]            sys.c:618  UCX  ERROR shmget(size=2097152 flags=0xb80) for ucp_am_bufs failed: Operation not permitted, please check shared memory limits by 'ipcs -l'
[1589382125.705565] [ty2019:8643 :0]            sys.c:618  UCX  ERROR shmget(size=2097152 flags=0xb80) for ucp_am_bufs failed: Operation not permitted, please check shared memory limits by 'ipcs -l'
[1589382125.707330] [ty2019:8644 :0]            sys.c:618  UCX  ERROR shmget(size=2097152 flags=0xb80) for ucp_am_bufs failed: Operation not permitted, please check shared memory limits by 'ipcs -l'

Timings for individual modules:

Sum of individual times         ...       98.411 sec (=   1.640 min)
GTO integral calculation        ...       14.159 sec (=   0.236 min)  14.4 %
SCF iterations                  ...       61.280 sec (=   1.021 min)  62.3 %
SCF Gradient evaluation         ...       22.216 sec (=   0.370 min)  22.6 %
Geometry relaxation             ...        0.757 sec (=   0.013 min)   0.8 %
                             ****ORCA TERMINATED NORMALLY****
TOTAL RUN TIME: 0 days 0 hours 1 minutes 40 seconds 528 msec
