
                                 *****************
                                 * O   R   C   A *
                                 *****************

           --- An Ab Initio, DFT and Semiempirical electronic structure package ---

                  #######################################################
                  #                        -***-                        #
                  #          Department of theory and spectroscopy      #
                  #               Directorship: Frank Neese             #
                  #        Max Planck Institute fuer Kohlenforschung    #
                  #                Kaiser Wilhelm Platz 1               #
                  #                 D-45470 Muelheim/Ruhr               #
                  #                      Germany                        #
                  #                                                     #
                  #                  All rights reserved                #
                  #                        -***-                        #
                  #######################################################


                         Program Version 4.2.1 -  RELEASE  -


 With contributions from (in alphabetic order):
   Daniel Aravena         : Magnetic Suceptibility
   Michael Atanasov       : Ab Initio Ligand Field Theory (pilot matlab implementation)
   Alexander A. Auer      : GIAO ZORA, VPT2
   Ute Becker             : Parallelization
   Giovanni Bistoni       : ED, misc. LED, open-shell LED, HFLD
   Martin Brehm           : Molecular dynamics
   Dmytro Bykov           : SCF Hessian
   Vijay G. Chilkuri      : MRCI spin determinant printing, contributions to CSF-ICE
   Dipayan Datta          : RHF DLPNO-CCSD density
   Achintya Kumar Dutta   : EOM-CC, STEOM-CC
   Dmitry Ganyushin       : Spin-Orbit,Spin-Spin,Magnetic field MRCI
   Miquel Garcia          : C-PCM Hessian, Gaussian charge scheme
   Yang Guo               : DLPNO-NEVPT2, CIM, IAO-localization
   Andreas Hansen         : Spin unrestricted coupled pair/coupled cluster methods
   Benjamin Helmich-Paris : CASSCF linear response (MC-RPA)
   Lee Huntington         : MR-EOM, pCC
   Robert Izsak           : Overlap fitted RIJCOSX, COSX-SCS-MP3, EOM
   Christian Kollmar      : KDIIS, OOCD, Brueckner-CCSD(T), CCSD density
   Simone Kossmann        : Meta GGA functionals, TD-DFT gradient, OOMP2, MP2 Hessian
   Martin Krupicka        : AUTO-CI
   Lucas Lang             : DCDCAS
   Dagmar Lenk            : GEPOL surface, SMD
   Dimitrios Liakos       : Extrapolation schemes; Compound Job, initial MDCI parallelization
   Dimitrios Manganas     : Further ROCIS development; embedding schemes
   Dimitrios Pantazis     : SARC Basis sets
   Taras Petrenko         : DFT Hessian,TD-DFT gradient, ASA, ECA, R-Raman, ABS, FL, XAS/XES, NRVS
   Peter Pinski           : DLPNO-MP2, DLPNO-MP2 Gradient
   Christoph Reimann      : Effective Core Potentials
   Marius Retegan         : Local ZFS, SOC
   Christoph Riplinger    : Optimizer, TS searches, QM/MM, DLPNO-CCSD(T), (RO)-DLPNO pert. Triples
   Tobias Risthaus        : Range-separated hybrids, TD-DFT gradient, RPA, STAB
   Michael Roemelt        : Original ROCIS implementation
   Masaaki Saitow         : Open-shell DLPNO-CCSD energy and density
   Barbara Sandhoefer     : DKH picture change effects
   Avijit Sen             : IP-ROCIS
   Kantharuban Sivalingam : CASSCF convergence, NEVPT2, FIC-MRCI
   Bernardo de Souza      : ESD, SOC TD-DFT
   Georgi Stoychev        : AutoAux, RI-MP2 NMR
   Willem Van den Heuvel  : Paramagnetic NMR
   Boris Wezisla          : Elementary symmetry handling
   Frank Wennmohs         : Technical directorship


 We gratefully acknowledge several colleagues who have allowed us to
 interface, adapt or use parts of their codes:
   Stefan Grimme, W. Hujo, H. Kruse,             : VdW corrections, initial TS optimization,
                  C. Bannwarth                     DFT functionals, gCP, sTDA/sTD-DF
   Ed Valeev, F. Pavosevic, A. Kumar             : LibInt (2-el integral package), F12 methods
   Garnet Chan, S. Sharma, J. Yang, R. Olivares  : DMRG
   Ulf Ekstrom                                   : XCFun DFT Library
   Mihaly Kallay                                 : mrcc  (arbitrary order and MRCC methods)
   Andreas Klamt, Michael Diedenhofen            : otool_cosmo (COSMO solvation model)
   Jiri Pittner, Ondrej Demel                    : Mk-CCSD
   Frank Weinhold                                : gennbo (NPA and NBO analysis)
   Christopher J. Cramer and Donald G. Truhlar   : smd solvation model
   Lars Goerigk                                  : TD-DFT with DH, B97 family of functionals
   V. Asgeirsson, H. Jonsson                     : NEB implementation
   FAccTs GmbH                                   : IRC, NEB, NEB-TS, Multilevel, MM, QM/MM, CI optimization
   S Lehtola, MJT Oliveira, MAL Marques          : LibXC Library


 Your calculation uses the libint2 library for the computation of 2-el integrals
 For citations please refer to: http://libint.valeyev.net

 Your ORCA version has been built with support for libXC version: 4.2.3
 For citations please refer to: https://tddft.org/programs/libxc/

 This ORCA versions uses:
   CBLAS   interface :  Fast vector & matrix operations
   LAPACKE interface :  Fast linear algebra routines
   SCALAPACK package :  Parallel linear algebra routines


Your calculation utilizes the atom-pairwise dispersion correction
with the Becke-Johnson damping scheme (D3BJ)
Cite in your paper:
S.Grimme, S.Ehrlich, L.Goerigk, J Comput Chem, (2011), 32, 1456–1465 
S.Grimme, J.Antony, S.Ehrlich and H.Krieg, J.Chem.Phys., 132, (2010), 154104 
   

----- Orbital basis set information -----
Your calculation utilizes the basis: def2-SVP
   F. Weigend and R. Ahlrichs, Phys. Chem. Chem. Phys. 7, 3297 (2005).

----- AuxJ basis set information -----
Your calculation utilizes the auxiliary basis: def2/J
   F. Weigend, Phys. Chem. Chem. Phys. 8, 1057 (2006).

================================================================================
                                        WARNINGS
                       Please study these warnings very carefully!
================================================================================


WARNING: your system is open-shell and RHF/RKS was chosen
  ===> : WILL SWITCH to UHF/UKS


WARNING: Geometry Optimization
  ===> : Switching off AutoStart
         For restart on a previous wavefunction, please use MOREAD

INFO   : the flag for use of LIBINT has been found!

================================================================================
                                       INPUT FILE
================================================================================
NAME = m-mfaV_2-6_hl1d_fbond_scan_6_orca.inp
|  1> ! LooseOpt PBE RI D3BJ def2-SVP def2/J CPCM(Water)
|  2> %cpcm
|  3>  surfacetype vdw_gaussian
|  4> end
|  5> %geom Constraints
|  6> { B 2 6 1.5872432992239331 C }
|  7>     end
|  8> end
|  9> %geom MaxIter 100 end
| 10> %pal nprocs 4
| 11> end
| 12> %output 
| 13> xyzfile=True 
| 14> end 
| 15> %scf 
| 16> maxiter 250 
| 17> end
| 18> %output
| 19> Print[P_Hirshfeld] = 1
| 20> end
| 21> % maxcore
| 22> 4000
| 23> *xyz 0 2
| 24> C   -1.22114089   0.10351311  -0.00128337 
| 25> C    0.16990190  -0.49637041   0.10182056 
| 26> C    1.32140318   0.30528941  -0.30818849 
| 27> H   -1.24107446   1.14179722   0.38842244 
| 28> H   -1.96454244  -0.48879808   0.56813760 
| 29> H   -1.55303954   0.13998876  -1.06064612 
| 30> H    0.65045082  -0.38080443   1.07957520 
| 31> H    0.22584631  -1.56009072  -0.20226353 
| 32> H    1.29839894   1.39983103  -0.16833386 
| 33> H    2.31369617  -0.16445589  -0.39724043 
| 34> *
| 35> 
| 36>                          ****END OF INPUT****
================================================================================

                       *****************************
                       * Geometry Optimization Run *
                       *****************************

Geometry optimization settings:
Update method            Update   .... BFGS
Choice of coordinates    CoordSys .... Z-matrix Internals
Initial Hessian          InHess   .... Almoef's Model

Convergence Tolerances:
Energy Change            TolE     ....  3.0000e-05 Eh
Max. Gradient            TolMAXG  ....  2.0000e-03 Eh/bohr
RMS Gradient             TolRMSG  ....  5.0000e-04 Eh/bohr
Max. Displacement        TolMAXD  ....  1.0000e-02 bohr
RMS Displacement         TolRMSD  ....  7.0000e-03 bohr
Strict Convergence                ....  False
------------------------------------------------------------------------------
                        ORCA OPTIMIZATION COORDINATE SETUP
------------------------------------------------------------------------------

The optimization will be done in new redundant internal coordinates
Making redundant internal coordinates   ...  (new redundants) done
Evaluating the initial hessian          ...  (Almloef) done
Evaluating the coordinates              ...  done
Calculating the B-matrix                .... done
Calculating the G-matrix                .... done
Diagonalizing the G-matrix              .... done
Imposing constraints:
 Iter   0:  RMS(Cart)=    0.0243367935 RMS(Int)=    0.0598566537
 Iter   1:  RMS(Cart)=    0.0077086264 RMS(Int)=    0.0189813149
 Iter   2:  RMS(Cart)=    0.0024445046 RMS(Int)=    0.0060215481
 Iter   3:  RMS(Cart)=    0.0007754838 RMS(Int)=    0.0019104880
 Iter   4:  RMS(Cart)=    0.0002460418 RMS(Int)=    0.0006061747
 Iter   5:  RMS(Cart)=    0.0000780661 RMS(Int)=    0.0001923343
 Iter   6:  RMS(Cart)=    0.0000247697 RMS(Int)=    0.0000610264
 Iter   7:  RMS(Cart)=    0.0000078593 RMS(Int)=    0.0000193633
 Iter   8:  RMS(Cart)=    0.0000024937 RMS(Int)=    0.0000061438
 Iter   9:  RMS(Cart)=    0.0000007912 RMS(Int)=    0.0000019494
 Iter  10:  RMS(Cart)=    0.0000002511 RMS(Int)=    0.0000006185
 Iter  11:  RMS(Cart)=    0.0000000797 RMS(Int)=    0.0000001963
 Iter  12:  RMS(Cart)=    0.0000000253 RMS(Int)=    0.0000000623
CONVERGED
The first mode is                       ....   16
The number of degrees of freedom        ....   24
Storing new coordinates                 .... done

    -----------------------------------------------------------------
                    Redundant Internal Coordinates


    -----------------------------------------------------------------
         Definition                    Initial Value    Approx d2E/dq
    -----------------------------------------------------------------
      1. B(C   1,C   0)                  1.5185         0.389861   
      2. B(C   2,C   1)                  1.4265         0.480023   
      3. B(H   3,C   0)                  1.1093         0.335589   
      4. B(H   4,C   0)                  1.1082         0.337028   
      5. B(H   5,C   0)                  1.1109         0.333686   
      6. B(H   6,C   1)                  1.0731         0.352799   
      7. B(H   6,C   2)                  1.5872         0.040138 C 
      8. B(H   7,C   1)                  1.1077         0.337375   
      9. B(H   8,C   2)                  1.1038         0.342450   
     10. B(H   9,C   2)                  1.1016         0.345242   
     11. A(H   4,C   0,H   5)          107.8888         0.284438   
     12. A(C   1,C   0,H   4)          111.6247         0.323068   
     13. A(C   1,C   0,H   3)          111.2444         0.322842   
     14. A(H   3,C   0,H   5)          107.3911         0.284249   
     15. A(C   1,C   0,H   5)          110.5861         0.322541   
     16. A(H   3,C   0,H   4)          107.9328         0.284690   
     17. A(C   0,C   1,C   2)          120.8182         0.382188   
     18. A(C   0,C   1,H   6)          116.8179         0.325504   
     19. A(C   2,C   1,H   6)           77.4162         0.336906   
     20. A(C   0,C   1,H   7)          113.2882         0.323123   
     21. A(C   2,C   1,H   7)          114.0197         0.334411   
     22. A(H   6,C   1,H   7)          109.3201         0.286963   
     23. A(C   1,C   2,H   8)          119.4612         0.335241   
     24. A(C   1,C   2,H   9)          119.9176         0.335694   
     25. A(H   8,C   2,H   9)          116.8642         0.286662   
     26. D(H   7,C   1,C   0,H   4)     55.0982         0.012084   
     27. D(C   2,C   1,C   0,H   4)   -164.2969         0.012084   
     28. D(C   2,C   1,C   0,H   3)    -43.6676         0.012084   
     29. D(H   7,C   1,C   0,H   3)    175.7274         0.012084   
     30. D(H   6,C   1,C   0,H   3)     47.3242         0.012084   
     31. D(H   6,C   1,C   0,H   5)    166.5715         0.012084   
     32. D(H   7,C   1,C   0,H   5)    -65.0252         0.012084   
     33. D(H   6,C   1,C   0,H   4)    -73.3051         0.012084   
     34. D(C   2,C   1,C   0,H   5)     75.5797         0.012084   
     35. D(H   9,C   2,C   1,H   7)    -29.8259         0.018216   
     36. D(H   8,C   2,C   1,H   6)    -81.5564         0.018216   
     37. D(H   8,C   2,C   1,H   7)    172.6813         0.018216   
     38. D(H   9,C   2,C   1,C   0)   -170.1664         0.018216   
     39. D(H   8,C   2,C   1,C   0)     32.3408         0.018216   
     40. D(H   9,C   2,C   1,H   6)     75.9364         0.018216   
    -----------------------------------------------------------------

Number of atoms                         .... 10
Number of degrees of freedom            .... 40

         *************************************************************
         *                GEOMETRY OPTIMIZATION CYCLE   1            *
         *************************************************************
---------------------------------
CARTESIAN COORDINATES (ANGSTROEM)
---------------------------------
  C     -1.225829    0.103147   -0.002198
  C      0.173866   -0.478190    0.092081
  C      1.312295    0.291959   -0.289568
  H     -1.255266    1.144148    0.379784
  H     -1.956184   -0.494315    0.578899
  H     -1.568397    0.127308   -1.058642
  H      0.690642   -0.347529    1.023422
  H      0.227376   -1.542446   -0.210577
  H      1.301899    1.385818   -0.142297
  H      2.299499   -0.189999   -0.370904

----------------------------
CARTESIAN COORDINATES (A.U.)
----------------------------
  NO LB      ZA    FRAG     MASS         X           Y           Z
   0 C     6.0000    0    12.011   -2.316482    0.194919   -0.004154
   1 C     6.0000    0    12.011    0.328558   -0.903649    0.174009
   2 C     6.0000    0    12.011    2.479878    0.551723   -0.547204
   3 H     1.0000    0     1.008   -2.372108    2.162126    0.717687
   4 H     1.0000    0     1.008   -3.696652   -0.934119    1.093961
   5 H     1.0000    0     1.008   -2.963841    0.240578   -2.000544
   6 H     1.0000    0     1.008    1.305124   -0.656734    1.933988
   7 H     1.0000    0     1.008    0.429679   -2.914801   -0.397932
   8 H     1.0000    0     1.008    2.460233    2.618817   -0.268903
   9 H     1.0000    0     1.008    4.345423   -0.359047   -0.700908

--------------------------------
INTERNAL COORDINATES (ANGSTROEM)
--------------------------------
 C      0   0   0     0.000000000000     0.00000000     0.00000000
 C      1   0   0     1.518384240421     0.00000000     0.00000000
 C      2   1   0     1.461752744456   119.07604215     0.00000000
 H      1   2   3     1.109189730677   111.24957127   315.08097623
 H      1   2   3     1.108024661917   111.62713335   194.45605727
 H      1   2   3     1.110736972916   110.57825864    74.33320684
 H      2   1   3     1.095576056825   114.88302638    93.71903136
 H      2   1   3     1.107744469049   114.01691052   220.43372441
 H      3   2   1     1.103680148640   119.46688624    32.55514041
 H      3   2   1     1.101470050838   119.89832672   190.02569309

---------------------------
INTERNAL COORDINATES (A.U.)
---------------------------
 C      0   0   0     0.000000000000     0.00000000     0.00000000
 C      1   0   0     2.869330380458     0.00000000     0.00000000
 C      2   1   0     2.762312362530   119.07604215     0.00000000
 H      1   2   3     2.096064821537   111.24957127   315.08097623
 H      1   2   3     2.093863160655   111.62713335   194.45605727
 H      1   2   3     2.098988685632   110.57825864    74.33320684
 H      2   1   3     2.070338706280   114.88302638    93.71903136
 H      2   1   3     2.093333672868   114.01691052   220.43372441
 H      3   2   1     2.085653220376   119.46688624    32.55514041
 H      3   2   1     2.081476740800   119.89832672   190.02569309

---------------------
BASIS SET INFORMATION
---------------------
There are 2 groups of distinct atoms

 Group   1 Type C   : 7s4p1d contracted to 3s2p1d pattern {511/31/1}
 Group   2 Type H   : 4s1p contracted to 2s1p pattern {31/1}

Atom   0C    basis set group =>   1
Atom   1C    basis set group =>   1
Atom   2C    basis set group =>   1
Atom   3H    basis set group =>   2
Atom   4H    basis set group =>   2
Atom   5H    basis set group =>   2
Atom   6H    basis set group =>   2
Atom   7H    basis set group =>   2
Atom   8H    basis set group =>   2
Atom   9H    basis set group =>   2
---------------------------------
AUXILIARY/J BASIS SET INFORMATION
---------------------------------
There are 2 groups of distinct atoms

 Group   1 Type C   : 12s5p4d2f1g contracted to 6s4p3d1f1g pattern {711111/2111/211/2/1}
 Group   2 Type H   : 5s2p1d contracted to 3s1p1d pattern {311/2/1}

Atom   0C    basis set group =>   1
Atom   1C    basis set group =>   1
Atom   2C    basis set group =>   1
Atom   3H    basis set group =>   2
Atom   4H    basis set group =>   2
Atom   5H    basis set group =>   2
Atom   6H    basis set group =>   2
Atom   7H    basis set group =>   2
Atom   8H    basis set group =>   2
Atom   9H    basis set group =>   2
[1589382306.418189] [ty2019:10512:0]            sys.c:618  UCX  ERROR shmget(size=2097152 flags=0xfb0) for mm_recv_desc failed: Operation not permitted, please check shared memory limits by 'ipcs -l'
[1589382306.418569] [ty2019:10514:0]            sys.c:618  UCX  ERROR shmget(size=2097152 flags=0xfb0) for mm_recv_desc failed: Operation not permitted, please check shared memory limits by 'ipcs -l'
[1589382306.419995] [ty2019:10515:0]            sys.c:618  UCX  ERROR shmget(size=2097152 flags=0xfb0) for mm_recv_desc failed: Operation not permitted, please check shared memory limits by 'ipcs -l'
[1589382306.422791] [ty2019:10513:0]            sys.c:618  UCX  ERROR shmget(size=2097152 flags=0xfb0) for mm_recv_desc failed: Operation not permitted, please check shared memory limits by 'ipcs -l'
[1589382306.429211] [ty2019:10512:0]            sys.c:618  UCX  ERROR shmget(size=2097152 flags=0xb80) for ucp_am_bufs failed: Operation not permitted, please check shared memory limits by 'ipcs -l'
[1589382306.429201] [ty2019:10514:0]            sys.c:618  UCX  ERROR shmget(size=2097152 flags=0xb80) for ucp_am_bufs failed: Operation not permitted, please check shared memory limits by 'ipcs -l'
[1589382306.432543] [ty2019:10515:0]            sys.c:618  UCX  ERROR shmget(size=2097152 flags=0xb80) for ucp_am_bufs failed: Operation not permitted, please check shared memory limits by 'ipcs -l'
[1589382306.432543] [ty2019:10513:0]            sys.c:618  UCX  ERROR shmget(size=2097152 flags=0xb80) for ucp_am_bufs failed: Operation not permitted, please check shared memory limits by 'ipcs -l'


           ************************************************************
           *        Program running with 4 parallel MPI-processes     *
           *              working on a common directory               *
           ************************************************************
------------------------------------------------------------------------------
                           ORCA GTO INTEGRAL CALCULATION
                           -- RI-GTO INTEGRALS CHOSEN --
------------------------------------------------------------------------------

                         BASIS SET STATISTICS AND STARTUP INFO

Gaussian basis set:
 # of primitive gaussian shells          ...   71
 # of primitive gaussian functions       ...  121
 # of contracted shells                  ...   39
 # of contracted basis functions         ...   77
 Highest angular momentum                ...    2
 Maximum contraction depth               ...    5
Auxiliary gaussian basis set:
 # of primitive gaussian shells          ...  128
 # of primitive gaussian functions       ...  322
 # of contracted shells                  ...   80
 # of contracted aux-basis functions     ...  224
 Highest angular momentum                ...    4
 Maximum contraction depth               ...    7
Ratio of auxiliary to basis functions    ...  2.91
Integral package used                  ... LIBINT
 One Electron integrals                  ... done
 Ordering auxiliary basis shells         ... done
 Integral threshhold             Thresh  ...  2.500e-11
 Primitive cut-off               TCut    ...  2.500e-12
 Pre-screening matrix                    ... done
 Shell pair data                         ... 
 Ordering of the shell pairs             ... done (   0.000 sec) 778 of 780 pairs
 Determination of significant pairs      ... done (   0.000 sec)
 Creation of shell pair data             ... done (   0.000 sec)
 Storage of shell pair data              ... done (   0.031 sec)
 Shell pair data done in (   0.031 sec)
 Computing two index integrals           ... done
 Cholesky decomposition of the V-matrix  ... done


Timings:
 Total evaluation time                   ...   0.127 sec (  0.002 min)
 One electron matrix time                ...   0.010 sec (  0.000 min) =  7.7%
 Schwartz matrix evaluation time         ...   0.068 sec (  0.001 min) = 53.7%
 Two index repulsion integral time       ...   0.001 sec (  0.000 min) =  1.1%
 Cholesky decomposition of V             ...   0.001 sec (  0.000 min) =  0.7%
 Three index repulsion integral time     ...   0.000 sec (  0.000 min) =  0.0%

[1589382307.423725] [ty2019:10537:0]            sys.c:618  UCX  ERROR shmget(size=2097152 flags=0xfb0) for mm_recv_desc failed: Operation not permitted, please check shared memory limits by 'ipcs -l'
[1589382307.425928] [ty2019:10536:0]            sys.c:618  UCX  ERROR shmget(size=2097152 flags=0xfb0) for mm_recv_desc failed: Operation not permitted, please check shared memory limits by 'ipcs -l'
[1589382307.426478] [ty2019:10535:0]            sys.c:618  UCX  ERROR shmget(size=2097152 flags=0xfb0) for mm_recv_desc failed: Operation not permitted, please check shared memory limits by 'ipcs -l'
[1589382307.433552] [ty2019:10534:0]            sys.c:618  UCX  ERROR shmget(size=2097152 flags=0xfb0) for mm_recv_desc failed: Operation not permitted, please check shared memory limits by 'ipcs -l'
[1589382307.441152] [ty2019:10536:0]            sys.c:618  UCX  ERROR shmget(size=2097152 flags=0xb80) for ucp_am_bufs failed: Operation not permitted, please check shared memory limits by 'ipcs -l'
[1589382307.441168] [ty2019:10534:0]            sys.c:618  UCX  ERROR shmget(size=2097152 flags=0xb80) for ucp_am_bufs failed: Operation not permitted, please check shared memory limits by 'ipcs -l'
[1589382307.441727] [ty2019:10535:0]            sys.c:618  UCX  ERROR shmget(size=2097152 flags=0xb80) for ucp_am_bufs failed: Operation not permitted, please check shared memory limits by 'ipcs -l'
[1589382307.441725] [ty2019:10537:0]            sys.c:618  UCX  ERROR shmget(size=2097152 flags=0xb80) for ucp_am_bufs failed: Operation not permitted, please check shared memory limits by 'ipcs -l'


           ************************************************************
           *        Program running with 4 parallel MPI-processes     *
           *              working on a common directory               *
           ************************************************************
-------------------------------------------------------------------------------
                                 ORCA SCF
-------------------------------------------------------------------------------

------------
SCF SETTINGS
------------
Hamiltonian:
 Density Functional     Method          .... DFT(GTOs)
 Exchange Functional    Exchange        .... PBE
   PBE kappa parameter   XKappa         ....  0.804000
   PBE mue parameter    XMuePBE         ....  0.219520
 Correlation Functional Correlation     .... PBE
   PBE beta parameter  CBetaPBE         ....  0.066725
 LDA part of GGA corr.  LDAOpt          .... PW91-LDA
 Gradients option       PostSCFGGA      .... off
   Density functional embedding theory  .... OFF
   NL short-range parameter             ....  6.400000
 RI-approximation to the Coulomb term is turned on
   Number of auxiliary basis functions  .... 224


General Settings:
 Integral files         IntName         .... m-mfaV_2-6_hl1d_fbond_scan_6_orca
 Hartree-Fock type      HFTyp           .... UHF
 Total Charge           Charge          ....    0
 Multiplicity           Mult            ....    2
 Number of Electrons    NEL             ....   25
 Basis Dimension        Dim             ....   77
 Nuclear Repulsion      ENuc            ....     76.6500642236 Eh

Convergence Acceleration:
 DIIS                   CNVDIIS         .... on
   Start iteration      DIISMaxIt       ....    12
   Startup error        DIISStart       ....  0.200000
   # of expansion vecs  DIISMaxEq       ....     5
   Bias factor          DIISBfac        ....   1.050
   Max. coefficient     DIISMaxC        ....  10.000
 Newton-Raphson         CNVNR           .... off
 SOSCF                  CNVSOSCF        .... off
 Level Shifting         CNVShift        .... on
   Level shift para.    LevelShift      ....    0.2500
   Turn off err/grad.   ShiftErr        ....    0.0010
 Zerner damping         CNVZerner       .... off
 Static damping         CNVDamp         .... on
   Fraction old density DampFac         ....    0.7000
   Max. Damping (<1)    DampMax         ....    0.9800
   Min. Damping (>=0)   DampMin         ....    0.0000
   Turn off err/grad.   DampErr         ....    0.1000
 Fernandez-Rico         CNVRico         .... off

SCF Procedure:
 Maximum # iterations   MaxIter         ....   250
 SCF integral mode      SCFMode         .... Direct
   Integral package                     .... LIBINT
 Reset frequency        DirectResetFreq ....    20
 Integral Threshold     Thresh          ....  2.500e-11 Eh
 Primitive CutOff       TCut            ....  2.500e-12 Eh

Convergence Tolerance:
 Convergence Check Mode ConvCheckMode   .... Total+1el-Energy
 Convergence forced     ConvForced      .... 0
 Energy Change          TolE            ....  1.000e-08 Eh
 1-El. energy change                    ....  1.000e-05 Eh
 DIIS Error             TolErr          ....  5.000e-07


Diagonalization of the overlap matrix:
Smallest eigenvalue                        ... 2.964e-03
Time for diagonalization                   ...    0.001 sec
Threshold for overlap eigenvalues          ... 1.000e-08
Number of eigenvalues below threshold      ... 0
Time for construction of square roots      ...    0.001 sec
Total time needed                          ...    0.003 sec

-------------------
DFT GRID GENERATION
-------------------

General Integration Accuracy     IntAcc      ...  4.340
Radial Grid Type                 RadialGrid  ... Gauss-Chebyshev
Angular Grid (max. acc.)         AngularGrid ... Lebedev-110
Angular grid pruning method      GridPruning ... 3 (G Style)
Weight generation scheme         WeightScheme... Becke
Basis function cutoff            BFCut       ...    1.0000e-11
Integration weight cutoff        WCut        ...    1.0000e-14
Grids for H and He will be reduced by one unit

# of grid points (after initial pruning)     ...  10526 (   0.0 sec)
# of grid points (after weights+screening)   ...  10032 (   0.0 sec)
nearest neighbour list constructed           ...    0.0 sec
Grid point re-assignment to atoms done       ...    0.0 sec
Grid point division into batches done        ...    0.0 sec
Reduced shell lists constructed in    0.0 sec

Total number of grid points                  ...    10032
Total number of batches                      ...      164
Average number of points per batch           ...       61
Average number of grid points per atom       ...     1003
Average number of shells per batch           ...    36.00 (92.31%)
Average number of basis functions per batch  ...    71.14 (92.39%)
Average number of large shells per batch     ...    33.52 (93.12%)
Average number of large basis fcns per batch ...    65.95 (92.70%)
Maximum spatial batch extension              ...  16.42, 15.08, 18.74 au
Average spatial batch extension              ...   0.55,  0.54,  0.65 au

Time for grid setup =    0.032 sec

------------------------------
INITIAL GUESS: MODEL POTENTIAL
------------------------------
Loading Hartree-Fock densities                     ... done
Calculating cut-offs                               ... done
Setting up the integral package                    ... done
Initializing the effective Hamiltonian             ... done
Starting the Coulomb interaction                   ... done (   0.0 sec)
Reading the grid                                   ... done
Mapping shells                                     ... done
Starting the XC term evaluation                    ... done (   0.0 sec)
  promolecular density results
     # of electrons  =     24.995845155
     EX              =    -17.373387292
     EC              =     -0.784983540
     EX+EC           =    -18.158370832
Transforming the Hamiltonian                       ... done (   0.0 sec)
Diagonalizing the Hamiltonian                      ... done (   0.0 sec)
Back transforming the eigenvectors                 ... done (   0.0 sec)
Now organizing SCF variables                       ... done
                      ------------------
                      INITIAL GUESS DONE (   0.1 sec)
                      ------------------

--------------------
CPCM SOLVATION MODEL
--------------------
CPCM parameters:
  Epsilon                                         ...      80.4000
  Refrac                                          ...       1.3300
  Rsolv                                           ...       1.3000
  Surface type                                    ... GAUSSIAN VDW
  Epsilon function type                           ...         CPCM
Radii:
 Radius for C  used is    3.8550 Bohr (=   2.0400 Ang.)
 Radius for H  used is    2.4944 Bohr (=   1.3200 Ang.)
Calculating surface                               ...        done! (  0.0s)
GEPOL surface points                              ...          602
GEPOL Volume                                      ...     533.0451
GEPOL Surface-area                                ...     350.6931
Calculating surface distance matrix               ...        done! (  0.0s)
Performing Cholesky decomposition & store         ...        done! (  0.0s)
Overall time for CPCM initialization              ...                 0.0s
--------------
SCF ITERATIONS
--------------
ITER       Energy         Delta-E        Max-DP      RMS-DP      [F,P]     Damp
               ***  Starting incremental Fock matrix formation  ***
  0   -118.0711525106   0.000000000000 0.04824808  0.00169145  0.1516263 0.7000
  1   -118.1207467268  -0.049594216209 0.03327997  0.00122995  0.0726013 0.7000
                               ***Turning on DIIS***
  2   -118.1387077291  -0.017961002295 0.04154320  0.00202103  0.0205961 0.0000
  3   -118.1628787875  -0.024171058441 0.02572716  0.00082890  0.0459382 0.0000
  4   -118.1720010250  -0.009122237478 0.00833123  0.00027409  0.0097402 0.0000
  5   -118.1725248862  -0.000523861220 0.00163199  0.00010525  0.0025027 0.0000
  6   -118.1725687206  -0.000043834360 0.00197844  0.00007787  0.0009305 0.0000
  7   -118.1725750532  -0.000006332615 0.00037784  0.00000906  0.0004127 0.0000
  8   -118.1725756686  -0.000000615349 0.00009862  0.00000344  0.0000487 0.0000
  9   -118.1725757175  -0.000000048968 0.00002271  0.00000091  0.0000168 0.0000
 10   -118.1725757221  -0.000000004600 0.00000845  0.00000036  0.0000133 0.0000
                 **** Energy Check signals convergence ****

               *****************************************************
               *                     SUCCESS                       *
               *           SCF CONVERGED AFTER  11 CYCLES          *
               *****************************************************

Setting up the final grid:

General Integration Accuracy     IntAcc      ...  4.670
Radial Grid Type                 RadialGrid  ... Gauss-Chebyshev
Angular Grid (max. acc.)         AngularGrid ... Lebedev-302
Angular grid pruning method      GridPruning ... 3 (G Style)
Weight generation scheme         WeightScheme... Becke
Basis function cutoff            BFCut       ...    1.0000e-11
Integration weight cutoff        WCut        ...    1.0000e-14
Grids for H and He will be reduced by one unit

# of grid points (after initial pruning)     ...  42394 (   0.0 sec)
# of grid points (after weights+screening)   ...  39941 (   0.0 sec)
nearest neighbour list constructed           ...    0.0 sec
Grid point re-assignment to atoms done       ...    0.0 sec
Grid point division into batches done        ...    0.1 sec
Reduced shell lists constructed in    0.1 sec

Total number of grid points                  ...    39941
Total number of batches                      ...      628
Average number of points per batch           ...       63
Average number of grid points per atom       ...     3994
Average number of shells per batch           ...    34.99 (89.73%)
Average number of basis functions per batch  ...    69.07 (89.70%)
Average number of large shells per batch     ...    31.77 (90.78%)
Average number of large basis fcns per batch ...    62.07 (89.87%)
Maximum spatial batch extension              ...  14.77, 13.95, 18.33 au
Average spatial batch extension              ...   0.42,  0.43,  0.48 au

Final grid set up in    0.2 sec
Final integration                            ... done (   0.1 sec)
Change in XC energy                          ...    -0.000013778
Integrated number of electrons               ...    24.999935627
Previous integrated no of electrons          ...    24.999960932

----------------
TOTAL SCF ENERGY
----------------

Total Energy       :         -118.17258950 Eh           -3215.63964 eV

Components:
Nuclear Repulsion  :           76.65006422 Eh            2085.75429 eV
Electronic Energy  :         -194.82265372 Eh           -5301.39393 eV
One Electron Energy:         -309.01621495 Eh           -8408.75870 eV
Two Electron Energy:          114.19356123 Eh            3107.36478 eV
CPCM Dielectric    :           -0.00197849 Eh              -0.05384 eV

Virial components:
Potential Energy   :         -235.02631331 Eh           -6395.39112 eV
Kinetic Energy     :          116.85372381 Eh            3179.75148 eV
Virial Ratio       :            2.01128647


DFT components:
N(Alpha)           :       12.999966539849 electrons
N(Beta)            :       11.999969087547 electrons
N(Total)           :       24.999935627396 electrons
E(X)               :      -17.865291719538 Eh       
E(C)               :       -0.794715740258 Eh       
E(XC)              :      -18.660007459796 Eh       
DFET-embed. en.    :        0.000000000000 Eh       
CPCM Solvation Model Properties:
Surface-charge          :           -0.01991268
Charge-correction       :           -0.00000494 Eh              -0.00013 eV
Free-energy (cav+disp)  :            0.00316369 Eh               0.08609 eV
Corrected G(solv)       :         -118.16943075 Eh           -3215.55369 eV

---------------
SCF CONVERGENCE
---------------

  Last Energy change         ...    1.7693e-11  Tolerance :   1.0000e-08
  Last MAX-Density change    ...    4.2994e-06  Tolerance :   1.0000e-07
  Last RMS-Density change    ...    1.4303e-07  Tolerance :   5.0000e-09
  Last DIIS Error            ...    1.8648e-06  Tolerance :   5.0000e-07

             **** THE GBW FILE WAS UPDATED (m-mfaV_2-6_hl1d_fbond_scan_6_orca.gbw) ****
             **** DENSITY FILE WAS UPDATED (m-mfaV_2-6_hl1d_fbond_scan_6_orca.scfp) ****
             **** ENERGY FILE WAS UPDATED (m-mfaV_2-6_hl1d_fbond_scan_6_orca.en.tmp) ****
----------------------
UHF SPIN CONTAMINATION
----------------------

Warning: in a DFT calculation there is little theoretical justification to 
         calculate <S**2> as in Hartree-Fock theory. We will do it anyways
         but you should keep in mind that the values have only limited relevance

Expectation value of <S**2>     :     0.752754
Ideal value S*(S+1) for S=0.5   :     0.750000
Deviation                       :     0.002754

             **** THE GBW FILE WAS UPDATED (m-mfaV_2-6_hl1d_fbond_scan_6_orca.gbw) ****
             **** DENSITY FILE WAS UPDATED (m-mfaV_2-6_hl1d_fbond_scan_6_orca.scfp) ****
----------------
ORBITAL ENERGIES
----------------
                 SPIN UP ORBITALS
  NO   OCC          E(Eh)            E(eV) 
   0   1.0000      -9.892722      -269.1947 
   1   1.0000      -9.889291      -269.1013 
   2   1.0000      -9.889066      -269.0952 
   3   1.0000      -0.724746       -19.7213 
   4   1.0000      -0.609498       -16.5853 
   5   1.0000      -0.498791       -13.5728 
   6   1.0000      -0.415117       -11.2959 
   7   1.0000      -0.388855       -10.5813 
   8   1.0000      -0.363479        -9.8908 
   9   1.0000      -0.324808        -8.8385 
  10   1.0000      -0.296959        -8.0807 
  11   1.0000      -0.294526        -8.0145 
  12   1.0000      -0.124922        -3.3993 
  13   0.0000       0.048055         1.3076 
  14   0.0000       0.080805         2.1988 
  15   0.0000       0.086028         2.3409 
  16   0.0000       0.100683         2.7397 
  17   0.0000       0.119280         3.2458 
  18   0.0000       0.133393         3.6298 
  19   0.0000       0.137026         3.7287 
  20   0.0000       0.200099         5.4450 
  21   0.0000       0.253446         6.8966 
  22   0.0000       0.353735         9.6256 
  23   0.0000       0.374899        10.2015 
  24   0.0000       0.391267        10.6469 
  25   0.0000       0.436331        11.8732 
  26   0.0000       0.475685        12.9440 
  27   0.0000       0.487280        13.2596 
  28   0.0000       0.566006        15.4018 
  29   0.0000       0.581267        15.8171 
  30   0.0000       0.596690        16.2368 
  31   0.0000       0.612923        16.6785 
  32   0.0000       0.623814        16.9749 
  33   0.0000       0.628359        17.0985 
  34   0.0000       0.643442        17.5090 
  35   0.0000       0.652550        17.7568 
  36   0.0000       0.659112        17.9353 
  37   0.0000       0.698417        19.0049 
  38   0.0000       0.711335        19.3564 
  39   0.0000       0.780742        21.2451 
  40   0.0000       0.900505        24.5040 
  41   0.0000       1.129247        30.7284 
  42   0.0000       1.186726        32.2925 
  43   0.0000       1.229655        33.4606 
  44   0.0000       1.285900        34.9911 
  45   0.0000       1.445503        39.3341 
  46   0.0000       1.471387        40.0385 
  47   0.0000       1.499874        40.8137 
  48   0.0000       1.526625        41.5416 
  49   0.0000       1.618311        44.0365 
  50   0.0000       1.638473        44.5851 
  51   0.0000       1.690665        46.0053 
  52   0.0000       1.696066        46.1523 
  53   0.0000       1.719182        46.7813 
  54   0.0000       1.723981        46.9119 
  55   0.0000       1.772001        48.2186 
  56   0.0000       1.790938        48.7339 
  57   0.0000       1.865261        50.7563 
  58   0.0000       1.885331        51.3025 
  59   0.0000       1.991832        54.2005 
  60   0.0000       2.081604        56.6433 
  61   0.0000       2.096950        57.0609 
  62   0.0000       2.136571        58.1390 
  63   0.0000       2.169140        59.0253 
  64   0.0000       2.269977        61.7692 
  65   0.0000       2.312116        62.9159 
  66   0.0000       2.395687        65.1900 
  67   0.0000       2.429621        66.1133 
  68   0.0000       2.443513        66.4914 
  69   0.0000       2.552198        69.4488 
  70   0.0000       2.673733        72.7560 
  71   0.0000       2.741391        74.5970 
  72   0.0000       2.835198        77.1497 
  73   0.0000       2.884442        78.4896 
  74   0.0000       2.903592        79.0108 
  75   0.0000       2.938949        79.9729 
  76   0.0000       3.039633        82.7126 

                 SPIN DOWN ORBITALS
  NO   OCC          E(Eh)            E(eV) 
   0   1.0000      -9.891681      -269.1663 
   1   1.0000      -9.889147      -269.0974 
   2   1.0000      -9.876634      -268.7569 
   3   1.0000      -0.713596       -19.4179 
   4   1.0000      -0.601476       -16.3670 
   5   1.0000      -0.483387       -13.1536 
   6   1.0000      -0.407060       -11.0767 
   7   1.0000      -0.381033       -10.3684 
   8   1.0000      -0.359002        -9.7689 
   9   1.0000      -0.320850        -8.7308 
  10   1.0000      -0.292558        -7.9609 
  11   1.0000      -0.284787        -7.7494 
  12   0.0000      -0.052082        -1.4172 
  13   0.0000       0.051299         1.3959 
  14   0.0000       0.083134         2.2622 
  15   0.0000       0.091497         2.4898 
  16   0.0000       0.109421         2.9775 
  17   0.0000       0.121470         3.3054 
  18   0.0000       0.135610         3.6901 
  19   0.0000       0.140649         3.8273 
  20   0.0000       0.204755         5.5717 
  21   0.0000       0.262394         7.1401 
  22   0.0000       0.360723         9.8158 
  23   0.0000       0.377683        10.2773 
  24   0.0000       0.394810        10.7433 
  25   0.0000       0.456260        12.4155 
  26   0.0000       0.493604        13.4317 
  27   0.0000       0.525090        14.2884 
  28   0.0000       0.573756        15.6127 
  29   0.0000       0.588814        16.0224 
  30   0.0000       0.601891        16.3783 
  31   0.0000       0.618256        16.8236 
  32   0.0000       0.626980        17.0610 
  33   0.0000       0.638550        17.3758 
  34   0.0000       0.651751        17.7350 
  35   0.0000       0.656720        17.8702 
  36   0.0000       0.667760        18.1707 
  37   0.0000       0.707547        19.2533 
  38   0.0000       0.719110        19.5680 
  39   0.0000       0.788583        21.4584 
  40   0.0000       0.906640        24.6709 
  41   0.0000       1.137396        30.9501 
  42   0.0000       1.198028        32.6000 
  43   0.0000       1.249671        34.0053 
  44   0.0000       1.291447        35.1421 
  45   0.0000       1.449697        39.4483 
  46   0.0000       1.472191        40.0604 
  47   0.0000       1.506637        40.9977 
  48   0.0000       1.528753        41.5995 
  49   0.0000       1.621247        44.1164 
  50   0.0000       1.660625        45.1879 
  51   0.0000       1.693412        46.0801 
  52   0.0000       1.711576        46.5744 
  53   0.0000       1.722012        46.8583 
  54   0.0000       1.727352        47.0036 
  55   0.0000       1.775764        48.3210 
  56   0.0000       1.797144        48.9028 
  57   0.0000       1.868597        50.8471 
  58   0.0000       1.896858        51.6161 
  59   0.0000       2.010302        54.7031 
  60   0.0000       2.093807        56.9754 
  61   0.0000       2.128530        57.9202 
  62   0.0000       2.150433        58.5162 
  63   0.0000       2.197884        59.8075 
  64   0.0000       2.277610        61.9769 
  65   0.0000       2.321170        63.1622 
  66   0.0000       2.402831        65.3843 
  67   0.0000       2.442355        66.4599 
  68   0.0000       2.449513        66.6546 
  69   0.0000       2.559772        69.6549 
  70   0.0000       2.684110        73.0384 
  71   0.0000       2.749731        74.8240 
  72   0.0000       2.839203        77.2586 
  73   0.0000       2.886698        78.5511 
  74   0.0000       2.909186        79.1630 
  75   0.0000       2.946293        80.1727 
  76   0.0000       3.046268        82.8932 

                    ********************************
                    * MULLIKEN POPULATION ANALYSIS *
                    ********************************

--------------------------------------------
MULLIKEN ATOMIC CHARGES AND SPIN POPULATIONS
--------------------------------------------
   0 C :   -0.035074   -0.002999
   1 C :   -0.044734    0.038992
   2 C :   -0.211408    0.992347
   3 H :    0.030358    0.000077
   4 H :    0.037452   -0.000571
   5 H :    0.036607    0.015622
   6 H :    0.052248    0.036459
   7 H :    0.044495    0.007756
   8 H :    0.045283   -0.043863
   9 H :    0.044773   -0.043820
Sum of atomic charges         :   -0.0000000
Sum of atomic spin populations:    1.0000000

-----------------------------------------------------
MULLIKEN REDUCED ORBITAL CHARGES AND SPIN POPULATIONS
-----------------------------------------------------
CHARGE
  0 C s       :     3.019387  s :     3.019387
      pz      :     1.015789  p :     2.991128
      px      :     0.970600
      py      :     1.004740
      dz2     :     0.005128  d :     0.024559
      dxz     :     0.005710
      dyz     :     0.002841
      dx2y2   :     0.005976
      dxy     :     0.004904
  1 C s       :     3.028891  s :     3.028891
      pz      :     1.024000  p :     2.976297
      px      :     0.938492
      py      :     1.013805
      dz2     :     0.006983  d :     0.039546
      dxz     :     0.010145
      dyz     :     0.002970
      dx2y2   :     0.010721
      dxy     :     0.008726
  2 C s       :     3.210389  s :     3.210389
      pz      :     1.078139  p :     2.976307
      px      :     0.948231
      py      :     0.949938
      dz2     :     0.004050  d :     0.024712
      dxz     :     0.003478
      dyz     :     0.002997
      dx2y2   :     0.008040
      dxy     :     0.006147
  3 H s       :     0.946631  s :     0.946631
      pz      :     0.006246  p :     0.023010
      px      :     0.004375
      py      :     0.012389
  4 H s       :     0.939717  s :     0.939717
      pz      :     0.007559  p :     0.022831
      px      :     0.007890
      py      :     0.007383
  5 H s       :     0.940430  s :     0.940430
      pz      :     0.012512  p :     0.022963
      px      :     0.005197
      py      :     0.005253
  6 H s       :     0.913898  s :     0.913898
      pz      :     0.015341  p :     0.033854
      px      :     0.010180
      py      :     0.008334
  7 H s       :     0.933192  s :     0.933192
      pz      :     0.005824  p :     0.022313
      px      :     0.003687
      py      :     0.012802
  8 H s       :     0.931385  s :     0.931385
      pz      :     0.005762  p :     0.023333
      px      :     0.004209
      py      :     0.013362
  9 H s       :     0.931969  s :     0.931969
      pz      :     0.005819  p :     0.023258
      px      :     0.011686
      py      :     0.005753

SPIN
  0 C s       :    -0.003584  s :    -0.003584
      pz      :    -0.002598  p :    -0.000074
      px      :     0.000891
      py      :     0.001633
      dz2     :     0.000185  d :     0.000659
      dxz     :     0.000337
      dyz     :     0.000164
      dx2y2   :    -0.000016
      dxy     :    -0.000011
  1 C s       :     0.002051  s :     0.002051
      pz      :     0.059761  p :     0.031756
      px      :    -0.017170
      py      :    -0.010835
      dz2     :     0.004050  d :     0.005185
      dxz     :     0.000072
      dyz     :     0.000791
      dx2y2   :     0.000166
      dxy     :     0.000107
  2 C s       :     0.085751  s :     0.085751
      pz      :     0.831050  p :     0.908417
      px      :     0.038670
      py      :     0.038696
      dz2     :    -0.002037  d :    -0.001821
      dxz     :     0.000159
      dyz     :     0.000074
      dx2y2   :     0.000113
      dxy     :    -0.000129
  3 H s       :     0.000055  s :     0.000055
      pz      :     0.000000  p :     0.000023
      px      :     0.000023
      py      :    -0.000001
  4 H s       :    -0.000550  s :    -0.000550
      pz      :    -0.000010  p :    -0.000022
      px      :     0.000002
      py      :    -0.000014
  5 H s       :     0.015664  s :     0.015664
      pz      :    -0.000090  p :    -0.000042
      px      :     0.000004
      py      :     0.000043
  6 H s       :     0.030250  s :     0.030250
      pz      :    -0.000249  p :     0.006208
      px      :     0.004627
      py      :     0.001830
  7 H s       :     0.007426  s :     0.007426
      pz      :     0.000303  p :     0.000330
      px      :     0.000043
      py      :    -0.000015
  8 H s       :    -0.048661  s :    -0.048661
      pz      :     0.004574  p :     0.004799
      px      :    -0.000068
      py      :     0.000293
  9 H s       :    -0.048514  s :    -0.048514
      pz      :     0.004679  p :     0.004695
      px      :     0.000100
      py      :    -0.000085


                     *******************************
                     * LOEWDIN POPULATION ANALYSIS *
                     *******************************

-------------------------------------------
LOEWDIN ATOMIC CHARGES AND SPIN POPULATIONS
-------------------------------------------
   0 C :   -0.071442    0.007264
   1 C :   -0.072029    0.076225
   2 C :   -0.101883    0.829794
   3 H :    0.032916    0.001101
   4 H :    0.033719   -0.000535
   5 H :    0.031734    0.010010
   6 H :    0.066287    0.059998
   7 H :    0.039370    0.010975
   8 H :    0.019294    0.002811
   9 H :    0.022033    0.002356

----------------------------------------------------
LOEWDIN REDUCED ORBITAL CHARGES AND SPIN POPULATIONS
----------------------------------------------------
CHARGE
  0 C s       :     2.850425  s :     2.850425
      pz      :     1.069071  p :     3.153958
      px      :     1.021364
      py      :     1.063523
      dz2     :     0.015097  d :     0.067058
      dxz     :     0.014210
      dyz     :     0.007944
      dx2y2   :     0.016461
      dxy     :     0.013346
  1 C s       :     2.819692  s :     2.819692
      pz      :     1.072414  p :     3.151009
      px      :     1.019303
      py      :     1.059293
      dz2     :     0.018077  d :     0.101328
      dxz     :     0.023499
      dyz     :     0.007974
      dx2y2   :     0.028723
      dxy     :     0.023056
  2 C s       :     2.917500  s :     2.917500
      pz      :     1.039248  p :     3.119342
      px      :     1.037696
      py      :     1.042398
      dz2     :     0.008358  d :     0.065042
      dxz     :     0.007865
      dyz     :     0.006775
      dx2y2   :     0.023553
      dxy     :     0.018490
  3 H s       :     0.903073  s :     0.903073
      pz      :     0.015390  p :     0.064010
      px      :     0.011980
      py      :     0.036641
  4 H s       :     0.902404  s :     0.902404
      pz      :     0.019913  p :     0.063876
      px      :     0.023883
      py      :     0.020080
  5 H s       :     0.904033  s :     0.904033
      pz      :     0.037185  p :     0.064232
      px      :     0.014734
      py      :     0.012313
  6 H s       :     0.828427  s :     0.828427
      pz      :     0.048268  p :     0.105286
      px      :     0.033693
      py      :     0.023326
  7 H s       :     0.895606  s :     0.895606
      pz      :     0.016604  p :     0.065024
      px      :     0.010814
      py      :     0.037606
  8 H s       :     0.906426  s :     0.906426
      pz      :     0.022255  p :     0.074280
      px      :     0.010859
      py      :     0.041165
  9 H s       :     0.903671  s :     0.903671
      pz      :     0.022019  p :     0.074296
      px      :     0.035685
      py      :     0.016592

SPIN
  0 C s       :     0.002204  s :     0.002204
      pz      :    -0.001025  p :     0.003008
      px      :     0.002564
      py      :     0.001469
      dz2     :     0.000566  d :     0.002052
      dxz     :     0.001070
      dyz     :     0.000445
      dx2y2   :    -0.000003
      dxy     :    -0.000024
  1 C s       :     0.001707  s :     0.001707
      pz      :     0.068656  p :     0.061423
      px      :    -0.004277
      py      :    -0.002956
      dz2     :     0.009122  d :     0.013096
      dxz     :     0.000723
      dyz     :     0.002003
      dx2y2   :     0.000533
      dxy     :     0.000715
  2 C s       :     0.030058  s :     0.030058
      pz      :     0.755080  p :     0.800274
      px      :     0.027448
      py      :     0.017746
      dz2     :    -0.000767  d :    -0.000538
      dxz     :     0.000844
      dyz     :     0.000706
      dx2y2   :    -0.000597
      dxy     :    -0.000725
  3 H s       :     0.001051  s :     0.001051
      pz      :    -0.000007  p :     0.000049
      px      :     0.000068
      py      :    -0.000012
  4 H s       :    -0.000543  s :    -0.000543
      pz      :    -0.000023  p :     0.000008
      px      :     0.000043
      py      :    -0.000012
  5 H s       :     0.009289  s :     0.009289
      pz      :     0.000160  p :     0.000722
      px      :     0.000348
      py      :     0.000214
  6 H s       :     0.037606  s :     0.037606
      pz      :     0.001626  p :     0.022393
      px      :     0.014270
      py      :     0.006496
  7 H s       :     0.008501  s :     0.008501
      pz      :     0.002469  p :     0.002474
      px      :     0.000034
      py      :    -0.000028
  8 H s       :    -0.020227  s :    -0.020227
      pz      :     0.019690  p :     0.023038
      px      :     0.000487
      py      :     0.002860
  9 H s       :    -0.020475  s :    -0.020475
      pz      :     0.019827  p :     0.022830
      px      :     0.002188
      py      :     0.000815


                      *****************************
                      * MAYER POPULATION ANALYSIS *
                      *****************************

  NA   - Mulliken gross atomic population
  ZA   - Total nuclear charge
  QA   - Mulliken gross atomic charge
  VA   - Mayer's total valence
  BVA  - Mayer's bonded valence
  FA   - Mayer's free valence

  ATOM       NA         ZA         QA         VA         BVA        FA
  0 C      6.0351     6.0000    -0.0351     3.9952     3.9951     0.0001
  1 C      6.0447     6.0000    -0.0447     4.0668     4.0563     0.0105
  2 C      6.2114     6.0000    -0.2114     3.8643     3.1323     0.7320
  3 H      0.9696     1.0000     0.0304     0.9906     0.9906     0.0000
  4 H      0.9625     1.0000     0.0375     0.9856     0.9856     0.0000
  5 H      0.9634     1.0000     0.0366     0.9856     0.9853     0.0003
  6 H      0.9478     1.0000     0.0522     0.9964     0.9940     0.0024
  7 H      0.9555     1.0000     0.0445     0.9763     0.9762     0.0001
  8 H      0.9547     1.0000     0.0453     0.9872     0.9847     0.0025
  9 H      0.9552     1.0000     0.0448     0.9815     0.9790     0.0025

  Mayer bond orders larger than 0.100000
B(  0-C ,  1-C ) :   1.1080 B(  0-C ,  3-H ) :   0.9610 B(  0-C ,  4-H ) :   0.9625 
B(  0-C ,  5-H ) :   0.9642 B(  1-C ,  2-C ) :   1.0902 B(  1-C ,  6-H ) :   0.8744 
B(  1-C ,  7-H ) :   0.9379 B(  2-C ,  6-H ) :   0.1043 B(  2-C ,  8-H ) :   0.9609 
B(  2-C ,  9-H ) :   0.9603 


------------------
HIRSHFELD ANALYSIS
------------------

Total integrated alpha density =     13.000594673
Total integrated beta density  =     11.999366259

  ATOM     CHARGE      SPIN    
   0 C   -0.068578    0.016062
   1 C   -0.048842    0.119483
   2 C   -0.095812    0.678145
   3 H    0.030968    0.001437
   4 H    0.030522    0.000471
   5 H    0.026628    0.010272
   6 H    0.046497    0.066235
   7 H    0.038257    0.015618
   8 H    0.017897    0.047702
   9 H    0.022503    0.045804

  TOTAL   0.000039    1.001228

-------
TIMINGS
-------

Total SCF time: 0 days 0 hours 0 min 4 sec 

Total time                  ....       4.286 sec
Sum of individual times     ....       4.178 sec  ( 97.5%)

Fock matrix formation       ....       3.791 sec  ( 88.4%)
  Split-RI-J                ....       1.017 sec  ( 26.8% of F)
  XC integration            ....       0.445 sec  ( 11.7% of F)
    Basis function eval.    ....       0.078 sec  ( 17.4% of XC)
    Density eval.           ....       0.052 sec  ( 11.7% of XC)
    XC-Functional eval.     ....       0.025 sec  (  5.6% of XC)
    XC-Potential eval.      ....       0.092 sec  ( 20.7% of XC)
Diagonalization             ....       0.014 sec  (  0.3%)
Density matrix formation    ....       0.001 sec  (  0.0%)
Population analysis         ....       0.027 sec  (  0.6%)
Initial guess               ....       0.105 sec  (  2.5%)
Orbital Transformation      ....       0.000 sec  (  0.0%)
Orbital Orthonormalization  ....       0.000 sec  (  0.0%)
DIIS solution               ....       0.006 sec  (  0.1%)
Grid generation             ....       0.235 sec  (  5.5%)


-------------------------------------------------------------------------------
                          DFT DISPERSION CORRECTION                            
                                                                               
                              DFTD3 V3.1  Rev 1                                
                          USING Becke-Johnson damping                          
-------------------------------------------------------------------------------
The PBE functional is recognized
Active option DFTDOPT                   ...         4   

molecular C6(AA) [au] = 667.089489 


            DFT-D V3
 parameters
 s6 scaling factor         :     1.0000 
 a1 scaling factor         :     0.4289 
 s8 scaling factor         :     0.7875 
 a2 scaling factor         :     4.4407 
 ad hoc parameters k1-k3   :    16.0000     1.3333    -4.0000 

 Edisp/kcal,au: -3.391576421919  -0.005404820485 
 E6   /kcal   :  -2.466169071 
 E8   /kcal   :  -0.925407351 
 % E8         :  27.285463614 

-------------------------   ----------------
Dispersion correction           -0.005404820
-------------------------   ----------------


-------------------------   --------------------
FINAL SINGLE POINT ENERGY      -118.177994320190
-------------------------   --------------------

[1589382312.632960] [ty2019:10559:0]            sys.c:618  UCX  ERROR shmget(size=2097152 flags=0xfb0) for mm_recv_desc failed: Operation not permitted, please check shared memory limits by 'ipcs -l'
[1589382312.635356] [ty2019:10561:0]            sys.c:618  UCX  ERROR shmget(size=2097152 flags=0xfb0) for mm_recv_desc failed: Operation not permitted, please check shared memory limits by 'ipcs -l'
[1589382312.642334] [ty2019:10562:0]            sys.c:618  UCX  ERROR shmget(size=2097152 flags=0xfb0) for mm_recv_desc failed: Operation not permitted, please check shared memory limits by 'ipcs -l'
[1589382312.650172] [ty2019:10560:0]            sys.c:618  UCX  ERROR shmget(size=2097152 flags=0xfb0) for mm_recv_desc failed: Operation not permitted, please check shared memory limits by 'ipcs -l'
[1589382312.657174] [ty2019:10559:0]            sys.c:618  UCX  ERROR shmget(size=2097152 flags=0xb80) for ucp_am_bufs failed: Operation not permitted, please check shared memory limits by 'ipcs -l'
[1589382312.657813] [ty2019:10560:0]            sys.c:618  UCX  ERROR shmget(size=2097152 flags=0xb80) for ucp_am_bufs failed: Operation not permitted, please check shared memory limits by 'ipcs -l'


           ************************************************************
           *        Program running with 4 parallel MPI-processes     *
           *              working on a common directory               *
           ************************************************************
[1589382312.663471] [ty2019:10561:0]            sys.c:618  UCX  ERROR shmget(size=2097152 flags=0xb80) for ucp_am_bufs failed: Operation not permitted, please check shared memory limits by 'ipcs -l'
------------------------------------------------------------------------------
                         ORCA SCF GRADIENT CALCULATION
------------------------------------------------------------------------------

Gradient of the Kohn-Sham DFT energy:
Kohn-Sham wavefunction type      ... UKS
Hartree-Fock exchange scaling    ...    0.000
Number of operators              ...    2
Number of atoms                  ...   10
Basis set dimensions             ...   77
Integral neglect threshold       ... 2.5e-11
Integral primitive cutoff        ... 2.5e-12

[1589382312.856622] [ty2019:10562:0]            sys.c:618  UCX  ERROR shmget(size=2097152 flags=0xb80) for ucp_am_bufs failed: Operation not permitted, please check shared memory limits by 'ipcs -l'
Nuclear repulsion gradient       ... done
One Electron Gradient            ... done
Pre-screening matrix             ... done
RI-J gradient                    ... done
Exchange-correlation gradient    ... done
Dispersion correction            ... done

------------------
CARTESIAN GRADIENT
------------------

   1   C   :   -0.001523419   -0.001405009   -0.001352366
   2   C   :    0.028468247    0.019686412    0.009631804
   3   C   :   -0.040368438   -0.037067322    0.052062726
   4   H   :    0.000102044   -0.000158333   -0.000026558
   5   H   :   -0.000097042   -0.000059123    0.000194893
   6   H   :   -0.000161112   -0.000118098    0.000149265
   7   H   :    0.014275397    0.019004972   -0.059173754
   8   H   :   -0.000317282    0.000459659   -0.000882493
   9   H   :   -0.000510395   -0.000064674   -0.000428872
  10   H   :    0.000132000   -0.000278485   -0.000174644

Difference to translation invariance:
           :    0.0000000000   -0.0000000000    0.0000000000

Norm of the cartesian gradient     ...    0.1052584396
RMS gradient                       ...    0.0192174739
MAX gradient                       ...    0.0591737541

-------
TIMINGS
-------

Total SCF gradient time            ...        0.839 sec

One electron gradient       ....       0.007 sec  (  0.9%)
Prescreening matrices       ....       0.009 sec  (  1.1%)
RI-J Coulomb gradient       ....       0.091 sec  ( 10.8%)
XC gradient                 ....       0.288 sec  ( 34.3%)
CPCM gradient               ....       0.114 sec  ( 13.6%)
   A-Matrix (El+Nuc)        ....       0.024 sec  (  2.9%)
   Potential                ....       0.090 sec  ( 10.7%)
------------------------------------------------------------------------------
                         ORCA GEOMETRY RELAXATION STEP
------------------------------------------------------------------------------

Reading the OPT-File                    .... done
Getting information on internals        .... done
Copying old internal coords+grads       .... done
Making the new internal coordinates     .... (new redundants).... done
Validating the new internal coordinates .... (new redundants).... done
Calculating the B-matrix                .... done
Calculating the G,G- and P matrices     .... done
Transforming gradient to internals      .... done
Projecting the internal gradient        .... done
Number of atoms                         ....  10
Number of internal coordinates          ....  40
Current Energy                          ....  -118.177994320 Eh
Current gradient norm                   ....     0.105258440 Eh/bohr
Maximum allowed component of the step   ....  0.300
Current trust radius                    ....  0.300
Evaluating the initial hessian          ....  (Almloef) done
Projecting the Hessian                  .... done
Forming the augmented Hessian           .... done
Diagonalizing the augmented Hessian     .... done
Last element of RFO vector              ....  0.996606393
Lowest eigenvalues of augmented Hessian:
 -0.001675567  0.012071017  0.023792937  0.031201268  0.061182121
Length of the computed step             ....  0.082594917
The final length of the internal step   ....  0.082594917
Converting the step to cartesian space:
 Initial RMS(Int)=    0.0130594030
Transforming coordinates:
 Iter   0:  RMS(Cart)=    0.0123947879 RMS(Int)=    0.0130057341
 Iter   1:  RMS(Cart)=    0.0001091551 RMS(Int)=    0.0001337458
 Iter   2:  RMS(Cart)=    0.0000018925 RMS(Int)=    0.0000017501
 Iter   3:  RMS(Cart)=    0.0000000229 RMS(Int)=    0.0000000179
Imposing constraints:
 Iter   0:  RMS(Cart)=    0.0000472235 RMS(Int)=    0.0001181684
 Iter   1:  RMS(Cart)=    0.0000152251 RMS(Int)=    0.0000380979
 Iter   2:  RMS(Cart)=    0.0000049086 RMS(Int)=    0.0000122829
 Iter   3:  RMS(Cart)=    0.0000015826 RMS(Int)=    0.0000039601
 Iter   4:  RMS(Cart)=    0.0000005102 RMS(Int)=    0.0000012767
 Iter   5:  RMS(Cart)=    0.0000001645 RMS(Int)=    0.0000004116
 Iter   6:  RMS(Cart)=    0.0000000530 RMS(Int)=    0.0000001327
 Iter   7:  RMS(Cart)=    0.0000000171 RMS(Int)=    0.0000000428
CONVERGED
done
Storing new coordinates                 .... done

                                .--------------------.
          ----------------------|Geometry convergence|-------------------------
          Item                value                   Tolerance       Converged
          ---------------------------------------------------------------------
          RMS gradient        0.0036807558            0.0005000000      NO
          MAX gradient        0.0153433861            0.0020000000      NO
          RMS step            0.0130594030            0.0070000000      NO
          MAX step            0.0390696592            0.0100000000      NO
          ........................................................
          Max(Bonds)      0.0207      Max(Angles)    1.48
          Max(Dihed)        1.17      Max(Improp)    0.00
          ---------------------------------------------------------------------

The optimization has not yet converged - more geometry cycles are needed


    ---------------------------------------------------------------------------
                         Redundant Internal Coordinates
                            (Angstroem and degrees)

        Definition                    Value    dE/dq     Step     New-Value
    ----------------------------------------------------------------------------
     1. B(C   1,C   0)                1.5185  0.000956 -0.0013    1.5173   
     2. B(C   2,C   1)                1.4265 -0.031823  0.0207    1.4471   
     3. B(H   3,C   0)                1.1093 -0.000155  0.0002    1.1095   
     4. B(H   4,C   0)                1.1082  0.000192 -0.0003    1.1079   
     5. B(H   5,C   0)                1.1109 -0.000092  0.0001    1.1110   
     6. B(H   6,C   1)                1.0731 -0.020024  0.0184    1.0915   
     7. B(H   6,C   2)                1.5872 -0.046143  0.0000    1.5872 C 
     8. B(H   7,C   1)                1.1077 -0.000207  0.0003    1.1081   
     9. B(H   8,C   2)                1.1038 -0.000111  0.0002    1.1039   
    10. B(H   9,C   2)                1.1016  0.000253 -0.0004    1.1012   
    11. A(H   4,C   0,H   5)          107.89 -0.000096    0.01    107.90   
    12. A(C   1,C   0,H   4)          111.62 -0.000055    0.02    111.64   
    13. A(C   1,C   0,H   3)          111.24 -0.000199    0.04    111.28   
    14. A(H   3,C   0,H   5)          107.39  0.000030   -0.03    107.37   
    15. A(C   1,C   0,H   5)          110.59  0.000276   -0.06    110.52   
    16. A(H   3,C   0,H   4)          107.93  0.000045    0.02    107.95   
    17. A(C   0,C   1,C   2)          120.82  0.006036   -0.29    120.53   
    18. A(C   0,C   1,H   6)          116.82  0.004340   -0.16    116.66   
    19. A(C   2,C   1,H   6)           77.42 -0.007091   -1.48     75.93   
    20. A(C   0,C   1,H   7)          113.29 -0.002906    0.62    113.91   
    21. A(C   2,C   1,H   7)          114.02 -0.001793    0.49    114.51   
    22. A(H   6,C   1,H   7)          109.32  0.000735    0.19    109.51   
    23. A(C   1,C   2,H   8)          119.46 -0.000327   -0.00    119.46   
    24. A(C   1,C   2,H   9)          119.92  0.000047   -0.06    119.86   
    25. A(H   8,C   2,H   9)          116.86  0.000376   -0.15    116.72   
    26. D(H   7,C   1,C   0,H   4)     55.10  0.000548   -0.40     54.69   
    27. D(C   2,C   1,C   0,H   4)   -164.30  0.001502    0.99   -163.30   
    28. D(C   2,C   1,C   0,H   3)    -43.67  0.001383    1.05    -42.61   
    29. D(H   7,C   1,C   0,H   3)    175.73  0.000430   -0.34    175.39   
    30. D(H   6,C   1,C   0,H   3)     47.32 -0.001907   -1.08     46.24   
    31. D(H   6,C   1,C   0,H   5)    166.57 -0.001817   -1.13    165.44   
    32. D(H   7,C   1,C   0,H   5)    -65.03  0.000520   -0.39    -65.42   
    33. D(H   6,C   1,C   0,H   4)    -73.31 -0.001789   -1.14    -74.45   
    34. D(C   2,C   1,C   0,H   5)     75.58  0.001473    1.01     76.59   
    35. D(H   9,C   2,C   1,H   7)    -29.83  0.000886    0.54    -29.28   
    36. D(H   8,C   2,C   1,H   6)    -81.56 -0.001307    0.73    -80.83   
    37. D(H   8,C   2,C   1,H   7)    172.68  0.000530    1.17    173.85   
    38. D(H   9,C   2,C   1,C   0)   -170.17  0.000299   -0.91   -171.08   
    39. D(H   8,C   2,C   1,C   0)     32.34 -0.000057   -0.28     32.06   
    40. D(H   9,C   2,C   1,H   6)     75.94 -0.000951    0.10     76.04   
    ----------------------------------------------------------------------------

         *************************************************************
         *                GEOMETRY OPTIMIZATION CYCLE   2            *
         *************************************************************
---------------------------------
CARTESIAN COORDINATES (ANGSTROEM)
---------------------------------
  C     -1.230644    0.101236   -0.003484
  C      0.164408   -0.488953    0.083520
  C      1.319817    0.297355   -0.292764
  H     -1.251399    1.143483    0.376370
  H     -1.961804   -0.490225    0.582147
  H     -1.578099    0.125828   -1.058475
  H      0.701013   -0.340328    1.022448
  H      0.219630   -1.556200   -0.209321
  H      1.308556    1.389652   -0.133190
  H      2.308422   -0.181947   -0.367250

----------------------------
CARTESIAN COORDINATES (A.U.)
----------------------------
  NO LB      ZA    FRAG     MASS         X           Y           Z
   0 C     6.0000    0    12.011   -2.325581    0.191309   -0.006585
   1 C     6.0000    0    12.011    0.310687   -0.923987    0.157831
   2 C     6.0000    0    12.011    2.494093    0.561920   -0.553243
   3 H     1.0000    0     1.008   -2.364801    2.160869    0.711235
   4 H     1.0000    0     1.008   -3.707272   -0.926391    1.100098
   5 H     1.0000    0     1.008   -2.982175    0.237780   -2.000228
   6 H     1.0000    0     1.008    1.324722   -0.643127    1.932147
   7 H     1.0000    0     1.008    0.415041   -2.940793   -0.395560
   8 H     1.0000    0     1.008    2.472812    2.626062   -0.251693
   9 H     1.0000    0     1.008    4.362286   -0.343831   -0.694002

--------------------------------
INTERNAL COORDINATES (ANGSTROEM)
--------------------------------
 C      0   0   0     0.000000000000     0.00000000     0.00000000
 C      1   0   0     1.517255654955     0.00000000     0.00000000
 C      2   1   0     1.447356400100   120.51477340     0.00000000
 H      1   2   3     1.109503308835   111.28284044   317.37932717
 H      1   2   3     1.107874310968   111.64356436   196.68872868
 H      1   2   3     1.111006023526   110.52479219    76.57871227
 H      2   1   3     1.091613032581   116.63722975    88.87517283
 H      2   1   3     1.108071740737   113.91124457   218.00407368
 H      3   2   1     1.103948607788   119.45992305    32.06227217
 H      3   2   1     1.101189806596   119.85417331   188.92681559

---------------------------
INTERNAL COORDINATES (A.U.)
---------------------------
 C      0   0   0     0.000000000000     0.00000000     0.00000000
 C      1   0   0     2.867197663009     0.00000000     0.00000000
 C      2   1   0     2.735107214367   120.51477340     0.00000000
 H      1   2   3     2.096657398378   111.28284044   317.37932717
 H      1   2   3     2.093579038536   111.64356436   196.68872868
 H      1   2   3     2.099497117602   110.52479219    76.57871227
 H      2   1   3     2.062849675797   116.63722975    88.87517283
 H      2   1   3     2.093952126730   113.91124457   218.00407368
 H      3   2   1     2.086160534643   119.45992305    32.06227217
 H      3   2   1     2.080947155933   119.85417331   188.92681559

[1589382314.421578] [ty2019:10584:0]            sys.c:618  UCX  ERROR shmget(size=2097152 flags=0xfb0) for mm_recv_desc failed: Operation not permitted, please check shared memory limits by 'ipcs -l'
[1589382314.421883] [ty2019:10585:0]            sys.c:618  UCX  ERROR shmget(size=2097152 flags=0xfb0) for mm_recv_desc failed: Operation not permitted, please check shared memory limits by 'ipcs -l'
[1589382314.426506] [ty2019:10586:0]            sys.c:618  UCX  ERROR shmget(size=2097152 flags=0xfb0) for mm_recv_desc failed: Operation not permitted, please check shared memory limits by 'ipcs -l'
[1589382314.435296] [ty2019:10583:0]            sys.c:618  UCX  ERROR shmget(size=2097152 flags=0xfb0) for mm_recv_desc failed: Operation not permitted, please check shared memory limits by 'ipcs -l'
[1589382314.441444] [ty2019:10584:0]            sys.c:618  UCX  ERROR shmget(size=2097152 flags=0xb80) for ucp_am_bufs failed: Operation not permitted, please check shared memory limits by 'ipcs -l'
[1589382314.441826] [ty2019:10585:0]            sys.c:618  UCX  ERROR shmget(size=2097152 flags=0xb80) for ucp_am_bufs failed: Operation not permitted, please check shared memory limits by 'ipcs -l'
[1589382314.441443] [ty2019:10583:0]            sys.c:618  UCX  ERROR shmget(size=2097152 flags=0xb80) for ucp_am_bufs failed: Operation not permitted, please check shared memory limits by 'ipcs -l'


           ************************************************************
           *        Program running with 4 parallel MPI-processes     *
           *              working on a common directory               *
           ************************************************************
 One Electron integrals                  [1589382314.477602] [ty2019:10586:0]            sys.c:618  UCX  ERROR shmget(size=2097152 flags=0xb80) for ucp_am_bufs failed: Operation not permitted, please check shared memory limits by 'ipcs -l'
... done
 Pre-screening matrix                    ... done
[1589382315.468579] [ty2019:10606:0]            sys.c:618  UCX  ERROR shmget(size=2097152 flags=0xfb0) for mm_recv_desc failed: Operation not permitted, please check shared memory limits by 'ipcs -l'
[1589382315.468921] [ty2019:10605:0]            sys.c:618  UCX  ERROR shmget(size=2097152 flags=0xfb0) for mm_recv_desc failed: Operation not permitted, please check shared memory limits by 'ipcs -l'
[1589382315.469250] [ty2019:10608:0]            sys.c:618  UCX  ERROR shmget(size=2097152 flags=0xfb0) for mm_recv_desc failed: Operation not permitted, please check shared memory limits by 'ipcs -l'
[1589382315.472474] [ty2019:10607:0]            sys.c:618  UCX  ERROR shmget(size=2097152 flags=0xfb0) for mm_recv_desc failed: Operation not permitted, please check shared memory limits by 'ipcs -l'
[1589382315.478795] [ty2019:10607:0]            sys.c:618  UCX  ERROR shmget(size=2097152 flags=0xb80) for ucp_am_bufs failed: Operation not permitted, please check shared memory limits by 'ipcs -l'
[1589382315.478823] [ty2019:10605:0]            sys.c:618  UCX  ERROR shmget(size=2097152 flags=0xb80) for ucp_am_bufs failed: Operation not permitted, please check shared memory limits by 'ipcs -l'


           ************************************************************
           *        Program running with 4 parallel MPI-processes     *
           *              working on a common directory               *
           ************************************************************
[1589382315.481293] [ty2019:10606:0]            sys.c:618  UCX  ERROR shmget(size=2097152 flags=0xb80) for ucp_am_bufs failed: Operation not permitted, please check shared memory limits by 'ipcs -l'
[1589382315.481669] [ty2019:10608:0]            sys.c:618  UCX  ERROR shmget(size=2097152 flags=0xb80) for ucp_am_bufs failed: Operation not permitted, please check shared memory limits by 'ipcs -l'

Diagonalization of the overlap matrix:
Smallest eigenvalue                        ... 3.086e-03
Time for diagonalization                   ...    0.002 sec
Threshold for overlap eigenvalues          ... 1.000e-08
Number of eigenvalues below threshold      ... 0
Time for construction of square roots      ...    0.001 sec
Total time needed                          ...    0.002 sec

-------------------
DFT GRID GENERATION
-------------------

General Integration Accuracy     IntAcc      ...  4.340
Radial Grid Type                 RadialGrid  ... Gauss-Chebyshev
Angular Grid (max. acc.)         AngularGrid ... Lebedev-110
Angular grid pruning method      GridPruning ... 3 (G Style)
Weight generation scheme         WeightScheme... Becke
Basis function cutoff            BFCut       ...    1.0000e-11
Integration weight cutoff        WCut        ...    1.0000e-14
Grids for H and He will be reduced by one unit

# of grid points (after initial pruning)     ...  10526 (   0.0 sec)
# of grid points (after weights+screening)   ...  10035 (   0.0 sec)
nearest neighbour list constructed           ...    0.0 sec
Grid point re-assignment to atoms done       ...    0.0 sec
Grid point division into batches done        ...    0.0 sec
Reduced shell lists constructed in    0.0 sec

Total number of grid points                  ...    10035
Total number of batches                      ...      163
Average number of points per batch           ...       61
Average number of grid points per atom       ...     1004
Average number of shells per batch           ...    35.74 (91.64%)
Average number of basis functions per batch  ...    70.45 (91.50%)
Average number of large shells per batch     ...    33.19 (92.87%)
Average number of large basis fcns per batch ...    65.19 (92.53%)
Maximum spatial batch extension              ...  16.45, 15.08, 18.74 au
Average spatial batch extension              ...   0.66,  0.63,  0.71 au

Time for grid setup =    0.024 sec


--------------------
CPCM SOLVATION MODEL
--------------------
CPCM parameters:
  Epsilon                                         ...      80.4000
  Refrac                                          ...       1.3300
  Rsolv                                           ...       1.3000
  Surface type                                    ... GAUSSIAN VDW
  Epsilon function type                           ...         CPCM
Radii:
 Radius for C  used is    3.8550 Bohr (=   2.0400 Ang.)
 Radius for H  used is    2.4944 Bohr (=   1.3200 Ang.)
Calculating surface                               ...        done! (  0.0s)
GEPOL surface points                              ...          604
GEPOL Volume                                      ...     535.0745
GEPOL Surface-area                                ...     351.8400
Calculating surface distance matrix               ...        done! (  0.0s)
Performing Cholesky decomposition & store         ...        done! (  0.0s)
Overall time for CPCM initialization              ...                 0.0s
--------------
SCF ITERATIONS
--------------
ITER       Energy         Delta-E        Max-DP      RMS-DP      [F,P]     Damp
               ***  Starting incremental Fock matrix formation  ***
  0   -118.1735321987   0.000000000000 0.00170401  0.00006997  0.0062003 0.7000
  1   -118.1736086019  -0.000076403202 0.00140154  0.00006157  0.0041014 0.7000
                               ***Turning on DIIS***
  2   -118.1736630351  -0.000054433171 0.00344879  0.00015500  0.0024899 0.0000
  3   -118.1737862150  -0.000123179951 0.00146819  0.00004823  0.0007902 0.0000
  4   -118.1737880620  -0.000001846973 0.00052196  0.00001843  0.0008009 0.0000
  5   -118.1737897891  -0.000001727070 0.00019052  0.00000611  0.0002687 0.0000
  6   -118.1737900048  -0.000000215680 0.00005769  0.00000181  0.0000446 0.0000
[...]
  39   0.0000       0.784282        21.3414 
  40   0.0000       0.908259        24.7150 
  41   0.0000       1.125904        30.6374 
  42   0.0000       1.198698        32.6182 
  43   0.0000       1.254817        34.1453 
  44   0.0000       1.292946        35.1828 
  45   0.0000       1.442956        39.2648 
  46   0.0000       1.470994        40.0278 
  47   0.0000       1.500150        40.8212 
  48   0.0000       1.525591        41.5134 
  49   0.0000       1.627106        44.2758 
  50   0.0000       1.641164        44.6583 
  51   0.0000       1.683144        45.8007 
  52   0.0000       1.710396        46.5422 
  53   0.0000       1.720614        46.8203 
  54   0.0000       1.723394        46.8959 
  55   0.0000       1.763736        47.9937 
  56   0.0000       1.790662        48.7264 
  57   0.0000       1.862606        50.6841 
  58   0.0000       1.898565        51.6626 
  59   0.0000       2.009877        54.6915 
  60   0.0000       2.072415        56.3933 
  61   0.0000       2.122630        57.7597 
  62   0.0000       2.147460        58.4354 
  63   0.0000       2.195265        59.7362 
  64   0.0000       2.262947        61.5779 
  65   0.0000       2.315167        62.9989 
  66   0.0000       2.394391        65.1547 
  67   0.0000       2.418414        65.8084 
  68   0.0000       2.441865        66.4465 
  69   0.0000       2.540629        69.1340 
  70   0.0000       2.685541        73.0773 
  71   0.0000       2.743525        74.6551 
  72   0.0000       2.827740        76.9467 
  73   0.0000       2.878916        78.3393 
  74   0.0000       2.888171        78.5911 
  75   0.0000       2.925717        79.6128 
  76   0.0000       3.018108        82.1269 

                    ********************************
                    * MULLIKEN POPULATION ANALYSIS *
                    ********************************

--------------------------------------------
MULLIKEN ATOMIC CHARGES AND SPIN POPULATIONS
--------------------------------------------
   0 C :   -0.032304   -0.005159
   1 C :   -0.073243    0.061584
   2 C :   -0.207335    0.980543
   3 H :    0.031535    0.000248
   4 H :    0.038177   -0.000597
   5 H :    0.037064    0.016744
   6 H :    0.060840    0.027555
   7 H :    0.049630    0.003830
   8 H :    0.049186   -0.042236
   9 H :    0.046451   -0.042514
Sum of atomic charges         :   -0.0000000
Sum of atomic spin populations:    1.0000000

-----------------------------------------------------
MULLIKEN REDUCED ORBITAL CHARGES AND SPIN POPULATIONS
-----------------------------------------------------
CHARGE
  0 C s       :     3.017760  s :     3.017760
      pz      :     1.016714  p :     2.989874
      px      :     0.969196
      py      :     1.003964
      dz2     :     0.005079  d :     0.024670
      dxz     :     0.005924
      dyz     :     0.002832
      dx2y2   :     0.005932
      dxy     :     0.004903
  1 C s       :     3.066453  s :     3.066453
      pz      :     1.027532  p :     2.969312
      px      :     0.936164
      py      :     1.005615
      dz2     :     0.006247  d :     0.037479
      dxz     :     0.009593
      dyz     :     0.002861
      dx2y2   :     0.010206
      dxy     :     0.008571
  2 C s       :     3.219607  s :     3.219607
      pz      :     1.074038  p :     2.963971
      px      :     0.942673
      py      :     0.947260
      dz2     :     0.003975  d :     0.023758
      dxz     :     0.003302
      dyz     :     0.003222
      dx2y2   :     0.007495
      dxy     :     0.005764
  3 H s       :     0.945439  s :     0.945439
      pz      :     0.006254  p :     0.023027
      px      :     0.004366
      py      :     0.012407
  4 H s       :     0.938982  s :     0.938982
      pz      :     0.007584  p :     0.022841
      px      :     0.008012
      py      :     0.007245
  5 H s       :     0.939979  s :     0.939979
      pz      :     0.012460  p :     0.022957
      px      :     0.005255
      py      :     0.005242
  6 H s       :     0.905839  s :     0.905839
      pz      :     0.015259  p :     0.033320
      px      :     0.010007
      py      :     0.008054
  7 H s       :     0.928197  s :     0.928197
      pz      :     0.005748  p :     0.022173
      px      :     0.003512
      py      :     0.012913
  8 H s       :     0.927537  s :     0.927537
      pz      :     0.005842  p :     0.023278
      px      :     0.004190
      py      :     0.013245
  9 H s       :     0.930357  s :     0.930357
      pz      :     0.005784  p :     0.023192
      px      :     0.011672
      py      :     0.005735

SPIN
  0 C s       :    -0.004146  s :    -0.004146
      pz      :    -0.002907  p :    -0.001771
      px      :    -0.000005
      py      :     0.001141
      dz2     :     0.000189  d :     0.000759
      dxz     :     0.000415
      dyz     :     0.000182
      dx2y2   :    -0.000020
      dxy     :    -0.000007
  1 C s       :     0.006697  s :     0.006697
      pz      :     0.075918  p :     0.050673
      px      :    -0.015705
      py      :    -0.009541
      dz2     :     0.003468  d :     0.004215
      dxz     :    -0.000027
      dyz     :     0.000567
      dx2y2   :     0.000165
      dxy     :     0.000041
  2 C s       :     0.082820  s :     0.082820
      pz      :     0.821897  p :     0.899533
      px      :     0.036404
      py      :     0.041232
      dz2     :    -0.002003  d :    -0.001811
      dxz     :     0.000193
      dyz     :     0.000021
      dx2y2   :     0.000127
      dxy     :    -0.000148
  3 H s       :     0.000234  s :     0.000234
      pz      :     0.000000  p :     0.000013
      px      :     0.000014
      py      :    -0.000001
  4 H s       :    -0.000571  s :    -0.000571
      pz      :    -0.000010  p :    -0.000026
      px      :    -0.000001
      py      :    -0.000015
  5 H s       :     0.016791  s :     0.016791
      pz      :    -0.000096  p :    -0.000047
      px      :     0.000003
      py      :     0.000046
  6 H s       :     0.021078  s :     0.021078
      pz      :    -0.000149  p :     0.006477
      px      :     0.004630
      py      :     0.001995
  7 H s       :     0.003362  s :     0.003362
      pz      :     0.000432  p :     0.000469
      px      :     0.000022
      py      :     0.000015
  8 H s       :    -0.046850  s :    -0.046850
      pz      :     0.004330  p :     0.004614
      px      :    -0.000074
      py      :     0.000358
  9 H s       :    -0.047081  s :    -0.047081
      pz      :     0.004568  p :     0.004567
      px      :     0.000091
      py      :    -0.000092


                     *******************************
                     * LOEWDIN POPULATION ANALYSIS *
                     *******************************

-------------------------------------------
LOEWDIN ATOMIC CHARGES AND SPIN POPULATIONS
-------------------------------------------
   0 C :   -0.073299    0.006211
   1 C :   -0.071834    0.087688
   2 C :   -0.106945    0.825807
   3 H :    0.034244    0.001210
   4 H :    0.033625   -0.000495
   5 H :    0.031838    0.010916
   6 H :    0.072697    0.054273
   7 H :    0.038453    0.008381
   8 H :    0.019910    0.003305
   9 H :    0.021312    0.002704

----------------------------------------------------
LOEWDIN REDUCED ORBITAL CHARGES AND SPIN POPULATIONS
----------------------------------------------------
CHARGE
  0 C s       :     2.849773  s :     2.849773
      pz      :     1.069334  p :     3.155959
      px      :     1.023500
      py      :     1.063125
      dz2     :     0.014976  d :     0.067567
      dxz     :     0.014782
      dyz     :     0.007905
      dx2y2   :     0.016331
      dxy     :     0.013573
  1 C s       :     2.834225  s :     2.834225
      pz      :     1.073029  p :     3.142244
      px      :     1.012248
      py      :     1.056966
      dz2     :     0.015862  d :     0.095366
      dxz     :     0.022254
      dyz     :     0.007474
      dx2y2   :     0.027077
      dxy     :     0.022699
  2 C s       :     2.931159  s :     2.931159
      pz      :     1.042434  p :     3.114458
      px      :     1.032215
      py      :     1.039809
      dz2     :     0.008035  d :     0.061328
      dxz     :     0.007183
      dyz     :     0.007067
      dx2y2   :     0.021508
      dxy     :     0.017535
  3 H s       :     0.901796  s :     0.901796
      pz      :     0.015419  p :     0.063960
      px      :     0.011858
      py      :     0.036683
  4 H s       :     0.902508  s :     0.902508
      pz      :     0.019996  p :     0.063867
      px      :     0.024185
      py      :     0.019686
  5 H s       :     0.904056  s :     0.904056
      pz      :     0.037032  p :     0.064107
      px      :     0.014783
      py      :     0.012292
  6 H s       :     0.825361  s :     0.825361
      pz      :     0.046767  p :     0.101941
      px      :     0.033041
      py      :     0.022133
  7 H s       :     0.895699  s :     0.895699
      pz      :     0.016665  p :     0.065848
      px      :     0.010669
      py      :     0.038513
  8 H s       :     0.905816  s :     0.905816
      pz      :     0.022369  p :     0.074274
      px      :     0.010829
      py      :     0.041076
  9 H s       :     0.904270  s :     0.904270
      pz      :     0.021730  p :     0.074418
      px      :     0.036173
      py      :     0.016514

SPIN
  0 C s       :     0.001972  s :     0.001972
      pz      :    -0.001191  p :     0.001906
      px      :     0.001874
      py      :     0.001223
      dz2     :     0.000591  d :     0.002333
      dxz     :     0.001269
      dyz     :     0.000491
      dx2y2   :    -0.000010
      dxy     :    -0.000009
  1 C s       :     0.002603  s :     0.002603
      pz      :     0.081320  p :     0.074632
      px      :    -0.004279
      py      :    -0.002410
      dz2     :     0.007553  d :     0.010453
      dxz     :     0.000395
      dyz     :     0.001486
      dx2y2   :     0.000464
      dxy     :     0.000554
  2 C s       :     0.032073  s :     0.032073
      pz      :     0.749021  p :     0.794233
      px      :     0.024885
      py      :     0.020326
      dz2     :    -0.000666  d :    -0.000498
      dxz     :     0.000812
      dyz     :     0.000631
      dx2y2   :    -0.000554
      dxy     :    -0.000720
  3 H s       :     0.001190  s :     0.001190
      pz      :    -0.000009  p :     0.000021
      px      :     0.000046
      py      :    -0.000016
  4 H s       :    -0.000463  s :    -0.000463
      pz      :    -0.000032  p :    -0.000032
      px      :     0.000018
      py      :    -0.000018
  5 H s       :     0.010231  s :     0.010231
      pz      :     0.000137  p :     0.000684
      px      :     0.000332
      py      :     0.000215
  6 H s       :     0.030454  s :     0.030454
      pz      :     0.001804  p :     0.023820
      px      :     0.014878
      py      :     0.007139
  7 H s       :     0.005368  s :     0.005368
      pz      :     0.002919  p :     0.003013
      px      :    -0.000002
      py      :     0.000096
  8 H s       :    -0.019166  s :    -0.019166
      pz      :     0.019051  p :     0.022470
      px      :     0.000454
      py      :     0.002966
  9 H s       :    -0.019731  s :    -0.019731
      pz      :     0.019460  p :     0.022435
      px      :     0.002132
      py      :     0.000843


                      *****************************
                      * MAYER POPULATION ANALYSIS *
                      *****************************

  NA   - Mulliken gross atomic population
  ZA   - Total nuclear charge
  QA   - Mulliken gross atomic charge
  VA   - Mayer's total valence
  BVA  - Mayer's bonded valence
  FA   - Mayer's free valence

  ATOM       NA         ZA         QA         VA         BVA        FA
  0 C      6.0323     6.0000    -0.0323     3.9940     3.9939     0.0001
  1 C      6.0732     6.0000    -0.0732     4.0602     4.0467     0.0135
  2 C      6.2073     6.0000    -0.2073     3.8449     3.1242     0.7207
  3 H      0.9685     1.0000     0.0315     0.9910     0.9910     0.0000
  4 H      0.9618     1.0000     0.0382     0.9852     0.9852     0.0000
  5 H      0.9629     1.0000     0.0371     0.9852     0.9849     0.0003
  6 H      0.9392     1.0000     0.0608     0.9950     0.9933     0.0018
  7 H      0.9504     1.0000     0.0496     0.9768     0.9767     0.0001
  8 H      0.9508     1.0000     0.0492     0.9865     0.9841     0.0024
  9 H      0.9535     1.0000     0.0465     0.9817     0.9793     0.0024

  Mayer bond orders larger than 0.100000
B(  0-C ,  1-C ) :   1.1102 B(  0-C ,  3-H ) :   0.9601 B(  0-C ,  4-H ) :   0.9625 
B(  0-C ,  5-H ) :   0.9634 B(  1-C ,  2-C ) :   1.0770 B(  1-C ,  6-H ) :   0.8712 
B(  1-C ,  7-H ) :   0.9440 B(  2-C ,  6-H ) :   0.1075 B(  2-C ,  8-H ) :   0.9616 
B(  2-C ,  9-H ) :   0.9617 


------------------
HIRSHFELD ANALYSIS
------------------

Total integrated alpha density =     13.001020931
Total integrated beta density  =     11.999510954

  ATOM     CHARGE      SPIN    
   0 C   -0.070362    0.015871
   1 C   -0.046271    0.124096
   2 C   -0.099704    0.680292
   3 H    0.032266    0.001563
   4 H    0.030191    0.000494
   5 H    0.026319    0.010996
   6 H    0.046790    0.061965
   7 H    0.038792    0.013666
   8 H    0.019495    0.046953
   9 H    0.021952    0.045615

  TOTAL  -0.000532    1.001510

-------
TIMINGS
-------

Total SCF time: 0 days 0 hours 0 min 2 sec 

Total time                  ....       2.923 sec
Sum of individual times     ....       2.747 sec  ( 94.0%)

Fock matrix formation       ....       2.524 sec  ( 86.3%)
  Split-RI-J                ....       0.677 sec  ( 26.8% of F)
  XC integration            ....       0.255 sec  ( 10.1% of F)
    Basis function eval.    ....       0.059 sec  ( 23.3% of XC)
    Density eval.           ....       0.043 sec  ( 17.0% of XC)
    XC-Functional eval.     ....       0.019 sec  (  7.3% of XC)
    XC-Potential eval.      ....       0.062 sec  ( 24.3% of XC)
Diagonalization             ....       0.009 sec  (  0.3%)
Density matrix formation    ....       0.001 sec  (  0.0%)
Population analysis         ....       0.030 sec  (  1.0%)
Initial guess               ....       0.003 sec  (  0.1%)
Orbital Transformation      ....       0.000 sec  (  0.0%)
Orbital Orthonormalization  ....       0.001 sec  (  0.0%)
DIIS solution               ....       0.003 sec  (  0.1%)
Grid generation             ....       0.178 sec  (  6.1%)


-------------------------------------------------------------------------------
                          DFT DISPERSION CORRECTION                            
                                                                               
                              DFTD3 V3.1  Rev 1                                
                          USING Becke-Johnson damping                          
-------------------------------------------------------------------------------
The PBE functional is recognized
Active option DFTDOPT                   ...         4   

molecular C6(AA) [au] = 667.242614 


            DFT-D V3
 parameters
 s6 scaling factor         :     1.0000 
 a1 scaling factor         :     0.4289 
 s8 scaling factor         :     0.7875 
 a2 scaling factor         :     4.4407 
 ad hoc parameters k1-k3   :    16.0000     1.3333    -4.0000 

 Edisp/kcal,au: -3.384571040362  -0.005393656700 
 E6   /kcal   :  -2.460921353 
 E8   /kcal   :  -0.923649688 
 % E8         :  27.290007413 

-------------------------   ----------------
Dispersion correction           -0.005393657
-------------------------   ----------------


-------------------------   --------------------
FINAL SINGLE POINT ENERGY      -118.179467297799
-------------------------   --------------------

                                *** OPTIMIZATION RUN DONE ***

                            ***************************************
                            *     ORCA property calculations      *
                            ***************************************

                                    ---------------------
                                    Active property flags
                                    ---------------------
   (+) Dipole Moment


------------------------------------------------------------------------------
                       ORCA ELECTRIC PROPERTIES CALCULATION
------------------------------------------------------------------------------

Dipole Moment Calculation                       ... on
Quadrupole Moment Calculation                   ... off
Polarizability Calculation                      ... off
GBWName                                         ... m-mfaV_2-6_hl1d_fbond_scan_6_orca.gbw
Electron density file                           ... m-mfaV_2-6_hl1d_fbond_scan_6_orca.scfp
The origin for moment calculation is the CENTER OF MASS  = ( 0.118820, -0.050212 -0.112880)

-------------
DIPOLE MOMENT
-------------
                                X             Y             Z
Electronic contribution:      0.53494      -0.37589      -0.30131
Nuclear contribution   :     -0.64404       0.27202       0.61175
                        -----------------------------------------
Total Dipole Moment    :     -0.10910      -0.10387       0.31044
                        -----------------------------------------
Magnitude (a.u.)       :      0.34506
Magnitude (Debye)      :      0.87707



--------------------
Rotational spectrum 
--------------------
 
Rotational constants in cm-1:     1.232523     0.288300     0.255892 
Rotational constants in MHz : 36950.113741  8643.015225  7671.453414 

 Dipole components along the rotational axes: 
x,y,z [a.u.] :    -0.143865     0.156164     0.271993 
x,y,z [Debye]:    -0.365675     0.396938     0.691350 

 
[1589382345.941226] [ty2019:10919:0]            sys.c:618  UCX  ERROR shmget(size=2097152 flags=0xfb0) for mm_recv_desc failed: Operation not permitted, please check shared memory limits by 'ipcs -l'
[1589382345.946863] [ty2019:10918:0]            sys.c:618  UCX  ERROR shmget(size=2097152 flags=0xfb0) for mm_recv_desc failed: Operation not permitted, please check shared memory limits by 'ipcs -l'
[1589382345.950052] [ty2019:10917:0]            sys.c:618  UCX  ERROR shmget(size=2097152 flags=0xfb0) for mm_recv_desc failed: Operation not permitted, please check shared memory limits by 'ipcs -l'
[1589382345.951583] [ty2019:10916:0]            sys.c:618  UCX  ERROR shmget(size=2097152 flags=0xfb0) for mm_recv_desc failed: Operation not permitted, please check shared memory limits by 'ipcs -l'
[1589382345.958004] [ty2019:10918:0]            sys.c:618  UCX  ERROR shmget(size=2097152 flags=0xb80) for ucp_am_bufs failed: Operation not permitted, please check shared memory limits by 'ipcs -l'
[1589382345.958748] [ty2019:10919:0]            sys.c:618  UCX  ERROR shmget(size=2097152 flags=0xb80) for ucp_am_bufs failed: Operation not permitted, please check shared memory limits by 'ipcs -l'
[1589382345.959021] [ty2019:10916:0]            sys.c:618  UCX  ERROR shmget(size=2097152 flags=0xb80) for ucp_am_bufs failed: Operation not permitted, please check shared memory limits by 'ipcs -l'
[1589382345.961206] [ty2019:10917:0]            sys.c:618  UCX  ERROR shmget(size=2097152 flags=0xb80) for ucp_am_bufs failed: Operation not permitted, please check shared memory limits by 'ipcs -l'

Timings for individual modules:

Sum of individual times         ...       39.076 sec (=   0.651 min)
GTO integral calculation        ...        6.079 sec (=   0.101 min)  15.6 %
SCF iterations                  ...       24.652 sec (=   0.411 min)  63.1 %
SCF Gradient evaluation         ...        8.021 sec (=   0.134 min)  20.5 %
Geometry relaxation             ...        0.324 sec (=   0.005 min)   0.8 %
                             ****ORCA TERMINATED NORMALLY****
TOTAL RUN TIME: 0 days 0 hours 0 minutes 40 seconds 483 msec
