
                                 *****************
                                 * O   R   C   A *
                                 *****************

           --- An Ab Initio, DFT and Semiempirical electronic structure package ---

                  #######################################################
                  #                        -***-                        #
                  #          Department of theory and spectroscopy      #
                  #               Directorship: Frank Neese             #
                  #        Max Planck Institute fuer Kohlenforschung    #
                  #                Kaiser Wilhelm Platz 1               #
                  #                 D-45470 Muelheim/Ruhr               #
                  #                      Germany                        #
                  #                                                     #
                  #                  All rights reserved                #
                  #                        -***-                        #
                  #######################################################


                         Program Version 4.2.1 -  RELEASE  -


 With contributions from (in alphabetic order):
   Daniel Aravena         : Magnetic Suceptibility
   Michael Atanasov       : Ab Initio Ligand Field Theory (pilot matlab implementation)
   Alexander A. Auer      : GIAO ZORA, VPT2
   Ute Becker             : Parallelization
   Giovanni Bistoni       : ED, misc. LED, open-shell LED, HFLD
   Martin Brehm           : Molecular dynamics
   Dmytro Bykov           : SCF Hessian
   Vijay G. Chilkuri      : MRCI spin determinant printing, contributions to CSF-ICE
   Dipayan Datta          : RHF DLPNO-CCSD density
   Achintya Kumar Dutta   : EOM-CC, STEOM-CC
   Dmitry Ganyushin       : Spin-Orbit,Spin-Spin,Magnetic field MRCI
   Miquel Garcia          : C-PCM Hessian, Gaussian charge scheme
   Yang Guo               : DLPNO-NEVPT2, CIM, IAO-localization
   Andreas Hansen         : Spin unrestricted coupled pair/coupled cluster methods
   Benjamin Helmich-Paris : CASSCF linear response (MC-RPA)
   Lee Huntington         : MR-EOM, pCC
   Robert Izsak           : Overlap fitted RIJCOSX, COSX-SCS-MP3, EOM
   Christian Kollmar      : KDIIS, OOCD, Brueckner-CCSD(T), CCSD density
   Simone Kossmann        : Meta GGA functionals, TD-DFT gradient, OOMP2, MP2 Hessian
   Martin Krupicka        : AUTO-CI
   Lucas Lang             : DCDCAS
   Dagmar Lenk            : GEPOL surface, SMD
   Dimitrios Liakos       : Extrapolation schemes; Compound Job, initial MDCI parallelization
   Dimitrios Manganas     : Further ROCIS development; embedding schemes
   Dimitrios Pantazis     : SARC Basis sets
   Taras Petrenko         : DFT Hessian,TD-DFT gradient, ASA, ECA, R-Raman, ABS, FL, XAS/XES, NRVS
   Peter Pinski           : DLPNO-MP2, DLPNO-MP2 Gradient
   Christoph Reimann      : Effective Core Potentials
   Marius Retegan         : Local ZFS, SOC
   Christoph Riplinger    : Optimizer, TS searches, QM/MM, DLPNO-CCSD(T), (RO)-DLPNO pert. Triples
   Tobias Risthaus        : Range-separated hybrids, TD-DFT gradient, RPA, STAB
   Michael Roemelt        : Original ROCIS implementation
   Masaaki Saitow         : Open-shell DLPNO-CCSD energy and density
   Barbara Sandhoefer     : DKH picture change effects
   Avijit Sen             : IP-ROCIS
   Kantharuban Sivalingam : CASSCF convergence, NEVPT2, FIC-MRCI
   Bernardo de Souza      : ESD, SOC TD-DFT
   Georgi Stoychev        : AutoAux, RI-MP2 NMR
   Willem Van den Heuvel  : Paramagnetic NMR
   Boris Wezisla          : Elementary symmetry handling
   Frank Wennmohs         : Technical directorship


 We gratefully acknowledge several colleagues who have allowed us to
 interface, adapt or use parts of their codes:
   Stefan Grimme, W. Hujo, H. Kruse,             : VdW corrections, initial TS optimization,
                  C. Bannwarth                     DFT functionals, gCP, sTDA/sTD-DF
   Ed Valeev, F. Pavosevic, A. Kumar             : LibInt (2-el integral package), F12 methods
   Garnet Chan, S. Sharma, J. Yang, R. Olivares  : DMRG
   Ulf Ekstrom                                   : XCFun DFT Library
   Mihaly Kallay                                 : mrcc  (arbitrary order and MRCC methods)
   Andreas Klamt, Michael Diedenhofen            : otool_cosmo (COSMO solvation model)
   Jiri Pittner, Ondrej Demel                    : Mk-CCSD
   Frank Weinhold                                : gennbo (NPA and NBO analysis)
   Christopher J. Cramer and Donald G. Truhlar   : smd solvation model
   Lars Goerigk                                  : TD-DFT with DH, B97 family of functionals
   V. Asgeirsson, H. Jonsson                     : NEB implementation
   FAccTs GmbH                                   : IRC, NEB, NEB-TS, Multilevel, MM, QM/MM, CI optimization
   S Lehtola, MJT Oliveira, MAL Marques          : LibXC Library


 Your calculation uses the libint2 library for the computation of 2-el integrals
 For citations please refer to: http://libint.valeyev.net

 Your ORCA version has been built with support for libXC version: 4.2.3
 For citations please refer to: https://tddft.org/programs/libxc/

 This ORCA versions uses:
   CBLAS   interface :  Fast vector & matrix operations
   LAPACKE interface :  Fast linear algebra routines
   SCALAPACK package :  Parallel linear algebra routines


Your calculation utilizes the atom-pairwise dispersion correction
with the Becke-Johnson damping scheme (D3BJ)
Cite in your paper:
S.Grimme, S.Ehrlich, L.Goerigk, J Comput Chem, (2011), 32, 1456–1465 
S.Grimme, J.Antony, S.Ehrlich and H.Krieg, J.Chem.Phys., 132, (2010), 154104 
   

----- Orbital basis set information -----
Your calculation utilizes the basis: def2-SVP
   F. Weigend and R. Ahlrichs, Phys. Chem. Chem. Phys. 7, 3297 (2005).

----- AuxJ basis set information -----
Your calculation utilizes the auxiliary basis: def2/J
   F. Weigend, Phys. Chem. Chem. Phys. 8, 1057 (2006).

================================================================================
                                        WARNINGS
                       Please study these warnings very carefully!
================================================================================


WARNING: your system is open-shell and RHF/RKS was chosen
  ===> : WILL SWITCH to UHF/UKS


INFO   : the flag for use of LIBINT has been found!

================================================================================
                                       INPUT FILE
================================================================================
NAME = m-mfaV_2-6_hl1d_fbond_hess_orca.inp
|  1> ! Freq PBE0 RIJCOSX D3BJ def2-SVP def2/J CPCM(Water)
|  2> %geom MaxIter 100 end
|  3> %pal nprocs 4
|  4> end
|  5> %output 
|  6> xyzfile=True 
|  7> end 
|  8> %scf 
|  9> maxiter 250 
| 10> end
| 11> %output
| 12> Print[P_Hirshfeld] = 1
| 13> end
| 14> % maxcore
| 15> 4000
| 16> *xyz 0 2
| 17> C   -1.24380179   0.09254959  -0.00966501 
| 18> C    0.12662310  -0.52860393   0.06281618 
| 19> C    1.32594108   0.28682815  -0.24627833 
| 20> H   -1.23918456   1.12004966   0.40880401 
| 21> H   -2.00018380  -0.49760064   0.54569941 
| 22> H   -1.59039962   0.17613738  -1.06558376 
| 23> H    0.81057384  -0.22486795   0.93567249 
| 24> H    0.22265152  -1.60459875  -0.16096709 
| 25> H    1.28242363   1.37808221  -0.10648726 
| 26> H    2.30525660  -0.19807573  -0.36401066 
| 27> *
| 28> 
| 29>                          ****END OF INPUT****
================================================================================

                       ****************************
                       * Single Point Calculation *
                       ****************************

---------------------------------
CARTESIAN COORDINATES (ANGSTROEM)
---------------------------------
  C     -1.243802    0.092550   -0.009665
  C      0.126623   -0.528604    0.062816
  C      1.325941    0.286828   -0.246278
  H     -1.239185    1.120050    0.408804
  H     -2.000184   -0.497601    0.545699
  H     -1.590400    0.176137   -1.065584
  H      0.810574   -0.224868    0.935672
  H      0.222652   -1.604599   -0.160967
  H      1.282424    1.378082   -0.106487
  H      2.305257   -0.198076   -0.364011

----------------------------
CARTESIAN COORDINATES (A.U.)
----------------------------
  NO LB      ZA    FRAG     MASS         X           Y           Z
   0 C     6.0000    0    12.011   -2.350445    0.174893   -0.018264
   1 C     6.0000    0    12.011    0.239283   -0.998917    0.118705
   2 C     6.0000    0    12.011    2.505666    0.542027   -0.465399
   3 H     1.0000    0     1.008   -2.341719    2.116587    0.772528
   4 H     1.0000    0     1.008   -3.779800   -0.940329    1.031222
   5 H     1.0000    0     1.008   -3.005420    0.332851   -2.013661
   6 H     1.0000    0     1.008    1.531763   -0.424939    1.768165
   7 H     1.0000    0     1.008    0.420750   -3.032252   -0.304184
   8 H     1.0000    0     1.008    2.423429    2.604198   -0.201232
   9 H     1.0000    0     1.008    4.356304   -0.374309   -0.687880

--------------------------------
INTERNAL COORDINATES (ANGSTROEM)
--------------------------------
 C      0   0   0     0.000000000000     0.00000000     0.00000000
 C      1   0   0     1.506369674895     0.00000000     0.00000000
 C      2   1   0     1.482846084513   119.93503744     0.00000000
 H      1   2   3     1.109456638793   111.09747401   319.37623254
 H      1   2   3     1.108521843728   112.15562163   198.55909775
 H      1   2   3     1.114487048377   111.06591520    78.11285806
 H      2   1   3     1.149748797868   117.95513744    72.18251319
 H      2   1   3     1.103206808376   118.13879923   210.41509137
 H      3   2   1     1.101031668560   119.11699409    25.84433397
 H      3   2   1     1.099113989575   120.02381120   190.53117798

---------------------------
INTERNAL COORDINATES (A.U.)
---------------------------
 C      0   0   0     0.000000000000     0.00000000     0.00000000
 C      1   0   0     2.846626141996     0.00000000     0.00000000
 C      2   1   0     2.802172998488   119.93503744     0.00000000
 H      1   2   3     2.096569204780   111.09747401   319.37623254
 H      1   2   3     2.094802698116   112.15562163   198.55909775
 H      1   2   3     2.106075301234   111.06591520    78.11285806
 H      2   1   3     2.172710350777   117.95513744    72.18251319
 H      2   1   3     2.084758736907   118.13879923   210.41509137
 H      3   2   1     2.080648318353   119.11699409    25.84433397
 H      3   2   1     2.077024430258   120.02381120   190.53117798

---------------------
BASIS SET INFORMATION
---------------------
There are 2 groups of distinct atoms

 Group   1 Type C   : 7s4p1d contracted to 3s2p1d pattern {511/31/1}
 Group   2 Type H   : 4s1p contracted to 2s1p pattern {31/1}

Atom   0C    basis set group =>   1
Atom   1C    basis set group =>   1
Atom   2C    basis set group =>   1
Atom   3H    basis set group =>   2
Atom   4H    basis set group =>   2
Atom   5H    basis set group =>   2
Atom   6H    basis set group =>   2
Atom   7H    basis set group =>   2
Atom   8H    basis set group =>   2
Atom   9H    basis set group =>   2
---------------------------------
AUXILIARY/J BASIS SET INFORMATION
---------------------------------
There are 2 groups of distinct atoms

 Group   1 Type C   : 12s5p4d2f1g contracted to 6s4p3d1f1g pattern {711111/2111/211/2/1}
 Group   2 Type H   : 5s2p1d contracted to 3s1p1d pattern {311/2/1}

Atom   0C    basis set group =>   1
Atom   1C    basis set group =>   1
Atom   2C    basis set group =>   1
Atom   3H    basis set group =>   2
Atom   4H    basis set group =>   2
Atom   5H    basis set group =>   2
Atom   6H    basis set group =>   2
Atom   7H    basis set group =>   2
Atom   8H    basis set group =>   2
Atom   9H    basis set group =>   2
[1589383015.645416] [ty2019:18285:0]            sys.c:618  UCX  ERROR shmget(size=2097152 flags=0xfb0) for mm_recv_desc failed: Operation not permitted, please check shared memory limits by 'ipcs -l'
[1589383015.651553] [ty2019:18284:0]            sys.c:618  UCX  ERROR shmget(size=2097152 flags=0xfb0) for mm_recv_desc failed: Operation not permitted, please check shared memory limits by 'ipcs -l'
[1589383015.654857] [ty2019:18282:0]            sys.c:618  UCX  ERROR shmget(size=2097152 flags=0xfb0) for mm_recv_desc failed: Operation not permitted, please check shared memory limits by 'ipcs -l'
[1589383015.655287] [ty2019:18283:0]            sys.c:618  UCX  ERROR shmget(size=2097152 flags=0xfb0) for mm_recv_desc failed: Operation not permitted, please check shared memory limits by 'ipcs -l'
[1589383015.663935] [ty2019:18285:0]            sys.c:618  UCX  ERROR shmget(size=2097152 flags=0xb80) for ucp_am_bufs failed: Operation not permitted, please check shared memory limits by 'ipcs -l'
[1589383015.664256] [ty2019:18282:0]            sys.c:618  UCX  ERROR shmget(size=2097152 flags=0xb80) for ucp_am_bufs failed: Operation not permitted, please check shared memory limits by 'ipcs -l'
[1589383015.668250] [ty2019:18284:0]            sys.c:618  UCX  ERROR shmget(size=2097152 flags=0xb80) for ucp_am_bufs failed: Operation not permitted, please check shared memory limits by 'ipcs -l'
[1589383015.669826] [ty2019:18283:0]            sys.c:618  UCX  ERROR shmget(size=2097152 flags=0xb80) for ucp_am_bufs failed: Operation not permitted, please check shared memory limits by 'ipcs -l'


           ************************************************************
           *        Program running with 4 parallel MPI-processes     *
           *              working on a common directory               *
           ************************************************************
------------------------------------------------------------------------------
                           ORCA GTO INTEGRAL CALCULATION
                           -- RI-GTO INTEGRALS CHOSEN --
------------------------------------------------------------------------------

                         BASIS SET STATISTICS AND STARTUP INFO

Gaussian basis set:
 # of primitive gaussian shells          ...   71
 # of primitive gaussian functions       ...  121
 # of contracted shells                  ...   39
 # of contracted basis functions         ...   77
 Highest angular momentum                ...    2
 Maximum contraction depth               ...    5
Auxiliary gaussian basis set:
 # of primitive gaussian shells          ...  128
 # of primitive gaussian functions       ...  322
 # of contracted shells                  ...   80
 # of contracted aux-basis functions     ...  224
 Highest angular momentum                ...    4
 Maximum contraction depth               ...    7
Ratio of auxiliary to basis functions    ...  2.91
Integral package used                  ... LIBINT
 One Electron integrals                  ... done
 Ordering auxiliary basis shells         ... done
 Integral threshhold             Thresh  ...  1.000e-10
 Primitive cut-off               TCut    ...  1.000e-11
 Pre-screening matrix                    ... done
 Shell pair data                         ... 
 Ordering of the shell pairs             ... done (   0.000 sec) 778 of 780 pairs
 Determination of significant pairs      ... done (   0.000 sec)
 Creation of shell pair data             ... done (   0.000 sec)
 Storage of shell pair data              ... done (   0.034 sec)
 Shell pair data done in (   0.034 sec)
 Computing two index integrals           ... done
 Cholesky decomposition of the V-matrix  ... done


Timings:
 Total evaluation time                   ...   0.131 sec (  0.002 min)
 One electron matrix time                ...   0.007 sec (  0.000 min) =  5.4%
 Schwartz matrix evaluation time         ...   0.068 sec (  0.001 min) = 51.5%
 Two index repulsion integral time       ...   0.001 sec (  0.000 min) =  1.1%
 Cholesky decomposition of V             ...   0.001 sec (  0.000 min) =  0.8%
 Three index repulsion integral time     ...   0.000 sec (  0.000 min) =  0.0%

[1589383016.657288] [ty2019:18304:0]            sys.c:618  UCX  ERROR shmget(size=2097152 flags=0xfb0) for mm_recv_desc failed: Operation not permitted, please check shared memory limits by 'ipcs -l'
[1589383016.661377] [ty2019:18306:0]            sys.c:618  UCX  ERROR shmget(size=2097152 flags=0xfb0) for mm_recv_desc failed: Operation not permitted, please check shared memory limits by 'ipcs -l'
[1589383016.661442] [ty2019:18307:0]            sys.c:618  UCX  ERROR shmget(size=2097152 flags=0xfb0) for mm_recv_desc failed: Operation not permitted, please check shared memory limits by 'ipcs -l'
[1589383016.661899] [ty2019:18305:0]            sys.c:618  UCX  ERROR shmget(size=2097152 flags=0xfb0) for mm_recv_desc failed: Operation not permitted, please check shared memory limits by 'ipcs -l'
[1589383016.667352] [ty2019:18306:0]            sys.c:618  UCX  ERROR shmget(size=2097152 flags=0xb80) for ucp_am_bufs failed: Operation not permitted, please check shared memory limits by 'ipcs -l'
[1589383016.668082] [ty2019:18307:0]            sys.c:618  UCX  ERROR shmget(size=2097152 flags=0xb80) for ucp_am_bufs failed: Operation not permitted, please check shared memory limits by 'ipcs -l'
[1589383016.668599] [ty2019:18304:0]            sys.c:618  UCX  ERROR shmget(size=2097152 flags=0xb80) for ucp_am_bufs failed: Operation not permitted, please check shared memory limits by 'ipcs -l'


           ************************************************************
           *        Program running with 4 parallel MPI-processes     *
           *              working on a common directory               *
           ************************************************************
[1589383016.669981] [ty2019:18305:0]            sys.c:618  UCX  ERROR shmget(size=2097152 flags=0xb80) for ucp_am_bufs failed: Operation not permitted, please check shared memory limits by 'ipcs -l'
-------------------------------------------------------------------------------
                                 ORCA SCF
-------------------------------------------------------------------------------

------------
SCF SETTINGS
------------
Hamiltonian:
 Density Functional     Method          .... DFT(GTOs)
 Exchange Functional    Exchange        .... PBE
   PBE kappa parameter   XKappa         ....  0.804000
   PBE mue parameter    XMuePBE         ....  0.219520
 Correlation Functional Correlation     .... PBE
   PBE beta parameter  CBetaPBE         ....  0.066725
 LDA part of GGA corr.  LDAOpt          .... PW91-LDA
 Gradients option       PostSCFGGA      .... off
 Hybrid DFT is turned on
   Fraction HF Exchange ScalHFX         ....  0.250000
   Scaling of DF-GGA-X  ScalDFX         ....  0.750000
   Scaling of DF-GGA-C  ScalDFC         ....  1.000000
   Scaling of DF-LDA-C  ScalLDAC        ....  1.000000
   Perturbative correction              ....  0.000000
   Density functional embedding theory  .... OFF
   NL short-range parameter             ....  6.900000
 RI-approximation to the Coulomb term is turned on
   Number of auxiliary basis functions  .... 224
   RIJ-COSX (HFX calculated with COS-X)).... on


General Settings:
 Integral files         IntName         .... m-mfaV_2-6_hl1d_fbond_hess_orca
 Hartree-Fock type      HFTyp           .... UHF
 Total Charge           Charge          ....    0
 Multiplicity           Mult            ....    2
 Number of Electrons    NEL             ....   25
 Basis Dimension        Dim             ....   77
 Nuclear Repulsion      ENuc            ....     76.0939741131 Eh

Convergence Acceleration:
 DIIS                   CNVDIIS         .... on
   Start iteration      DIISMaxIt       ....    12
   Startup error        DIISStart       ....  0.200000
   # of expansion vecs  DIISMaxEq       ....     5
   Bias factor          DIISBfac        ....   1.050
   Max. coefficient     DIISMaxC        ....  10.000
 Newton-Raphson         CNVNR           .... off
 SOSCF                  CNVSOSCF        .... off
 Level Shifting         CNVShift        .... on
   Level shift para.    LevelShift      ....    0.2500
   Turn off err/grad.   ShiftErr        ....    0.0010
 Zerner damping         CNVZerner       .... off
 Static damping         CNVDamp         .... on
   Fraction old density DampFac         ....    0.7000
   Max. Damping (<1)    DampMax         ....    0.9800
   Min. Damping (>=0)   DampMin         ....    0.0000
   Turn off err/grad.   DampErr         ....    0.1000
 Fernandez-Rico         CNVRico         .... off

SCF Procedure:
 Maximum # iterations   MaxIter         ....   250
 SCF integral mode      SCFMode         .... Direct
   Integral package                     .... LIBINT
 Reset frequency        DirectResetFreq ....    20
 Integral Threshold     Thresh          ....  1.000e-10 Eh
 Primitive CutOff       TCut            ....  1.000e-11 Eh

Convergence Tolerance:
 Convergence Check Mode ConvCheckMode   .... Total+1el-Energy
 Convergence forced     ConvForced      .... 0
 Energy Change          TolE            ....  1.000e-06 Eh
 1-El. energy change                    ....  1.000e-03 Eh
 DIIS Error             TolErr          ....  1.000e-06


Diagonalization of the overlap matrix:
Smallest eigenvalue                        ... 3.386e-03
Time for diagonalization                   ...    0.001 sec
Threshold for overlap eigenvalues          ... 1.000e-08
Number of eigenvalues below threshold      ... 0
Time for construction of square roots      ...    0.001 sec
Total time needed                          ...    0.002 sec

-------------------
DFT GRID GENERATION
-------------------

General Integration Accuracy     IntAcc      ...  4.340
Radial Grid Type                 RadialGrid  ... Gauss-Chebyshev
Angular Grid (max. acc.)         AngularGrid ... Lebedev-110
Angular grid pruning method      GridPruning ... 3 (G Style)
Weight generation scheme         WeightScheme... Becke
Basis function cutoff            BFCut       ...    1.0000e-10
Integration weight cutoff        WCut        ...    1.0000e-14
Grids for H and He will be reduced by one unit

# of grid points (after initial pruning)     ...  10526 (   0.0 sec)
# of grid points (after weights+screening)   ...  10036 (   0.0 sec)
nearest neighbour list constructed           ...    0.0 sec
Grid point re-assignment to atoms done       ...    0.0 sec
Grid point division into batches done        ...    0.0 sec
Reduced shell lists constructed in    0.0 sec

Total number of grid points                  ...    10036
Total number of batches                      ...      162
Average number of points per batch           ...       61
Average number of grid points per atom       ...     1004
Average number of shells per batch           ...    35.45 (90.90%)
Average number of basis functions per batch  ...    70.02 (90.94%)
Average number of large shells per batch     ...    32.57 (91.87%)
Average number of large basis fcns per batch ...    63.90 (91.26%)
Maximum spatial batch extension              ...  16.68, 15.16, 18.72 au
Average spatial batch extension              ...   0.65,  0.62,  0.69 au

Time for grid setup =    0.031 sec

------------------------------
INITIAL GUESS: MODEL POTENTIAL
------------------------------
Loading Hartree-Fock densities                     ... done
Calculating cut-offs                               ... done
Setting up the integral package                    ... done
Initializing the effective Hamiltonian             ... done
Starting the Coulomb interaction                   ... done (   0.0 sec)
Reading the grid                                   ... done
Mapping shells                                     ... done
Starting the XC term evaluation                    ... done (   0.0 sec)
  promolecular density results
     # of electrons  =     24.997800939
     EX              =    -17.364011509
     EC              =     -0.784448981
     EX+EC           =    -18.148460490
Transforming the Hamiltonian                       ... done (   0.0 sec)
Diagonalizing the Hamiltonian                      ... done (   0.0 sec)
Back transforming the eigenvectors                 ... done (   0.0 sec)
Now organizing SCF variables                       ... done
                      ------------------
                      INITIAL GUESS DONE (   0.1 sec)
                      ------------------
--------------------
COSX GRID GENERATION
--------------------

General Integration Accuracy     IntAcc      ...  3.340
Radial Grid Type                 RadialGrid  ... Gauss-Chebyshev
Angular Grid (max. acc.)         AngularGrid ... Lebedev-50
Angular grid pruning method      GridPruning ... 3 (G Style)
Weight generation scheme         WeightScheme... Becke
Basis function cutoff            BFCut       ...    1.0000e-10
Integration weight cutoff        WCut        ...    1.0000e-14
Grids for H and He will be reduced by one unit

# of grid points (after initial pruning)     ...   3980 (   0.0 sec)
# of grid points (after weights+screening)   ...   3800 (   0.0 sec)
nearest neighbour list constructed           ...    0.0 sec
Grid point re-assignment to atoms done       ...    0.0 sec
Grid point division into batches done        ...    0.0 sec
Reduced shell lists constructed in    0.0 sec

Total number of grid points                  ...     3800
Total number of batches                      ...       65
Average number of points per batch           ...       58
Average number of grid points per atom       ...      380
Average number of shells per batch           ...    36.11 (92.59%)
Average number of basis functions per batch  ...    71.78 (93.22%)
Average number of large shells per batch     ...    33.83 (93.69%)
Average number of large basis fcns per batch ...    67.06 (93.42%)
Maximum spatial batch extension              ...   3.61,  3.60,  8.41 au
Average spatial batch extension              ...   0.53,  0.53,  0.64 au

Overlap Fitting                  UseSFitting ... on
Constructing numerical overlap ... done (      0.0 sec)
Inverting numerical overlap    ... done (      0.0 sec)
Obtaining analytic overlap     ... done (      0.0 sec)
Final contraction and storage  ... done (      0.0 sec)


General Integration Accuracy     IntAcc      ...  3.670
Radial Grid Type                 RadialGrid  ... Gauss-Chebyshev
Angular Grid (max. acc.)         AngularGrid ... Lebedev-50
Angular grid pruning method      GridPruning ... 3 (G Style)
Weight generation scheme         WeightScheme... Becke
Basis function cutoff            BFCut       ...    1.0000e-10
Integration weight cutoff        WCut        ...    1.0000e-14
Grids for H and He will be reduced by one unit

# of grid points (after initial pruning)     ...   5170 (   0.0 sec)
# of grid points (after weights+screening)   ...   4924 (   0.0 sec)
nearest neighbour list constructed           ...    0.0 sec
Grid point re-assignment to atoms done       ...    0.0 sec
Grid point division into batches done        ...    0.0 sec
Reduced shell lists constructed in    0.0 sec

Total number of grid points                  ...     4924
Total number of batches                      ...       81
Average number of points per batch           ...       60
Average number of grid points per atom       ...      492
Average number of shells per batch           ...    35.91 (92.07%)
Average number of basis functions per batch  ...    71.18 (92.44%)
Average number of large shells per batch     ...    33.32 (92.78%)
Average number of large basis fcns per batch ...    65.50 (92.02%)
Maximum spatial batch extension              ...  16.45, 14.91, 17.95 au
Average spatial batch extension              ...   0.72,  0.68,  0.83 au

Overlap Fitting                  UseSFitting ... on
Constructing numerical overlap ... done (      0.0 sec)
Inverting numerical overlap    ... done (      0.0 sec)
Obtaining analytic overlap     ... done (      0.0 sec)
Final contraction and storage  ... done (      0.0 sec)


General Integration Accuracy     IntAcc      ...  4.010
Radial Grid Type                 RadialGrid  ... Gauss-Chebyshev
Angular Grid (max. acc.)         AngularGrid ... Lebedev-110
Angular grid pruning method      GridPruning ... 3 (G Style)
Weight generation scheme         WeightScheme... Becke
Basis function cutoff            BFCut       ...    1.0000e-10
Integration weight cutoff        WCut        ...    1.0000e-14
Grids for H and He will be reduced by one unit

# of grid points (after initial pruning)     ...   9080 (   0.0 sec)
# of grid points (after weights+screening)   ...   8663 (   0.0 sec)
nearest neighbour list constructed           ...    0.0 sec
Grid point re-assignment to atoms done       ...    0.0 sec
Grid point division into batches done        ...    0.0 sec
Reduced shell lists constructed in    0.0 sec

Total number of grid points                  ...     8663
Total number of batches                      ...      141
Average number of points per batch           ...       61
Average number of grid points per atom       ...      866
Average number of shells per batch           ...    35.81 (91.82%)
Average number of basis functions per batch  ...    70.68 (91.79%)
Average number of large shells per batch     ...    33.00 (92.15%)
Average number of large basis fcns per batch ...    64.84 (91.74%)
Maximum spatial batch extension              ...  16.00, 14.68, 17.64 au
Average spatial batch extension              ...   0.62,  0.58,  0.71 au

Overlap Fitting                  UseSFitting ... on
Constructing numerical overlap ... done (      0.0 sec)
Inverting numerical overlap    ... done (      0.0 sec)
Obtaining analytic overlap     ... done (      0.0 sec)
Final contraction and storage  ... done (      0.0 sec)

Time for X-Grid setup             =    0.098 sec

--------------------
CPCM SOLVATION MODEL
--------------------
CPCM parameters:
  Epsilon                                         ...      80.4000
  Refrac                                          ...       1.3300
  Rsolv                                           ...       1.3000
  Surface type                                    ...    GEPOL SES
  Epsilon function type                           ...         CPCM
Radii:
 Radius for C  used is    3.7795 Bohr (=   2.0000 Ang.)
 Radius for H  used is    2.4566 Bohr (=   1.3000 Ang.)
Calculating surface                               ...        done! (  0.0s)
GEPOL surface points                              ...          330
GEPOL Volume                                      ...     523.5208
GEPOL Surface-area                                ...     345.1559
Calculating surface distance matrix               ...        done! (  0.0s)
Performing Cholesky decomposition & store         ...        done! (  0.0s)
Overall time for CPCM initialization              ...                 0.0s
--------------
SCF ITERATIONS
--------------
ITER       Energy         Delta-E        Max-DP      RMS-DP      [F,P]     Damp
               ***  Starting incremental Fock matrix formation  ***
  0   -118.0824743724   0.000000000000 0.04490402  0.00156989  0.1561370 0.7000
  1   -118.1260825886  -0.043608216227 0.03468338  0.00115840  0.0848813 0.7000
                               ***Turning on DIIS***
  2   -118.1455819536  -0.019499365028 0.05964245  0.00205700  0.0351469 0.0000
  3   -118.1728089876  -0.027227033949 0.02281746  0.00078865  0.0433900 0.0000
  4   -118.1803434397  -0.007534452163 0.00810838  0.00024372  0.0081472 0.0000
  5   -118.1807456730  -0.000402233297 0.00392464  0.00011234  0.0021205 0.0000
  6   -118.1807976516  -0.000051978577 0.00425707  0.00011638  0.0009054 0.0000
               *** Restarting incremental Fock matrix formation ***
                                   *** Resetting DIIS ***
  7   -118.1808061591  -0.000008507529 0.00115513  0.00003321  0.0005219 0.0000
  8   -118.1808084556  -0.000002296466 0.00042317  0.00001225  0.0003309 0.0000
                 **** Energy Check signals convergence ****

               *****************************************************
               *                     SUCCESS                       *
               *           SCF CONVERGED AFTER   9 CYCLES          *
               *****************************************************

Setting up the final grid:

General Integration Accuracy     IntAcc      ...  4.670
Radial Grid Type                 RadialGrid  ... Gauss-Chebyshev
Angular Grid (max. acc.)         AngularGrid ... Lebedev-302
Angular grid pruning method      GridPruning ... 3 (G Style)
Weight generation scheme         WeightScheme... Becke
Basis function cutoff            BFCut       ...    1.0000e-10
Integration weight cutoff        WCut        ...    1.0000e-14
Grids for H and He will be reduced by one unit

# of grid points (after initial pruning)     ...  42394 (   0.0 sec)
# of grid points (after weights+screening)   ...  39930 (   0.0 sec)
nearest neighbour list constructed           ...    0.0 sec
Grid point re-assignment to atoms done       ...    0.0 sec
Grid point division into batches done        ...    0.1 sec
Reduced shell lists constructed in    0.1 sec

Total number of grid points                  ...    39930
Total number of batches                      ...      627
Average number of points per batch           ...       63
Average number of grid points per atom       ...     3993
Average number of shells per batch           ...    34.72 (89.01%)
Average number of basis functions per batch  ...    68.49 (88.94%)
Average number of large shells per batch     ...    30.89 (88.99%)
Average number of large basis fcns per batch ...    60.04 (87.67%)
Maximum spatial batch extension              ...  13.99, 13.64, 17.86 au
Average spatial batch extension              ...   0.40,  0.41,  0.46 au

Final grid set up in    0.1 sec
Final integration                            ... done (   0.1 sec)
Change in XC energy                          ...     0.000295024
Integrated number of electrons               ...    24.999920699
Previous integrated no of electrons          ...    25.001926943
Old exchange energy                            =     -4.484061037 Eh
New exchange energy                            =     -4.484328038 Eh
Exchange energy change after final integration =     -0.000267001 Eh
Total energy after final integration           =   -118.180781060 Eh
Final COS-X integration done in                =     0.195 sec

----------------
TOTAL SCF ENERGY
----------------

Total Energy       :         -118.18078106 Eh           -3215.86254 eV

Components:
Nuclear Repulsion  :           76.09397411 Eh            2070.62230 eV
Electronic Energy  :         -194.27475517 Eh           -5286.48485 eV
One Electron Energy:         -307.84702196 Eh           -8376.94334 eV
Two Electron Energy:          113.57226679 Eh            3090.45850 eV
CPCM Dielectric    :           -0.00267066 Eh              -0.07267 eV

Virial components:
Potential Energy   :         -234.90680958 Eh           -6392.13926 eV
Kinetic Energy     :          116.72602852 Eh            3176.27671 eV
Virial Ratio       :            2.01246297


DFT components:
N(Alpha)           :       12.999960626537 electrons
N(Beta)            :       11.999960072912 electrons
N(Total)           :       24.999920699449 electrons
E(X)               :      -13.371130896655 Eh       
E(C)               :       -0.796507929677 Eh       
E(XC)              :      -14.167638826332 Eh       
DFET-embed. en.    :        0.000000000000 Eh       
CPCM Solvation Model Properties:
Surface-charge          :           -0.02071625
Charge-correction       :            0.00000107 Eh               0.00003 eV
Free-energy (cav+disp)  :            0.00314698 Eh               0.08563 eV
Corrected G(solv)       :         -118.17763301 Eh           -3215.77688 eV

---------------
SCF CONVERGENCE
---------------

  Last Energy change         ...   -6.2758e-07  Tolerance :   1.0000e-06
  Last MAX-Density change    ...    0.0000e+00  Tolerance :   1.0000e-05
  Last RMS-Density change    ...    0.0000e+00  Tolerance :   1.0000e-06
  Last DIIS Error            ...    1.4860e-04  Tolerance :   1.0000e-06

             **** THE GBW FILE WAS UPDATED (m-mfaV_2-6_hl1d_fbond_hess_orca.gbw) ****
             **** DENSITY FILE WAS UPDATED (m-mfaV_2-6_hl1d_fbond_hess_orca.scfp) ****
             **** ENERGY FILE WAS UPDATED (m-mfaV_2-6_hl1d_fbond_hess_orca.en.tmp) ****
----------------------
UHF SPIN CONTAMINATION
----------------------

Warning: in a DFT calculation there is little theoretical justification to 
         calculate <S**2> as in Hartree-Fock theory. We will do it anyways
         but you should keep in mind that the values have only limited relevance

Expectation value of <S**2>     :     0.755945
Ideal value S*(S+1) for S=0.5   :     0.750000
Deviation                       :     0.005945

             **** THE GBW FILE WAS UPDATED (m-mfaV_2-6_hl1d_fbond_hess_orca.gbw) ****
             **** DENSITY FILE WAS UPDATED (m-mfaV_2-6_hl1d_fbond_hess_orca.scfp) ****
----------------
ORBITAL ENERGIES
----------------
                 SPIN UP ORBITALS
  NO   OCC          E(Eh)            E(eV) 
   0   1.0000     -10.240589      -278.6606 
   1   1.0000     -10.233747      -278.4744 
   2   1.0000     -10.228190      -278.3232 
   3   1.0000      -0.827181       -22.5087 
   4   1.0000      -0.702933       -19.1278 
   5   1.0000      -0.575306       -15.6549 
   6   1.0000      -0.484375       -13.1805 
   7   1.0000      -0.450855       -12.2684 
   8   1.0000      -0.422881       -11.5072 
   9   1.0000      -0.386862       -10.5270 
  10   1.0000      -0.362475        -9.8634 
  11   1.0000      -0.337250        -9.1770 
  12   1.0000      -0.154222        -4.1966 
  13   0.0000       0.079980         2.1764 
  14   0.0000       0.113625         3.0919 
  15   0.0000       0.118222         3.2170 
  16   0.0000       0.128023         3.4837 
  17   0.0000       0.154827         4.2131 
  18   0.0000       0.165957         4.5159 
  19   0.0000       0.172144         4.6843 
  20   0.0000       0.239429         6.5152 
  21   0.0000       0.288708         7.8561 
  22   0.0000       0.395883        10.7725 
  23   0.0000       0.412702        11.2302 
  24   0.0000       0.432392        11.7660 
  25   0.0000       0.490608        13.3501 
  26   0.0000       0.523236        14.2380 
  27   0.0000       0.533477        14.5166 
  28   0.0000       0.605717        16.4824 
  29   0.0000       0.644027        17.5249 
  30   0.0000       0.648916        17.6579 
  31   0.0000       0.663711        18.0605 
  32   0.0000       0.670588        18.2476 
  33   0.0000       0.693021        18.8580 
  34   0.0000       0.705135        19.1877 
  35   0.0000       0.710401        19.3310 
  36   0.0000       0.715188        19.4613 
  37   0.0000       0.722898        19.6711 
  38   0.0000       0.753100        20.4929 
  39   0.0000       0.867773        23.6133 
  40   0.0000       0.974234        26.5102 
  41   0.0000       1.189646        32.3719 
  42   0.0000       1.210190        32.9309 
  43   0.0000       1.353934        36.8424 
  44   0.0000       1.405885        38.2561 
  45   0.0000       1.516608        41.2690 
  46   0.0000       1.535292        41.7774 
  47   0.0000       1.553710        42.2786 
  48   0.0000       1.583125        43.0790 
  49   0.0000       1.674210        45.5576 
  50   0.0000       1.710820        46.5538 
  51   0.0000       1.739496        47.3341 
  52   0.0000       1.743529        47.4438 
  53   0.0000       1.795367        48.8544 
  54   0.0000       1.800134        48.9841 
  55   0.0000       1.832456        49.8637 
  56   0.0000       1.862378        50.6779 
  57   0.0000       1.946804        52.9752 
  58   0.0000       1.974567        53.7307 
  59   0.0000       2.066428        56.2304 
  60   0.0000       2.110089        57.4184 
  61   0.0000       2.222691        60.4825 
  62   0.0000       2.254173        61.3392 
  63   0.0000       2.297564        62.5199 
  64   0.0000       2.334476        63.5243 
  65   0.0000       2.376071        64.6562 
  66   0.0000       2.475614        67.3649 
  67   0.0000       2.488884        67.7260 
  68   0.0000       2.519034        68.5464 
  69   0.0000       2.627982        71.5110 
  70   0.0000       2.777898        75.5904 
  71   0.0000       2.822479        76.8036 
  72   0.0000       2.911845        79.2353 
  73   0.0000       2.947336        80.2011 
  74   0.0000       2.965578        80.6975 
  75   0.0000       3.025624        82.3314 
  76   0.0000       3.129796        85.1661 

                 SPIN DOWN ORBITALS
  NO   OCC          E(Eh)            E(eV) 
   0   1.0000     -10.235964      -278.5348 
   1   1.0000     -10.228297      -278.3261 
   2   1.0000     -10.221369      -278.1376 
   3   1.0000      -0.810617       -22.0580 
   4   1.0000      -0.693243       -18.8641 
   5   1.0000      -0.554893       -15.0994 
   6   1.0000      -0.472619       -12.8606 
   7   1.0000      -0.438977       -11.9452 
   8   1.0000      -0.416535       -11.3345 
   9   1.0000      -0.381857       -10.3908 
  10   1.0000      -0.358423        -9.7532 
  11   1.0000      -0.313857        -8.5405 
  12   0.0000      -0.004553        -0.1239 
  13   0.0000       0.083381         2.2689 
  14   0.0000       0.116002         3.1566 
  15   0.0000       0.124949         3.4000 
  16   0.0000       0.140066         3.8114 
  17   0.0000       0.157116         4.2754 
  18   0.0000       0.170798         4.6476 
  19   0.0000       0.174780         4.7560 
  20   0.0000       0.247177         6.7260 
  21   0.0000       0.297520         8.0959 
  22   0.0000       0.403204        10.9717 
  23   0.0000       0.415000        11.2927 
  24   0.0000       0.435176        11.8417 
  25   0.0000       0.512199        13.9376 
  26   0.0000       0.532693        14.4953 
  27   0.0000       0.571823        15.5601 
  28   0.0000       0.621889        16.9225 
  29   0.0000       0.654019        17.7968 
  30   0.0000       0.657419        17.8893 
  31   0.0000       0.676063        18.3966 
  32   0.0000       0.677945        18.4478 
  33   0.0000       0.697406        18.9774 
  34   0.0000       0.710672        19.3384 
  35   0.0000       0.714846        19.4520 
  36   0.0000       0.725443        19.7403 
  37   0.0000       0.729445        19.8492 
  38   0.0000       0.761875        20.7317 
  39   0.0000       0.874224        23.7888 
  40   0.0000       0.981587        26.7103 
  41   0.0000       1.194472        32.5032 
  42   0.0000       1.227365        33.3983 
  43   0.0000       1.361148        37.0387 
  44   0.0000       1.421545        38.6822 
  45   0.0000       1.525866        41.5209 
  46   0.0000       1.536498        41.8102 
  47   0.0000       1.556109        42.3439 
  48   0.0000       1.587591        43.2005 
  49   0.0000       1.678251        45.6675 
  50   0.0000       1.726995        46.9939 
  51   0.0000       1.745341        47.4931 
  52   0.0000       1.758563        47.8529 
  53   0.0000       1.797489        48.9122 
  54   0.0000       1.803285        49.0699 
  55   0.0000       1.837200        49.9928 
  56   0.0000       1.867940        50.8292 
  57   0.0000       1.948784        53.0291 
  58   0.0000       1.986372        54.0519 
  59   0.0000       2.082212        56.6599 
  60   0.0000       2.119133        57.6645 
  61   0.0000       2.229104        60.6570 
  62   0.0000       2.275417        61.9173 
  63   0.0000       2.307265        62.7839 
  64   0.0000       2.351708        63.9932 
  65   0.0000       2.398102        65.2557 
  66   0.0000       2.484810        67.6151 
  67   0.0000       2.498474        67.9869 
  68   0.0000       2.525600        68.7251 
  69   0.0000       2.632705        71.6395 
  70   0.0000       2.782134        75.7057 
  71   0.0000       2.838325        77.2347 
  72   0.0000       2.920426        79.4688 
  73   0.0000       2.950478        80.2866 
  74   0.0000       2.967952        80.7621 
  75   0.0000       3.031128        82.4812 
  76   0.0000       3.135348        85.3172 

                    ********************************
                    * MULLIKEN POPULATION ANALYSIS *
                    ********************************

--------------------------------------------
MULLIKEN ATOMIC CHARGES AND SPIN POPULATIONS
--------------------------------------------
   0 C :   -0.066877   -0.024367
   1 C :   -0.181496    0.263114
   2 C :   -0.241014    0.862407
   3 H :    0.049331    0.002948
   4 H :    0.057679    0.000339
   5 H :    0.055069    0.028483
   6 H :    0.096249   -0.038650
   7 H :    0.076664   -0.007161
   8 H :    0.078045   -0.043713
   9 H :    0.076349   -0.043400
Sum of atomic charges         :   -0.0000000
Sum of atomic spin populations:    1.0000000

-----------------------------------------------------
MULLIKEN REDUCED ORBITAL CHARGES AND SPIN POPULATIONS
-----------------------------------------------------
CHARGE
  0 C s       :     3.041298  s :     3.041298
      pz      :     1.029094  p :     2.997811
      px      :     0.956094
      py      :     1.012623
      dz2     :     0.005742  d :     0.027768
      dxz     :     0.006652
      dyz     :     0.003506
      dx2y2   :     0.006268
      dxy     :     0.005600
  1 C s       :     3.146232  s :     3.146232
      pz      :     1.082085  p :     2.995833
      px      :     0.909687
      py      :     1.004061
      dz2     :     0.005039  d :     0.039430
      dxz     :     0.010423
      dyz     :     0.003255
      dx2y2   :     0.010556
      dxy     :     0.010157
  2 C s       :     3.215973  s :     3.215973
      pz      :     1.097163  p :     2.998522
      px      :     0.942218
      py      :     0.959141
      dz2     :     0.004480  d :     0.026519
      dxz     :     0.004131
      dyz     :     0.003485
      dx2y2   :     0.007609
      dxy     :     0.006814
  3 H s       :     0.926986  s :     0.926986
      pz      :     0.006359  p :     0.023683
      px      :     0.004106
      py      :     0.013218
  4 H s       :     0.918897  s :     0.918897
      pz      :     0.007445  p :     0.023424
      px      :     0.008555
      py      :     0.007425
  5 H s       :     0.921515  s :     0.921515
      pz      :     0.013433  p :     0.023416
      px      :     0.005011
      py      :     0.004972
  6 H s       :     0.863158  s :     0.863158
      pz      :     0.017920  p :     0.040593
      px      :     0.013121
      py      :     0.009552
  7 H s       :     0.899991  s :     0.899991
      pz      :     0.005947  p :     0.023345
      px      :     0.002986
      py      :     0.014412
  8 H s       :     0.897023  s :     0.897023
      pz      :     0.006343  p :     0.024932
      px      :     0.003730
      py      :     0.014859
  9 H s       :     0.898835  s :     0.898835
      pz      :     0.006505  p :     0.024816
      px      :     0.012630
      py      :     0.005681

SPIN
  0 C s       :    -0.009318  s :    -0.009318
      pz      :    -0.008556  p :    -0.017100
      px      :    -0.006853
      py      :    -0.001690
      dz2     :     0.000335  d :     0.002052
      dxz     :     0.001289
      dyz     :     0.000410
      dx2y2   :     0.000005
      dxy     :     0.000013
  1 C s       :     0.043581  s :     0.043581
      pz      :     0.229402  p :     0.217587
      px      :    -0.008199
      py      :    -0.003616
      dz2     :     0.002222  d :     0.001945
      dxz     :    -0.000483
      dyz     :     0.000149
      dx2y2   :     0.000154
      dxy     :    -0.000097
  2 C s       :     0.072241  s :     0.072241
      pz      :     0.733622  p :     0.791906
      px      :     0.022391
      py      :     0.035893
      dz2     :    -0.002206  d :    -0.001741
      dxz     :     0.000472
      dyz     :     0.000091
      dx2y2   :     0.000077
      dxy     :    -0.000176
  3 H s       :     0.003017  s :     0.003017
      pz      :    -0.000019  p :    -0.000069
      px      :    -0.000031
      py      :    -0.000019
  4 H s       :     0.000417  s :     0.000417
      pz      :    -0.000024  p :    -0.000079
      px      :    -0.000029
      py      :    -0.000026
  5 H s       :     0.028637  s :     0.028637
      pz      :    -0.000173  p :    -0.000154
      px      :    -0.000026
      py      :     0.000045
  6 H s       :    -0.050338  s :    -0.050338
      pz      :     0.000384  p :     0.011688
      px      :     0.007846
      py      :     0.003458
  7 H s       :    -0.008661  s :    -0.008661
      pz      :     0.001338  p :     0.001500
      px      :     0.000009
      py      :     0.000153
  8 H s       :    -0.048392  s :    -0.048392
      pz      :     0.004356  p :     0.004679
      px      :    -0.000054
      py      :     0.000377
  9 H s       :    -0.048005  s :    -0.048005
      pz      :     0.004424  p :     0.004605
      px      :     0.000195
      py      :    -0.000013


                     *******************************
                     * LOEWDIN POPULATION ANALYSIS *
                     *******************************

-------------------------------------------
LOEWDIN ATOMIC CHARGES AND SPIN POPULATIONS
-------------------------------------------
   0 C :   -0.078885    0.001517
   1 C :   -0.089267    0.226646
   2 C :   -0.125339    0.702921
   3 H :    0.037707    0.003502
   4 H :    0.035518    0.000447
   5 H :    0.032898    0.020790
   6 H :    0.088246    0.034005
   7 H :    0.039705    0.007043
   8 H :    0.028950    0.001584
   9 H :    0.030466    0.001545

----------------------------------------------------
LOEWDIN REDUCED ORBITAL CHARGES AND SPIN POPULATIONS
----------------------------------------------------
CHARGE
  0 C s       :     2.848439  s :     2.848439
      pz      :     1.070293  p :     3.158014
      px      :     1.023763
      py      :     1.063958
      dz2     :     0.015594  d :     0.072432
      dxz     :     0.016308
      dyz     :     0.009206
      dx2y2   :     0.016461
      dxy     :     0.014862
  1 C s       :     2.845981  s :     2.845981
      pz      :     1.106105  p :     3.148374
      px      :     0.989510
      py      :     1.052759
      dz2     :     0.010785  d :     0.094912
      dxz     :     0.023903
      dyz     :     0.007811
      dx2y2   :     0.027600
      dxy     :     0.024813
  2 C s       :     2.913248  s :     2.913248
      pz      :     1.076683  p :     3.144105
      px      :     1.030227
      py      :     1.037196
      dz2     :     0.009535  d :     0.067986
      dxz     :     0.010270
      dyz     :     0.008447
      dx2y2   :     0.021137
      dxy     :     0.018596
  3 H s       :     0.897788  s :     0.897788
      pz      :     0.016252  p :     0.064505
      px      :     0.011588
      py      :     0.036666
  4 H s       :     0.900121  s :     0.900121
      pz      :     0.019558  p :     0.064361
      px      :     0.024769
      py      :     0.020035
  5 H s       :     0.902525  s :     0.902525
      pz      :     0.037650  p :     0.064577
      px      :     0.014525
      py      :     0.012402
  6 H s       :     0.776522  s :     0.776522
      pz      :     0.055295  p :     0.135232
      px      :     0.050155
      py      :     0.029782
  7 H s       :     0.890014  s :     0.890014
      pz      :     0.019398  p :     0.070281
      px      :     0.010139
      py      :     0.040743
  8 H s       :     0.894178  s :     0.894178
      pz      :     0.023209  p :     0.076872
      px      :     0.010655
      py      :     0.043008
  9 H s       :     0.892431  s :     0.892431
      pz      :     0.023491  p :     0.077103
      px      :     0.036986
      py      :     0.016625

SPIN
  0 C s       :     0.000653  s :     0.000653
      pz      :    -0.003685  p :    -0.005052
      px      :    -0.001372
      py      :     0.000005
      dz2     :     0.001063  d :     0.005916
      dxz     :     0.003498
      dyz     :     0.001089
      dx2y2   :     0.000153
      dxy     :     0.000114
  1 C s       :     0.011707  s :     0.011707
      pz      :     0.208218  p :     0.209153
      px      :     0.000064
      py      :     0.000871
      dz2     :     0.004444  d :     0.005786
      dxz     :    -0.000297
      dyz     :     0.001090
      dx2y2   :     0.000320
      dxy     :     0.000230
  2 C s       :     0.025195  s :     0.025195
      pz      :     0.641316  p :     0.676803
      px      :     0.017954
      py      :     0.017533
      dz2     :    -0.001573  d :     0.000923
      dxz     :     0.002382
      dyz     :     0.001258
      dx2y2   :    -0.000519
      dxy     :    -0.000625
  3 H s       :     0.003724  s :     0.003724
      pz      :    -0.000030  p :    -0.000222
      px      :    -0.000083
      py      :    -0.000109
  4 H s       :     0.000742  s :     0.000742
      pz      :    -0.000126  p :    -0.000295
      px      :    -0.000100
      py      :    -0.000069
  5 H s       :     0.020259  s :     0.020259
      pz      :    -0.000171  p :     0.000531
      px      :     0.000452
      py      :     0.000250
  6 H s       :    -0.019338  s :    -0.019338
      pz      :     0.003930  p :     0.053343
      px      :     0.033832
      py      :     0.015581
  7 H s       :    -0.001099  s :    -0.001099
      pz      :     0.007240  p :     0.008142
      px      :     0.000174
      py      :     0.000728
  8 H s       :    -0.020909  s :    -0.020909
      pz      :     0.019125  p :     0.022493
      px      :     0.000313
      py      :     0.003055
  9 H s       :    -0.020995  s :    -0.020995
      pz      :     0.019377  p :     0.022540
      px      :     0.002207
      py      :     0.000956


                      *****************************
                      * MAYER POPULATION ANALYSIS *
                      *****************************

  NA   - Mulliken gross atomic population
  ZA   - Total nuclear charge
  QA   - Mulliken gross atomic charge
  VA   - Mayer's total valence
  BVA  - Mayer's bonded valence
  FA   - Mayer's free valence

  ATOM       NA         ZA         QA         VA         BVA        FA
  0 C      6.0669     6.0000    -0.0669     3.9639     3.9635     0.0004
  1 C      6.1815     6.0000    -0.1815     3.9356     3.8571     0.0785
  2 C      6.2410     6.0000    -0.2410     3.7544     3.1994     0.5550
  3 H      0.9507     1.0000     0.0493     0.9873     0.9873     0.0000
  4 H      0.9423     1.0000     0.0577     0.9813     0.9813     0.0000
  5 H      0.9449     1.0000     0.0551     0.9789     0.9780     0.0009
  6 H      0.9038     1.0000     0.0962     1.0134     1.0096     0.0038
  7 H      0.9233     1.0000     0.0767     0.9771     0.9769     0.0002
  8 H      0.9220     1.0000     0.0780     0.9885     0.9861     0.0024
  9 H      0.9237     1.0000     0.0763     0.9844     0.9820     0.0024

  Mayer bond orders larger than 0.100000
B(  0-C ,  1-C ) :   1.0801 B(  0-C ,  3-H ) :   0.9641 B(  0-C ,  4-H ) :   0.9691 
B(  0-C ,  5-H ) :   0.9624 B(  1-C ,  2-C ) :   1.0234 B(  1-C ,  6-H ) :   0.7711 
B(  1-C ,  7-H ) :   0.9553 B(  2-C ,  6-H ) :   0.2265 B(  2-C ,  8-H ) :   0.9695 
B(  2-C ,  9-H ) :   0.9691 


------------------
HIRSHFELD ANALYSIS
------------------

Total integrated alpha density =     13.001878481
Total integrated beta density  =     12.000048463

  ATOM     CHARGE      SPIN    
   0 C   -0.073560    0.021515
   1 C   -0.054562    0.223584
   2 C   -0.108451    0.582457
   3 H    0.033503    0.003435
   4 H    0.029469    0.002014
   5 H    0.025129    0.019776
   6 H    0.055154    0.049018
   7 H    0.037418    0.018967
   8 H    0.025646    0.040966
   9 H    0.028326    0.040099

  TOTAL  -0.001927    1.001830

-------
TIMINGS
-------

Total SCF time: 0 days 0 hours 0 min 4 sec 

Total time                  ....       4.044 sec
Sum of individual times     ....       3.946 sec  ( 97.6%)

Fock matrix formation       ....       3.561 sec  ( 88.1%)
  Split-RI-J                ....       0.733 sec  ( 20.6% of F)
  Chain of spheres X        ....       1.215 sec  ( 34.1% of F)
  COS-X 1 center corr.      ....       0.000 sec  (  0.0% of F)
  XC integration            ....       0.240 sec  (  6.7% of F)
    Basis function eval.    ....       0.070 sec  ( 29.0% of XC)
    Density eval.           ....       0.047 sec  ( 19.5% of XC)
    XC-Functional eval.     ....       0.023 sec  (  9.4% of XC)
    XC-Potential eval.      ....       0.079 sec  ( 33.0% of XC)
Diagonalization             ....       0.011 sec  (  0.3%)
Density matrix formation    ....       0.001 sec  (  0.0%)
Population analysis         ....       0.017 sec  (  0.4%)
Initial guess               ....       0.079 sec  (  2.0%)
Orbital Transformation      ....       0.000 sec  (  0.0%)
Orbital Orthonormalization  ....       0.000 sec  (  0.0%)
DIIS solution               ....       0.003 sec  (  0.1%)
Grid generation             ....       0.274 sec  (  6.8%)


-------------------------------------------------------------------------------
                          DFT DISPERSION CORRECTION                            
                                                                               
                              DFTD3 V3.1  Rev 1                                
                          USING Becke-Johnson damping                          
-------------------------------------------------------------------------------
The PBE0 functional is recognized
Active option DFTDOPT                   ...         4   

molecular C6(AA) [au] = 639.515455 


            DFT-D V3
 parameters
 s6 scaling factor         :     1.0000 
 a1 scaling factor         :     0.4145 
 s8 scaling factor         :     1.2177 
 a2 scaling factor         :     4.8593 
 ad hoc parameters k1-k3   :    16.0000     1.3333    -4.0000 

 Edisp/kcal,au: -2.675305584483  -0.004263370371 
 E6   /kcal   :  -1.762951379 
 E8   /kcal   :  -0.912354205 
 % E8         :  34.102803451 

-------------------------   ----------------
Dispersion correction           -0.004263370
-------------------------   ----------------


-------------------------   --------------------
FINAL SINGLE POINT ENERGY      -118.185044430130
-------------------------   --------------------


                            ***************************************
                            *     ORCA property calculations      *
                            ***************************************

                                    ---------------------
                                    Active property flags
                                    ---------------------
   (+) Dipole Moment


------------------------------------------------------------------------------
                       ORCA ELECTRIC PROPERTIES CALCULATION
------------------------------------------------------------------------------

Dipole Moment Calculation                       ... on
Quadrupole Moment Calculation                   ... off
Polarizability Calculation                      ... off
GBWName                                         ... m-mfaV_2-6_hl1d_fbond_hess_orca.gbw
Electron density file                           ... m-mfaV_2-6_hl1d_fbond_hess_orca.scfp
The origin for moment calculation is the CENTER OF MASS  = ( 0.100734, -0.072014 -0.093194)

-------------
DIPOLE MOMENT
-------------
                                X             Y             Z
Electronic contribution:      0.48909      -0.44107      -0.23845
Nuclear contribution   :     -0.54602       0.39017       0.50506
                        -----------------------------------------
Total Dipole Moment    :     -0.05694      -0.05090       0.26661
                        -----------------------------------------
Magnitude (a.u.)       :      0.27733
Magnitude (Debye)      :      0.70492



--------------------
Rotational spectrum 
--------------------
 
Rotational constants in cm-1:     1.253402     0.286045     0.253095 
Rotational constants in MHz : 37576.044255  8575.403805  7587.596650 

 Dipole components along the rotational axes: 
x,y,z [a.u.] :    -0.078836     0.086602     0.251391 
x,y,z [Debye]:    -0.200385     0.220125     0.638985 

 
[1589383021.703144] [ty2019:18329:0]            sys.c:618  UCX  ERROR shmget(size=2097152 flags=0xfb0) for mm_recv_desc failed: Operation not permitted, please check shared memory limits by 'ipcs -l'
[1589383021.705297] [ty2019:18331:0]            sys.c:618  UCX  ERROR shmget(size=2097152 flags=0xfb0) for mm_recv_desc failed: Operation not permitted, please check shared memory limits by 'ipcs -l'
[1589383021.707808] [ty2019:18330:0]            sys.c:618  UCX  ERROR shmget(size=2097152 flags=0xfb0) for mm_recv_desc failed: Operation not permitted, please check shared memory limits by 'ipcs -l'
[1589383021.707808] [ty2019:18332:0]            sys.c:618  UCX  ERROR shmget(size=2097152 flags=0xfb0) for mm_recv_desc failed: Operation not permitted, please check shared memory limits by 'ipcs -l'
[1589383021.714609] [ty2019:18331:0]            sys.c:618  UCX  ERROR shmget(size=2097152 flags=0xb80) for ucp_am_bufs failed: Operation not permitted, please check shared memory limits by 'ipcs -l'
[1589383021.714648] [ty2019:18329:0]            sys.c:618  UCX  ERROR shmget(size=2097152 flags=0xb80) for ucp_am_bufs failed: Operation not permitted, please check shared memory limits by 'ipcs -l'


           ************************************************************
           *        Program running with 4 parallel MPI-processes     *
           *              working on a common directory               *
           ************************************************************
[1589383021.730453] [ty2019:18330:0]            sys.c:618  UCX  ERROR shmget(size=2097152 flags=0xb80) for ucp_am_bufs failed: Operation not permitted, please check shared memory limits by 'ipcs -l'

-------------------------------------------------------------------------------
                               ORCA SCF HESSIAN
-------------------------------------------------------------------------------

Hessian of the Kohn-Sham DFT energy:
Kohn-Sham wavefunction type                      ... UKS
Hartree-Fock exchange scaling                    ...    0.250
Number of operators                              ...    2
Number of atoms                                  ...   10
Basis set dimensions                             ...   77
Integral neglect threshold                       ... 1.0e-10
Integral primitive cutoff                        ... 1.0e-11

Setting up DFT Hessian calculations              ... 
Electron density on the grid                     ... found on disk
Electron density on the final grid               ... found on disk
Building xc-kernel on the grid                   ... done   (      0.0 sec)
Building xc-kernel on the final grid             ... done   (      0.0 sec)
[1589383021.771435] [ty2019:18332:0]            sys.c:618  UCX  ERROR shmget(size=2097152 flags=0xb80) for ucp_am_bufs failed: Operation not permitted, please check shared memory limits by 'ipcs -l'
                                                     done   (      0.0 sec)

Nuclear repulsion Hessian                        ... done   (      0.0 sec)

----------------------------------------------
Forming right-hand sides of CP-SCF equations     ...
----------------------------------------------
One electron integral derivatives                ... done   (      1.3 sec)
Transforming the overlap derivative matrices     ... done   (      0.0 sec)
[1589383024.101762] [ty2019:18331:0]            sys.c:618  UCX  ERROR shmget(size=6291456 flags=0xfb0) for mm_recv_desc failed: Operation not permitted, please check shared memory limits by 'ipcs -l'
[1589383024.101798] [ty2019:18332:0]            sys.c:618  UCX  ERROR shmget(size=6291456 flags=0xfb0) for mm_recv_desc failed: Operation not permitted, please check shared memory limits by 'ipcs -l'
[1589383024.104679] [ty2019:18329:0]            sys.c:618  UCX  ERROR shmget(size=6291456 flags=0xfb0) for mm_recv_desc failed: Operation not permitted, please check shared memory limits by 'ipcs -l'
Adding tr(S(x)F(y) C-PCM term to the hessian     ... done   (      0.7 sec)
Making the Q(x) pseudodensities                  ... done   (      0.0 sec)
Adding the E*S(x)*S(y) terms to the Hessian      ... done   (      0.0 sec)
Calculating energy weighted overlap derivatives  ... done   (      0.0 sec)
Two electron integral derivatives (RI)           ... done   (      0.5 sec)
Exchange-correlation integral derivatives        ... done   (      2.8 sec)
tr(F(y)Q(x)) contribution to the Hessian         ... done   (      0.0 sec)
Response fock operator R(S(x)) (RIJCOSX)         ... done   (      0.8 sec)
XC Response fock operator R(S(x))                ... done   (      0.9 sec)
tr(F(y)S(x)) contribution to the Hessian         ... done   (      0.0 sec)
Transforming and finalizing RHSs                 ... done   (      0.0 sec)

----------------------------------------------
Solving the CP-SCF equations (RIJCOSX)           ...
----------------------------------------------
     CP-SCF ITERATION   0: 
     CP-SCF ITERATION   1:      0.003202931828
     CP-SCF ITERATION   2:      0.000405123746
     CP-SCF ITERATION   3:      0.000044728026
     CP-SCF ITERATION   4:      0.000006350800
     CP-SCF ITERATION   5:      0.000000938051

                                                 ... done   (      5.6 sec)
Forming perturbed density Hessian contributions  ... done   (      0.0 sec)
Calculating [Q*(d^2 A/dXdY)*Q  ] C-PCM term      ... done   (      0.0 sec)
Calculating [d^2(V_N)/(dXdY)*Q ] C-PCM term      ... done   (      0.0 sec)
Calculating [d^2(V_el)/(dXdY)*Q] C-PCM term      ... done   (      0.1 sec)
Calculating C-PCM term that depends on dQ/dX     ... done   (      0.0 sec)
2nd integral derivative contribs (RI)            ... done   (      1.9 sec)
Exchange-correlation Hessian                     ... done   (      3.2 sec)
Dispersion correction in the Hessian             ... done   (      0.5 sec)
Dipol derivatives                                ... done   (      0.1 sec)

Total SCF Hessian time: 0 days 0 hours 0 min 18 sec 

Writing the Hessian file to the disk             ... done


Maximum memory used throughout the entire calculation: 133.1 MB

-----------------------
VIBRATIONAL FREQUENCIES
-----------------------

Scaling factor for frequencies =  1.000000000  (already applied!)

   0:         0.00 cm**-1
   1:         0.00 cm**-1
   2:         0.00 cm**-1
   3:         0.00 cm**-1
   4:         0.00 cm**-1
   5:         0.00 cm**-1
   6:     -1144.00 cm**-1 ***imaginary mode***
   7:       298.89 cm**-1
   8:       353.54 cm**-1
   9:       433.81 cm**-1
  10:       481.20 cm**-1
  11:       722.08 cm**-1
  12:       897.67 cm**-1
  13:       934.80 cm**-1
  14:      1076.78 cm**-1
  15:      1159.94 cm**-1
  16:      1180.36 cm**-1
  17:      1211.00 cm**-1
  18:      1357.35 cm**-1
  19:      1409.73 cm**-1
  20:      1430.53 cm**-1
  21:      1450.50 cm**-1
  22:      1460.73 cm**-1
  23:      2774.22 cm**-1
  24:      2954.55 cm**-1
  25:      3037.95 cm**-1
  26:      3076.31 cm**-1
  27:      3095.21 cm**-1
  28:      3112.10 cm**-1
  29:      3215.46 cm**-1


------------
NORMAL MODES
------------

These modes are the Cartesian displacements weighted by the diagonal matrix
M(i,i)=1/sqrt(m[i]) where m[i] is the mass of the displaced atom
Thus, these vectors are normalized but *not* orthogonal

                  0          1          2          3          4          5    
      0       0.000000   0.000000   0.000000   0.000000   0.000000   0.000000
      1       0.000000   0.000000   0.000000   0.000000   0.000000   0.000000
      2       0.000000   0.000000   0.000000   0.000000   0.000000   0.000000
      3       0.000000   0.000000   0.000000   0.000000   0.000000   0.000000
      4       0.000000   0.000000   0.000000   0.000000   0.000000   0.000000
      5       0.000000   0.000000   0.000000   0.000000   0.000000   0.000000
      6       0.000000   0.000000   0.000000   0.000000   0.000000   0.000000
      7       0.000000   0.000000   0.000000   0.000000   0.000000   0.000000
      8       0.000000   0.000000   0.000000   0.000000   0.000000   0.000000
      9       0.000000   0.000000   0.000000   0.000000   0.000000   0.000000
     10       0.000000   0.000000   0.000000   0.000000   0.000000   0.000000
     11       0.000000   0.000000   0.000000   0.000000   0.000000   0.000000
     12       0.000000   0.000000   0.000000   0.000000   0.000000   0.000000
     13       0.000000   0.000000   0.000000   0.000000   0.000000   0.000000
     14       0.000000   0.000000   0.000000   0.000000   0.000000   0.000000
     15       0.000000   0.000000   0.000000   0.000000   0.000000   0.000000
     16       0.000000   0.000000   0.000000   0.000000   0.000000   0.000000
     17       0.000000   0.000000   0.000000   0.000000   0.000000   0.000000
     18       0.000000   0.000000   0.000000   0.000000   0.000000   0.000000
     19       0.000000   0.000000   0.000000   0.000000   0.000000   0.000000
     20       0.000000   0.000000   0.000000   0.000000   0.000000   0.000000
     21       0.000000   0.000000   0.000000   0.000000   0.000000   0.000000
     22       0.000000   0.000000   0.000000   0.000000   0.000000   0.000000
     23       0.000000   0.000000   0.000000   0.000000   0.000000   0.000000
     24       0.000000   0.000000   0.000000   0.000000   0.000000   0.000000
     25       0.000000   0.000000   0.000000   0.000000   0.000000   0.000000
     26       0.000000   0.000000   0.000000   0.000000   0.000000   0.000000
     27       0.000000   0.000000   0.000000   0.000000   0.000000   0.000000
     28       0.000000   0.000000   0.000000   0.000000   0.000000   0.000000
     29       0.000000   0.000000   0.000000   0.000000   0.000000   0.000000
                  6          7          8          9         10         11    
      0      -0.001199  -0.000092   0.143942  -0.031540  -0.007087   0.020528
      1      -0.001938   0.003185   0.068528  -0.017912   0.004519   0.002478
      2       0.002458   0.010839  -0.033597  -0.033299   0.007988  -0.025787
      3      -0.052838  -0.007003   0.018992   0.004127   0.003072   0.002201
      4      -0.029079  -0.020355  -0.163501   0.050451   0.000973  -0.035024
      5      -0.047602  -0.074003   0.093892   0.074953  -0.038724  -0.072310
      6      -0.000021   0.008673  -0.181997   0.021319   0.039059   0.002194
      7      -0.013147   0.023942   0.052420  -0.006182  -0.007329  -0.006498
      8       0.089354   0.067141  -0.004428   0.029239   0.118978   0.026922
      9       0.008687   0.167740   0.350582  -0.152623  -0.005721   0.235779
     10      -0.002967   0.195433   0.090428   0.010492  -0.026504  -0.052122
     11       0.011508  -0.464732  -0.090006  -0.103648   0.083620   0.111776
     12      -0.016384   0.104420  -0.099980  -0.048180   0.024703   0.092836
     13       0.005080   0.300450   0.291820  -0.042595  -0.040970   0.050695
     14      -0.009242   0.471583  -0.130501  -0.082350   0.003780   0.122689
     15      -0.015445  -0.266301   0.353584   0.088180  -0.058806  -0.230070
     16       0.035044  -0.466453   0.122442  -0.115909   0.065014   0.182384
     17      -0.003674   0.062624  -0.097824  -0.080334   0.031507   0.071741
     18       0.713052   0.003218   0.160056   0.099063  -0.204720  -0.421931
     19       0.529656  -0.168589  -0.236815  -0.116868  -0.124145   0.345244
     20      -0.408625  -0.033445   0.022673   0.060038   0.115235   0.076753
     21       0.012897  -0.020578   0.004319   0.005012  -0.020859   0.110690
     22      -0.037302   0.004507  -0.127469   0.074651   0.010973  -0.146247
     23       0.076433  -0.200887  -0.088055  -0.037668  -0.111703   0.535048
     24      -0.033401  -0.013921  -0.462903   0.211501  -0.154503  -0.105120
     25       0.003806   0.013037   0.042801  -0.030053   0.103170  -0.036312
     26      -0.093435   0.133421  -0.023621   0.260578  -0.865840   0.239125
     27      -0.025263   0.006622  -0.078524  -0.130337   0.002350   0.020833
     28      -0.007075   0.040917   0.323849  -0.093782   0.034343   0.121594
     29      -0.099752  -0.015949  -0.258369  -0.861341  -0.308056  -0.309021
                 12         13         14         15         16         17    
      0      -0.152139   0.119397   0.019408   0.023154  -0.052122  -0.031927
      1       0.069900   0.046956  -0.037278  -0.146530   0.022978  -0.034317
      2       0.004452   0.005420   0.136445  -0.012309   0.065286  -0.027405
      3       0.043458  -0.015969  -0.047254  -0.100400   0.119736   0.057622
      4      -0.086031   0.079276   0.001813   0.149545   0.074950   0.104385
      5       0.027903  -0.037029  -0.117843   0.042568  -0.053177  -0.048640
      6       0.153057  -0.049851   0.034732   0.062698  -0.065300  -0.048734
      7      -0.012451  -0.079983   0.046212  -0.064297  -0.135536  -0.020559
      8      -0.036019   0.017692   0.007338  -0.018615   0.019228   0.022646
      9      -0.276553  -0.398806  -0.034160   0.568887  -0.120705   0.144676
     10       0.083429   0.044391   0.117889  -0.152657   0.116083  -0.046779
     11      -0.021554   0.003035  -0.254270   0.002054  -0.153662   0.014673
     12      -0.191105   0.450753  -0.363436  -0.141429  -0.223409  -0.024334
     13       0.050623  -0.390306   0.085896   0.186548   0.096401   0.057155
     14      -0.060357  -0.011500  -0.262694   0.103978  -0.093298   0.072211
     15      -0.106610   0.041309   0.623153   0.142127   0.192235  -0.090359
     16       0.017273  -0.266598  -0.193385   0.183998  -0.034870   0.183354
     17      -0.013557   0.003986  -0.080594  -0.023847  -0.024401   0.008014
     18       0.170188  -0.003315  -0.162459  -0.013073  -0.104880   0.386256
     19      -0.185817  -0.021477  -0.043953   0.097123   0.264482  -0.630563
     20      -0.037105  -0.001243  -0.044424   0.006873   0.063591  -0.047848
     21      -0.165673  -0.418095  -0.222289  -0.301976   0.647674   0.091502
     22      -0.134110   0.021027  -0.111813   0.201595   0.166139  -0.016472
     23       0.134186   0.097043   0.368501  -0.258445  -0.238945   0.545906
     24      -0.395440  -0.369540   0.085723  -0.318496  -0.405767  -0.136934
     25      -0.044629  -0.106766   0.050117  -0.083586  -0.166671  -0.026029
     26       0.104080   0.104738  -0.013089   0.070956   0.080722  -0.029750
     27       0.436429   0.059283  -0.008577   0.237307  -0.012716  -0.096281
     28       0.553801   0.168643  -0.032806   0.297185   0.006557  -0.110591
     29      -0.062038  -0.030218  -0.022537  -0.040312  -0.007406   0.073072
                 18         19         20         21         22         23    
      0       0.020333   0.144706   0.055422   0.003231  -0.005805   0.003381
      1      -0.055567  -0.050703   0.017407  -0.010953  -0.035769   0.000017
      2      -0.003315   0.016688  -0.014100  -0.047801   0.001374   0.004539
      3       0.141069  -0.090537  -0.090697   0.015405  -0.060462  -0.043740
      4      -0.001505   0.018585  -0.005763   0.005985  -0.029288  -0.005493
      5      -0.002038   0.003467   0.017204  -0.024325   0.012856  -0.055091
      6      -0.011950  -0.010215   0.107066  -0.026116   0.047194   0.004728
      7       0.023775  -0.026295   0.057105  -0.016652   0.028051   0.005070
      8       0.008342  -0.003590  -0.024132   0.007424  -0.012261  -0.021982
      9      -0.251503  -0.473735  -0.076526  -0.351511  -0.296812  -0.006465
     10       0.010633   0.032428  -0.111966  -0.214592   0.118825  -0.002815
     11      -0.129496  -0.168893   0.295402   0.470700  -0.343792  -0.000784
     12      -0.263490  -0.280983  -0.126425  -0.029949   0.312950   0.009501
     13       0.276172   0.272276   0.151907   0.477535  -0.046370   0.006807
     14      -0.021312  -0.205290  -0.099651   0.438276   0.397821   0.002451
     15      -0.244593  -0.421552  -0.110799   0.321804   0.307003  -0.010596
     16       0.268603   0.190106  -0.315573  -0.135174   0.562598  -0.002787
     17       0.096862   0.204581   0.019801  -0.142471  -0.053801  -0.031689
     18      -0.020169   0.000296  -0.019706  -0.013571  -0.036005   0.375674
     19       0.210603  -0.134355  -0.087348   0.016880  -0.036837   0.118579
     20       0.066782  -0.030470  -0.063189  -0.001211  -0.032511   0.902459
     21      -0.600111   0.282371   0.239060  -0.026764   0.170878   0.029849
     22      -0.047814   0.050701   0.022402  -0.006755  -0.007742  -0.132197
     23      -0.097134   0.044562   0.018989   0.022098  -0.012016  -0.025348
     24      -0.206024   0.217083  -0.596327   0.143843  -0.186789  -0.011092
     25       0.001621  -0.009393   0.015168  -0.008044   0.016415   0.044862
     26       0.047585  -0.038554   0.093069  -0.022347   0.025687   0.013014
     27      -0.194932   0.152777  -0.164713   0.045286  -0.043945   0.037708
     28      -0.323068   0.294273  -0.493784   0.127766  -0.165928  -0.027610
     29       0.001102  -0.003322  -0.013849   0.005928  -0.004849   0.004188
                 24         25         26         27         28         29    
      0       0.041618  -0.015779   0.041858   0.001167   0.007777  -0.000420
      1      -0.018414   0.026273   0.080680   0.002237   0.011850   0.000311
      2       0.035876   0.082916  -0.017078  -0.000174   0.001464  -0.000270
      3       0.000293   0.002615   0.000388  -0.006367  -0.002155  -0.000027
      4      -0.000880  -0.003750  -0.012133   0.010222   0.082705  -0.006274
      5       0.001646   0.001049  -0.003937   0.002423   0.021992  -0.001286
      6       0.000439   0.000353  -0.000733   0.048052  -0.005907   0.059388
      7       0.000217   0.000397   0.000579   0.040266  -0.013688  -0.080016
      8      -0.000361   0.000128  -0.000408  -0.001035   0.002894  -0.013944
      9       0.009001  -0.008186  -0.002083   0.001442   0.000890  -0.002171
     10       0.370497  -0.626314  -0.562023  -0.018713  -0.103988   0.000740
     11       0.161979  -0.244130  -0.238277  -0.007376  -0.042809  -0.000171
     12      -0.251386   0.343208  -0.519996  -0.009848  -0.070667   0.000317
     13      -0.205504   0.279140  -0.410721  -0.010147  -0.051850   0.000501
     14       0.199630  -0.243601   0.391818   0.008774   0.048995   0.000633
     15      -0.246032  -0.165437   0.023161   0.000157  -0.007575   0.001417
     16       0.053686   0.040253   0.010401   0.000755   0.003620  -0.000548
     17      -0.789544  -0.503980   0.049550  -0.001736  -0.022569   0.002109
     18      -0.016492  -0.010977   0.009420   0.011369  -0.042064   0.004889
     19      -0.009717  -0.004507   0.001667   0.003618  -0.006079  -0.001776
     20      -0.017317  -0.017537   0.021183   0.034780  -0.115883   0.009648
     21       0.000589  -0.004206  -0.011588   0.015583   0.082533  -0.004506
     22       0.016868   0.040831   0.145378  -0.151544  -0.939326   0.061219
     23       0.002440   0.007225   0.031780  -0.033039  -0.192866   0.011446
     24       0.001625  -0.001074  -0.001599   0.036313  -0.006434  -0.020805
     25      -0.001864  -0.001424  -0.003400  -0.742287   0.155392   0.628820
     26      -0.000542  -0.000299  -0.000350  -0.088783   0.020796   0.078064
     27      -0.001924  -0.000670   0.008027  -0.565622   0.046707  -0.681459
     28       0.003353  -0.001088  -0.004984   0.290062  -0.021355   0.335546
     29       0.000542   0.000298  -0.000440   0.072911  -0.009639   0.082972


-----------
IR SPECTRUM
-----------

 Mode    freq (cm**-1)   T**2         TX         TY         TZ
-------------------------------------------------------------------
   7:       298.89    2.203882  ( -0.740967  -0.444795  -1.207065)
   8:       353.54    9.726069  (  1.554558   0.476232  -2.661320)
   9:       433.81   32.746428  (  0.645480  -0.643636  -5.649382)
  10:       481.20   87.754236  ( -2.093705   0.981630  -9.077832)
  11:       722.08   13.510487  ( -1.000421  -0.517907   3.498774)
  12:       897.67    0.413046  ( -0.475440   0.371636  -0.221110)
  13:       934.80   12.328491  ( -1.910014  -2.693082   1.194842)
  14:      1076.78   11.927798  ( -2.523721  -1.914403   1.376114)
  15:      1159.94    4.401095  (  0.867181   1.643048  -0.974415)
  16:      1180.36    0.985203  ( -0.747390   0.296110  -0.582177)
  17:      1211.00   22.722101  ( -0.355509  -2.919055   3.751644)
  18:      1357.35    1.880510  (  0.366770   1.268063  -0.371490)
  19:      1409.73    1.945664  (  0.103130   1.316269   0.449962)
  20:      1430.53    8.588407  ( -2.178284  -1.597304  -1.136708)
  21:      1450.50   15.067262  ( -0.421404   0.687062   3.797055)
  22:      1460.73    7.100385  (  0.818491   2.489556  -0.482255)
  23:      2774.22   19.978965  ( -3.859308  -1.170404   1.927397)
  24:      2954.55   60.053386  (  6.861702  -1.589085   3.231911)
  25:      3037.95   27.277891  ( -0.634120   1.288529   5.021501)
  26:      3076.31   20.103321  (  2.490638   3.631367  -0.844522)
  27:      3095.21    8.744831  (  1.557041   2.402218  -0.741487)
  28:      3112.10   16.000663  ( -0.039158   3.999440  -0.060095)
  29:      3215.46    4.752917  (  1.217475  -1.784470  -0.293834)

The first frequency considered to be a vibration is 7
The total number of vibrations considered is 23


--------------------------
THERMOCHEMISTRY AT 298.15K
--------------------------

Temperature         ... 298.15 K
Pressure            ... 1.00 atm
Total Mass          ... 43.09 AMU

Throughout the following assumptions are being made:
  (1) The electronic state is orbitally nondegenerate
      but the spin degeneracy is treated
  (2) There are no thermally accessible electronically excited states
  (3) Hindered rotations indicated by low frequency modes are not
      treated as such but are treated as vibrations and this may
      cause some error
  (4) All equations used are the standard statistical mechanics
      equations for an ideal gas
  (5) All vibrations are strictly harmonic

freq.     298.89  E(vib)   ...       0.26 
freq.     353.54  E(vib)   ...       0.22 
freq.     433.81  E(vib)   ...       0.17 
freq.     481.20  E(vib)   ...       0.15 
freq.     722.08  E(vib)   ...       0.07 
freq.     897.67  E(vib)   ...       0.03 
freq.     934.80  E(vib)   ...       0.03 
freq.    1076.78  E(vib)   ...       0.02 
freq.    1159.94  E(vib)   ...       0.01 
freq.    1180.36  E(vib)   ...       0.01 
freq.    1211.00  E(vib)   ...       0.01 
freq.    1357.35  E(vib)   ...       0.01 
freq.    1409.73  E(vib)   ...       0.00 
freq.    1430.53  E(vib)   ...       0.00 
freq.    1450.50  E(vib)   ...       0.00 
freq.    1460.73  E(vib)   ...       0.00 
freq.    2774.22  E(vib)   ...       0.00 
freq.    2954.55  E(vib)   ...       0.00 
freq.    3037.95  E(vib)   ...       0.00 
freq.    3076.31  E(vib)   ...       0.00 
freq.    3095.21  E(vib)   ...       0.00 
freq.    3112.10  E(vib)   ...       0.00 
freq.    3215.46  E(vib)   ...       0.00 

------------
INNER ENERGY
------------

The inner energy is: U= E(el) + E(ZPE) + E(vib) + E(rot) + E(trans)
    E(el)   - is the total energy from the electronic structure calculation
              = E(kin-el) + E(nuc-el) + E(el-el) + E(nuc-nuc)
    E(ZPE)  - the the zero temperature vibrational energy from the frequency calculation
    E(vib)  - the the finite temperature correction to E(ZPE) due to population
              of excited vibrational states
    E(rot)  - is the rotational thermal energy
    E(trans)- is the translational thermal energy

Summary of contributions to the inner energy U:
Electronic energy                ...   -118.18504443 Eh
Zero point energy                ...      0.08457632 Eh      53.07 kcal/mol
Thermal vibrational correction   ...      0.00161676 Eh       1.01 kcal/mol
Thermal rotational correction    ...      0.00141627 Eh       0.89 kcal/mol
Thermal translational correction ...      0.00141627 Eh       0.89 kcal/mol
-----------------------------------------------------------------------
Total thermal energy                   -118.09601881 Eh


Summary of corrections to the electronic energy:
(perhaps to be used in another calculation)
Total thermal correction                  0.00444931 Eh       2.79 kcal/mol
Non-thermal (ZPE) correction              0.08457632 Eh      53.07 kcal/mol
-----------------------------------------------------------------------
Total correction                          0.08902562 Eh      55.86 kcal/mol


--------
ENTHALPY
--------

The enthalpy is H = U + kB*T
                kB is Boltzmann's constant
Total free energy                 ...   -118.09601881 Eh 
Thermal Enthalpy correction       ...      0.00094421 Eh       0.59 kcal/mol
-----------------------------------------------------------------------
Total Enthalpy                    ...   -118.09507460 Eh


Note: Only C1 symmetry has been detected, increase convergence thresholds 
      if your molecule has a higher symmetry. Symmetry factor of 1.0 is   
      used for the rotational entropy correction. 
 

Note: Rotational entropy computed according to Herzberg 
Infrared and Raman Spectra, Chapter V,1, Van Nostrand Reinhold, 1945 
Point Group:  C1, Symmetry Number:   1  
Rotational constants in cm-1:     1.253402     0.286045     0.253095 

Vibrational entropy computed according to the QRRHO of S. Grimme
Chem.Eur.J. 2012 18 9955


-------
ENTROPY
-------

The entropy contributions are T*S = T*(S(el)+S(vib)+S(rot)+S(trans))
     S(el)   - electronic entropy
     S(vib)  - vibrational entropy
     S(rot)  - rotational entropy
     S(trans)- translational entropy
The entropies will be listed as mutliplied by the temperature to get
units of energy

Electronic entropy                ...      0.00065446 Eh      0.41 kcal/mol
Vibrational entropy               ...      0.00235912 Eh      1.48 kcal/mol
Rotational entropy                ...      0.01064370 Eh      6.68 kcal/mol
Translational entropy             ...      0.01767888 Eh     11.09 kcal/mol
-----------------------------------------------------------------------
Final entropy term                ...      0.03133616 Eh     19.66 kcal/mol

In case the symmetry of your molecule has not been determined correctly
or in case you have a reason to use a different symmetry number we print 
out the resulting rotational entropy values for sn=1,12 :
 --------------------------------------------------------
|  sn= 1 | S(rot)=       0.01064370 Eh      6.68 kcal/mol|
|  sn= 2 | S(rot)=       0.00998925 Eh      6.27 kcal/mol|
|  sn= 3 | S(rot)=       0.00960641 Eh      6.03 kcal/mol|
|  sn= 4 | S(rot)=       0.00933479 Eh      5.86 kcal/mol|
|  sn= 5 | S(rot)=       0.00912410 Eh      5.73 kcal/mol|
|  sn= 6 | S(rot)=       0.00895196 Eh      5.62 kcal/mol|
|  sn= 7 | S(rot)=       0.00880641 Eh      5.53 kcal/mol|
|  sn= 8 | S(rot)=       0.00868033 Eh      5.45 kcal/mol|
|  sn= 9 | S(rot)=       0.00856913 Eh      5.38 kcal/mol|
|  sn=10 | S(rot)=       0.00846965 Eh      5.31 kcal/mol|
|  sn=11 | S(rot)=       0.00837966 Eh      5.26 kcal/mol|
|  sn=12 | S(rot)=       0.00829750 Eh      5.21 kcal/mol|
 --------------------------------------------------------


-------------------
GIBBS FREE ENERGY
-------------------

The Gibbs free energy is G = H - T*S

Total enthalpy                    ...   -118.09507460 Eh 
Total entropy correction          ...     -0.03133616 Eh    -19.66 kcal/mol
-----------------------------------------------------------------------
Final Gibbs free energy         ...   -118.12641076 Eh

For completeness - the Gibbs free energy minus the electronic energy
G-E(el)                           ...      0.05863367 Eh     36.79 kcal/mol

[1589383041.649434] [ty2019:18411:0]            sys.c:618  UCX  ERROR shmget(size=2097152 flags=0xfb0) for mm_recv_desc failed: Operation not permitted, please check shared memory limits by 'ipcs -l'
[1589383041.649649] [ty2019:18410:0]            sys.c:618  UCX  ERROR shmget(size=2097152 flags=0xfb0) for mm_recv_desc failed: Operation not permitted, please check shared memory limits by 'ipcs -l'
[1589383041.651034] [ty2019:18409:0]            sys.c:618  UCX  ERROR shmget(size=2097152 flags=0xfb0) for mm_recv_desc failed: Operation not permitted, please check shared memory limits by 'ipcs -l'
[1589383041.653004] [ty2019:18412:0]            sys.c:618  UCX  ERROR shmget(size=2097152 flags=0xfb0) for mm_recv_desc failed: Operation not permitted, please check shared memory limits by 'ipcs -l'
[1589383041.657893] [ty2019:18411:0]            sys.c:618  UCX  ERROR shmget(size=2097152 flags=0xb80) for ucp_am_bufs failed: Operation not permitted, please check shared memory limits by 'ipcs -l'
[1589383041.657892] [ty2019:18409:0]            sys.c:618  UCX  ERROR shmget(size=2097152 flags=0xb80) for ucp_am_bufs failed: Operation not permitted, please check shared memory limits by 'ipcs -l'
[1589383041.658835] [ty2019:18412:0]            sys.c:618  UCX  ERROR shmget(size=2097152 flags=0xb80) for ucp_am_bufs failed: Operation not permitted, please check shared memory limits by 'ipcs -l'
[1589383041.658849] [ty2019:18410:0]            sys.c:618  UCX  ERROR shmget(size=2097152 flags=0xb80) for ucp_am_bufs failed: Operation not permitted, please check shared memory limits by 'ipcs -l'

Timings for individual modules:

Sum of individual times         ...       25.806 sec (=   0.430 min)
GTO integral calculation        ...        1.030 sec (=   0.017 min)   4.0 %
SCF iterations                  ...        4.903 sec (=   0.082 min)  19.0 %
Analytical frequency calculation...       19.874 sec (=   0.331 min)  77.0 %
                             ****ORCA TERMINATED NORMALLY****
TOTAL RUN TIME: 0 days 0 hours 0 minutes 26 seconds 905 msec
