
                                 *****************
                                 * O   R   C   A *
                                 *****************

           --- An Ab Initio, DFT and Semiempirical electronic structure package ---

                  #######################################################
                  #                        -***-                        #
                  #          Department of theory and spectroscopy      #
                  #               Directorship: Frank Neese             #
                  #        Max Planck Institute fuer Kohlenforschung    #
                  #                Kaiser Wilhelm Platz 1               #
                  #                 D-45470 Muelheim/Ruhr               #
                  #                      Germany                        #
                  #                                                     #
                  #                  All rights reserved                #
                  #                        -***-                        #
                  #######################################################


                         Program Version 4.2.1 -  RELEASE  -


 With contributions from (in alphabetic order):
   Daniel Aravena         : Magnetic Suceptibility
   Michael Atanasov       : Ab Initio Ligand Field Theory (pilot matlab implementation)
   Alexander A. Auer      : GIAO ZORA, VPT2
   Ute Becker             : Parallelization
   Giovanni Bistoni       : ED, misc. LED, open-shell LED, HFLD
   Martin Brehm           : Molecular dynamics
   Dmytro Bykov           : SCF Hessian
   Vijay G. Chilkuri      : MRCI spin determinant printing, contributions to CSF-ICE
   Dipayan Datta          : RHF DLPNO-CCSD density
   Achintya Kumar Dutta   : EOM-CC, STEOM-CC
   Dmitry Ganyushin       : Spin-Orbit,Spin-Spin,Magnetic field MRCI
   Miquel Garcia          : C-PCM Hessian, Gaussian charge scheme
   Yang Guo               : DLPNO-NEVPT2, CIM, IAO-localization
   Andreas Hansen         : Spin unrestricted coupled pair/coupled cluster methods
   Benjamin Helmich-Paris : CASSCF linear response (MC-RPA)
   Lee Huntington         : MR-EOM, pCC
   Robert Izsak           : Overlap fitted RIJCOSX, COSX-SCS-MP3, EOM
   Christian Kollmar      : KDIIS, OOCD, Brueckner-CCSD(T), CCSD density
   Simone Kossmann        : Meta GGA functionals, TD-DFT gradient, OOMP2, MP2 Hessian
   Martin Krupicka        : AUTO-CI
   Lucas Lang             : DCDCAS
   Dagmar Lenk            : GEPOL surface, SMD
   Dimitrios Liakos       : Extrapolation schemes; Compound Job, initial MDCI parallelization
   Dimitrios Manganas     : Further ROCIS development; embedding schemes
   Dimitrios Pantazis     : SARC Basis sets
   Taras Petrenko         : DFT Hessian,TD-DFT gradient, ASA, ECA, R-Raman, ABS, FL, XAS/XES, NRVS
   Peter Pinski           : DLPNO-MP2, DLPNO-MP2 Gradient
   Christoph Reimann      : Effective Core Potentials
   Marius Retegan         : Local ZFS, SOC
   Christoph Riplinger    : Optimizer, TS searches, QM/MM, DLPNO-CCSD(T), (RO)-DLPNO pert. Triples
   Tobias Risthaus        : Range-separated hybrids, TD-DFT gradient, RPA, STAB
   Michael Roemelt        : Original ROCIS implementation
   Masaaki Saitow         : Open-shell DLPNO-CCSD energy and density
   Barbara Sandhoefer     : DKH picture change effects
   Avijit Sen             : IP-ROCIS
   Kantharuban Sivalingam : CASSCF convergence, NEVPT2, FIC-MRCI
   Bernardo de Souza      : ESD, SOC TD-DFT
   Georgi Stoychev        : AutoAux, RI-MP2 NMR
   Willem Van den Heuvel  : Paramagnetic NMR
   Boris Wezisla          : Elementary symmetry handling
   Frank Wennmohs         : Technical directorship


 We gratefully acknowledge several colleagues who have allowed us to
 interface, adapt or use parts of their codes:
   Stefan Grimme, W. Hujo, H. Kruse,             : VdW corrections, initial TS optimization,
                  C. Bannwarth                     DFT functionals, gCP, sTDA/sTD-DF
   Ed Valeev, F. Pavosevic, A. Kumar             : LibInt (2-el integral package), F12 methods
   Garnet Chan, S. Sharma, J. Yang, R. Olivares  : DMRG
   Ulf Ekstrom                                   : XCFun DFT Library
   Mihaly Kallay                                 : mrcc  (arbitrary order and MRCC methods)
   Andreas Klamt, Michael Diedenhofen            : otool_cosmo (COSMO solvation model)
   Jiri Pittner, Ondrej Demel                    : Mk-CCSD
   Frank Weinhold                                : gennbo (NPA and NBO analysis)
   Christopher J. Cramer and Donald G. Truhlar   : smd solvation model
   Lars Goerigk                                  : TD-DFT with DH, B97 family of functionals
   V. Asgeirsson, H. Jonsson                     : NEB implementation
   FAccTs GmbH                                   : IRC, NEB, NEB-TS, Multilevel, MM, QM/MM, CI optimization
   S Lehtola, MJT Oliveira, MAL Marques          : LibXC Library


 Your calculation uses the libint2 library for the computation of 2-el integrals
 For citations please refer to: http://libint.valeyev.net

 Your ORCA version has been built with support for libXC version: 4.2.3
 For citations please refer to: https://tddft.org/programs/libxc/

 This ORCA versions uses:
   CBLAS   interface :  Fast vector & matrix operations
   LAPACKE interface :  Fast linear algebra routines
   SCALAPACK package :  Parallel linear algebra routines


Your calculation utilizes the atom-pairwise dispersion correction
with the Becke-Johnson damping scheme (D3BJ)
Cite in your paper:
S.Grimme, S.Ehrlich, L.Goerigk, J Comput Chem, (2011), 32, 1456–1465 
S.Grimme, J.Antony, S.Ehrlich and H.Krieg, J.Chem.Phys., 132, (2010), 154104 
   

----- Orbital basis set information -----
Your calculation utilizes the basis: def2-SVP
   F. Weigend and R. Ahlrichs, Phys. Chem. Chem. Phys. 7, 3297 (2005).

----- AuxJ basis set information -----
Your calculation utilizes the auxiliary basis: def2/J
   F. Weigend, Phys. Chem. Chem. Phys. 8, 1057 (2006).

================================================================================
                                        WARNINGS
                       Please study these warnings very carefully!
================================================================================


WARNING: your system is open-shell and RHF/RKS was chosen
  ===> : WILL SWITCH to UHF/UKS


WARNING: Geometry Optimization
  ===> : Switching off AutoStart
         For restart on a previous wavefunction, please use MOREAD

INFO   : the flag for use of LIBINT has been found!

================================================================================
                                       INPUT FILE
================================================================================
NAME = m-mfaV_2-6_hl1d_fbond_scan_12_orca.inp
|  1> ! LooseOpt PBE RI D3BJ def2-SVP def2/J CPCM(Water)
|  2> %cpcm
|  3>  surfacetype vdw_gaussian
|  4> end
|  5> %geom Constraints
|  6> { B 2 6 0.9872432992239326 C }
|  7>     end
|  8> end
|  9> %geom MaxIter 100 end
| 10> %pal nprocs 4
| 11> end
| 12> %output 
| 13> xyzfile=True 
| 14> end 
| 15> %scf 
| 16> maxiter 250 
| 17> end
| 18> %output
| 19> Print[P_Hirshfeld] = 1
| 20> end
| 21> % maxcore
| 22> 4000
| 23> *xyz 0 2
| 24> C   -1.30334066   0.06805140  -0.04211804 
| 25> C    0.02826083  -0.60130001  -0.04713762 
| 26> C    1.29515858   0.18693223  -0.01406827 
| 27> H   -1.58090827   0.44848864   0.97479307 
| 28> H   -2.12173938  -0.61533423  -0.34962676 
| 29> H   -1.32084795   0.95838902  -0.70908459 
| 30> H    1.50210141   0.59073555   0.97396794 
| 31> H    0.07363504  -1.67506633   0.20693883 
| 32> H    1.25028159   1.06373004  -0.69808548 
| 33> H    2.17729879  -0.42472634  -0.29557909 
| 34> *
| 35> 
| 36>                          ****END OF INPUT****
================================================================================

                       *****************************
                       * Geometry Optimization Run *
                       *****************************

Geometry optimization settings:
Update method            Update   .... BFGS
Choice of coordinates    CoordSys .... Z-matrix Internals
Initial Hessian          InHess   .... Almoef's Model

Convergence Tolerances:
Energy Change            TolE     ....  3.0000e-05 Eh
Max. Gradient            TolMAXG  ....  2.0000e-03 Eh/bohr
RMS Gradient             TolRMSG  ....  5.0000e-04 Eh/bohr
Max. Displacement        TolMAXD  ....  1.0000e-02 bohr
RMS Displacement         TolRMSD  ....  7.0000e-03 bohr
Strict Convergence                ....  False
------------------------------------------------------------------------------
                        ORCA OPTIMIZATION COORDINATE SETUP
------------------------------------------------------------------------------

The optimization will be done in new redundant internal coordinates
Making redundant internal coordinates   ...  (new redundants) done
Evaluating the initial hessian          ...  (Almloef) done
Evaluating the coordinates              ...  done
Calculating the B-matrix                .... done
Calculating the G-matrix                .... done
Diagonalizing the G-matrix              .... done
Imposing constraints:
 Iter   0:  RMS(Cart)=    0.0314585822 RMS(Int)=    0.0000336103
 Iter   1:  RMS(Cart)=    0.0000055952 RMS(Int)=    0.0000000126
 Iter   2:  RMS(Cart)=    0.0000000021 RMS(Int)=    0.0000000000
CONVERGED
The first mode is                       ....   12
The number of degrees of freedom        ....   24
Storing new coordinates                 .... done

    -----------------------------------------------------------------
                    Redundant Internal Coordinates


    -----------------------------------------------------------------
         Definition                    Initial Value    Approx d2E/dq
    -----------------------------------------------------------------
      1. B(C   1,C   0)                  1.4904         0.432112   
      2. B(C   2,C   1)                  1.4925         0.428817   
      3. B(H   3,C   0)                  1.1207         0.321738   
      4. B(H   4,C   0)                  1.1097         0.335004   
      5. B(H   5,C   0)                  1.1126         0.331425   
      6. B(H   6,C   2)                  0.9872         0.363765 C 
      7. B(H   7,C   1)                  1.1044         0.341609   
      8. B(H   8,C   2)                  1.1130         0.330979   
      9. B(H   9,C   2)                  1.1098         0.334898   
     10. A(C   1,C   0,H   3)          112.1366         0.326079   
     11. A(C   1,C   0,H   5)          111.8038         0.327676   
     12. A(C   1,C   0,H   4)          112.4227         0.328257   
     13. A(H   3,C   0,H   4)          106.1324         0.282568   
     14. A(H   4,C   0,H   5)          108.3665         0.283872   
     15. A(H   3,C   0,H   5)          105.5703         0.282098   
     16. A(C   2,C   1,H   7)          118.2645         0.328901   
     17. A(C   0,C   1,H   7)          118.2035         0.329317   
     18. A(C   0,C   1,C   2)          121.4108         0.381531   
     19. A(H   8,C   2,H   9)          108.0804         0.283798   
     20. A(C   1,C   2,H   8)          111.6065         0.327190   
     21. A(H   6,C   2,H   8)          105.8880         0.287478   
     22. A(C   1,C   2,H   9)          112.2132         0.327826   
     23. A(C   1,C   2,H   6)          112.1706         0.332337   
     24. A(H   6,C   2,H   9)          106.5184         0.288008   
     25. D(C   2,C   1,C   0,H   5)     41.9230         0.013787   
     26. D(H   7,C   1,C   0,H   5)   -154.9233         0.013787   
     27. D(H   7,C   1,C   0,H   4)    -32.7689         0.013787   
     28. D(C   2,C   1,C   0,H   4)    164.0774         0.013787   
     29. D(C   2,C   1,C   0,H   3)    -76.4266         0.013787   
     30. D(H   7,C   1,C   0,H   3)     86.7272         0.013787   
     31. D(H   6,C   2,C   1,C   0)     75.5747         0.013582   
     32. D(H   6,C   2,C   1,H   7)    -87.5691         0.013582   
     33. D(H   8,C   2,C   1,C   0)    -43.0681         0.013582   
     34. D(H   8,C   2,C   1,H   7)    153.7881         0.013582   
     35. D(H   9,C   2,C   1,C   0)   -164.5548         0.013582   
     36. D(H   9,C   2,C   1,H   7)     32.3014         0.013582   
    -----------------------------------------------------------------

Number of atoms                         .... 10
Number of degrees of freedom            .... 36

         *************************************************************
         *                GEOMETRY OPTIMIZATION CYCLE   1            *
         *************************************************************
---------------------------------
CARTESIAN COORDINATES (ANGSTROEM)
---------------------------------
  C     -1.301346    0.069581   -0.039360
  C      0.031435   -0.597464   -0.038832
  C      1.296809    0.192904    0.001703
  H     -1.584592    0.447978    0.976765
  H     -2.117047   -0.614745   -0.351959
  H     -1.317097    0.960913   -0.705046
  H      1.479139    0.558401    0.900490
  H      0.077408   -1.671542    0.213820
  H      1.253796    1.070675   -0.681189
  H      2.181395   -0.416800   -0.276391

----------------------------
CARTESIAN COORDINATES (A.U.)
----------------------------
  NO LB      ZA    FRAG     MASS         X           Y           Z
   0 C     6.0000    0    12.011   -2.459188    0.131489   -0.074380
   1 C     6.0000    0    12.011    0.059404   -1.129044   -0.073382
   2 C     6.0000    0    12.011    2.450614    0.364536    0.003219
   3 H     1.0000    0     1.008   -2.994445    0.846555    1.845817
   4 H     1.0000    0     1.008   -4.000639   -1.161700   -0.665107
   5 H     1.0000    0     1.008   -2.488953    1.815862   -1.332344
   6 H     1.0000    0     1.008    2.795168    1.055225    1.701679
   7 H     1.0000    0     1.008    0.146280   -3.158757    0.404061
   8 H     1.0000    0     1.008    2.369332    2.023282   -1.287261
   9 H     1.0000    0     1.008    4.122239   -0.787637   -0.522303

--------------------------------
INTERNAL COORDINATES (ANGSTROEM)
--------------------------------
 C      0   0   0     0.000000000000     0.00000000     0.00000000
 C      1   0   0     1.490375467600     0.00000000     0.00000000
 C      2   1   0     1.492458895595   121.41020937     0.00000000
 H      1   2   3     1.120662517148   112.13656187   283.57314915
 H      1   2   3     1.109663911761   112.42218590   164.07743407
 H      1   2   3     1.112587956797   111.80450937    41.92267817
 H      3   2   1     1.087243306902   112.20116466    75.58369943
 H      2   1   3     1.104349478808   118.20406431   163.15382297
 H      3   2   1     1.112954575636   111.60654877   316.93247051
 H      3   2   1     1.109750376495   112.21276694   195.44503824

---------------------------
INTERNAL COORDINATES (A.U.)
---------------------------
 C      0   0   0     0.000000000000     0.00000000     0.00000000
 C      1   0   0     2.816401470478     0.00000000     0.00000000
 C      2   1   0     2.820338578809   121.41020937     0.00000000
 H      1   2   3     2.117745245961   112.13656187   283.57314915
 H      1   2   3     2.096960893924   112.42218590   164.07743407
 H      1   2   3     2.102486538245   111.80450937    41.92267817
 H      3   2   1     2.054592090983   112.20116466    75.58369943
 H      2   1   3     2.086918071086   118.20406431   163.15382297
 H      3   2   1     2.103179347446   111.60654877   316.93247051
 H      3   2   1     2.097124288591   112.21276694   195.44503824

---------------------
BASIS SET INFORMATION
---------------------
There are 2 groups of distinct atoms

 Group   1 Type C   : 7s4p1d contracted to 3s2p1d pattern {511/31/1}
 Group   2 Type H   : 4s1p contracted to 2s1p pattern {31/1}

Atom   0C    basis set group =>   1
Atom   1C    basis set group =>   1
Atom   2C    basis set group =>   1
Atom   3H    basis set group =>   2
Atom   4H    basis set group =>   2
Atom   5H    basis set group =>   2
Atom   6H    basis set group =>   2
Atom   7H    basis set group =>   2
Atom   8H    basis set group =>   2
Atom   9H    basis set group =>   2
---------------------------------
AUXILIARY/J BASIS SET INFORMATION
---------------------------------
There are 2 groups of distinct atoms

 Group   1 Type C   : 12s5p4d2f1g contracted to 6s4p3d1f1g pattern {711111/2111/211/2/1}
 Group   2 Type H   : 5s2p1d contracted to 3s1p1d pattern {311/2/1}

Atom   0C    basis set group =>   1
Atom   1C    basis set group =>   1
Atom   2C    basis set group =>   1
Atom   3H    basis set group =>   2
Atom   4H    basis set group =>   2
Atom   5H    basis set group =>   2
Atom   6H    basis set group =>   2
Atom   7H    basis set group =>   2
Atom   8H    basis set group =>   2
Atom   9H    basis set group =>   2
[1589382987.631606] [ty2019:17621:0]            sys.c:618  UCX  ERROR shmget(size=2097152 flags=0xfb0) for mm_recv_desc failed: Operation not permitted, please check shared memory limits by 'ipcs -l'
[1589382987.636649] [ty2019:17618:0]            sys.c:618  UCX  ERROR shmget(size=2097152 flags=0xfb0) for mm_recv_desc failed: Operation not permitted, please check shared memory limits by 'ipcs -l'
[1589382987.637186] [ty2019:17619:0]            sys.c:618  UCX  ERROR shmget(size=2097152 flags=0xfb0) for mm_recv_desc failed: Operation not permitted, please check shared memory limits by 'ipcs -l'
[1589382987.638011] [ty2019:17620:0]            sys.c:618  UCX  ERROR shmget(size=2097152 flags=0xfb0) for mm_recv_desc failed: Operation not permitted, please check shared memory limits by 'ipcs -l'
[1589382987.644305] [ty2019:17618:0]            sys.c:618  UCX  ERROR shmget(size=2097152 flags=0xb80) for ucp_am_bufs failed: Operation not permitted, please check shared memory limits by 'ipcs -l'
[1589382987.644323] [ty2019:17620:0]            sys.c:618  UCX  ERROR shmget(size=2097152 flags=0xb80) for ucp_am_bufs failed: Operation not permitted, please check shared memory limits by 'ipcs -l'
[1589382987.650443] [ty2019:17621:0]            sys.c:618  UCX  ERROR shmget(size=2097152 flags=0xb80) for ucp_am_bufs failed: Operation not permitted, please check shared memory limits by 'ipcs -l'
[1589382987.650440] [ty2019:17619:0]            sys.c:618  UCX  ERROR shmget(size=2097152 flags=0xb80) for ucp_am_bufs failed: Operation not permitted, please check shared memory limits by 'ipcs -l'


           ************************************************************
           *        Program running with 4 parallel MPI-processes     *
           *              working on a common directory               *
           ************************************************************
------------------------------------------------------------------------------
                           ORCA GTO INTEGRAL CALCULATION
                           -- RI-GTO INTEGRALS CHOSEN --
------------------------------------------------------------------------------

                         BASIS SET STATISTICS AND STARTUP INFO

Gaussian basis set:
 # of primitive gaussian shells          ...   71
 # of primitive gaussian functions       ...  121
 # of contracted shells                  ...   39
 # of contracted basis functions         ...   77
 Highest angular momentum                ...    2
 Maximum contraction depth               ...    5
Auxiliary gaussian basis set:
 # of primitive gaussian shells          ...  128
 # of primitive gaussian functions       ...  322
 # of contracted shells                  ...   80
 # of contracted aux-basis functions     ...  224
 Highest angular momentum                ...    4
 Maximum contraction depth               ...    7
Ratio of auxiliary to basis functions    ...  2.91
Integral package used                  ... LIBINT
 One Electron integrals                  ... done
 Ordering auxiliary basis shells         ... done
 Integral threshhold             Thresh  ...  2.500e-11
 Primitive cut-off               TCut    ...  2.500e-12
 Pre-screening matrix                    ... done
 Shell pair data                         ... 
 Ordering of the shell pairs             ... done (   0.000 sec) 777 of 780 pairs
 Determination of significant pairs      ... done (   0.000 sec)
 Creation of shell pair data             ... done (   0.000 sec)
 Storage of shell pair data              ... done (   0.031 sec)
 Shell pair data done in (   0.031 sec)
 Computing two index integrals           ... done
 Cholesky decomposition of the V-matrix  ... done


Timings:
 Total evaluation time                   ...   0.132 sec (  0.002 min)
 One electron matrix time                ...   0.015 sec (  0.000 min) = 11.4%
 Schwartz matrix evaluation time         ...   0.068 sec (  0.001 min) = 51.7%
 Two index repulsion integral time       ...   0.001 sec (  0.000 min) =  1.1%
 Cholesky decomposition of V             ...   0.001 sec (  0.000 min) =  0.7%
 Three index repulsion integral time     ...   0.000 sec (  0.000 min) =  0.0%

[1589382988.681006] [ty2019:17642:0]            sys.c:618  UCX  ERROR shmget(size=2097152 flags=0xfb0) for mm_recv_desc failed: Operation not permitted, please check shared memory limits by 'ipcs -l'
[1589382988.683447] [ty2019:17641:0]            sys.c:618  UCX  ERROR shmget(size=2097152 flags=0xfb0) for mm_recv_desc failed: Operation not permitted, please check shared memory limits by 'ipcs -l'
[1589382988.684998] [ty2019:17643:0]            sys.c:618  UCX  ERROR shmget(size=2097152 flags=0xfb0) for mm_recv_desc failed: Operation not permitted, please check shared memory limits by 'ipcs -l'
[1589382988.687679] [ty2019:17640:0]            sys.c:618  UCX  ERROR shmget(size=2097152 flags=0xfb0) for mm_recv_desc failed: Operation not permitted, please check shared memory limits by 'ipcs -l'
[1589382988.694340] [ty2019:17640:0]            sys.c:618  UCX  ERROR shmget(size=2097152 flags=0xb80) for ucp_am_bufs failed: Operation not permitted, please check shared memory limits by 'ipcs -l'
[1589382988.694369] [ty2019:17642:0]            sys.c:618  UCX  ERROR shmget(size=2097152 flags=0xb80) for ucp_am_bufs failed: Operation not permitted, please check shared memory limits by 'ipcs -l'


           ************************************************************
           *        Program running with 4 parallel MPI-processes     *
           *              working on a common directory               *
           ************************************************************
[1589382988.697394] [ty2019:17641:0]            sys.c:618  UCX  ERROR shmget(size=2097152 flags=0xb80) for ucp_am_bufs failed: Operation not permitted, please check shared memory limits by 'ipcs -l'
-------------------------------------------------------------------------------
                                 ORCA SCF
-------------------------------------------------------------------------------

------------
SCF SETTINGS
------------
Hamiltonian:
 Density Functional     Method          .... DFT(GTOs)
 Exchange Functional    Exchange        .... PBE
   PBE kappa parameter   XKappa         ....  0.804000
   PBE mue parameter    XMuePBE         ....  0.219520
 Correlation Functional Correlation     .... PBE
   PBE beta parameter  CBetaPBE         ....  0.066725
 LDA part of GGA corr.  LDAOpt          .... PW91-LDA
 Gradients option       PostSCFGGA      .... off
   Density functional embedding theory  .... OFF
   NL short-range parameter             ....  6.400000
 RI-approximation to the Coulomb term is turned on
   Number of auxiliary basis functions  .... 224


General Settings:
 Integral files         IntName         .... m-mfaV_2-6_hl1d_fbond_scan_12_orca
 Hartree-Fock type      HFTyp           .... UHF
 Total Charge           Charge          ....    0
 Multiplicity           Mult            ....    2
 Number of Electrons    NEL             ....   25
 Basis Dimension        Dim             ....   77
 Nuclear Repulsion      ENuc            ....     75.3935808121 Eh

Convergence Acceleration:
 DIIS                   CNVDIIS         .... on
   Start iteration      DIISMaxIt       ....    12
   Startup error        DIISStart       ....  0.200000
   # of expansion vecs  DIISMaxEq       ....     5
   Bias factor          DIISBfac        ....   1.050
   Max. coefficient     DIISMaxC        ....  10.000
 Newton-Raphson         CNVNR           .... off
 SOSCF                  CNVSOSCF        .... off
 Level Shifting         CNVShift        .... on
   Level shift para.    LevelShift      ....    0.2500
   Turn off err/grad.   ShiftErr        ....    0.0010
 Zerner damping         CNVZerner       .... off
 Static damping         CNVDamp         .... on
   Fraction old density DampFac         ....    0.7000
   Max. Damping (<1)    DampMax         ....    0.9800
   Min. Damping (>=0)   DampMin         ....    0.0000
   Turn off err/grad.   DampErr         ....    0.1000
 Fernandez-Rico         CNVRico         .... off

SCF Procedure:
 Maximum # iterations   MaxIter         ....   250
 SCF integral mode      SCFMode         .... Direct
   Integral package                     .... LIBINT
 Reset frequency        DirectResetFreq ....    20
 Integral Threshold     Thresh          ....  2.500e-11 Eh
 Primitive CutOff       TCut            ....  2.500e-12 Eh

Convergence Tolerance:
 Convergence Check Mode ConvCheckMode   .... Total+1el-Energy
 Convergence forced     ConvForced      .... 0
 Energy Change          TolE            ....  1.000e-08 Eh
 1-El. energy change                    ....  1.000e-05 Eh
 DIIS Error             TolErr          ....  5.000e-07


Diagonalization of the overlap matrix:
[1589382988.699068] [ty2019:17643:0]            sys.c:618  UCX  ERROR shmget(size=2097152 flags=0xb80) for ucp_am_bufs failed: Operation not permitted, please check shared memory limits by 'ipcs -l'
Smallest eigenvalue                        ... 3.988e-03
Time for diagonalization                   ...    0.002 sec
Threshold for overlap eigenvalues          ... 1.000e-08
Number of eigenvalues below threshold      ... 0
Time for construction of square roots      ...    0.001 sec
Total time needed                          ...    0.003 sec

-------------------
DFT GRID GENERATION
-------------------

General Integration Accuracy     IntAcc      ...  4.340
Radial Grid Type                 RadialGrid  ... Gauss-Chebyshev
Angular Grid (max. acc.)         AngularGrid ... Lebedev-110
Angular grid pruning method      GridPruning ... 3 (G Style)
Weight generation scheme         WeightScheme... Becke
Basis function cutoff            BFCut       ...    1.0000e-11
Integration weight cutoff        WCut        ...    1.0000e-14
Grids for H and He will be reduced by one unit

# of grid points (after initial pruning)     ...  10526 (   0.0 sec)
# of grid points (after weights+screening)   ...  10040 (   0.0 sec)
nearest neighbour list constructed           ...    0.0 sec
Grid point re-assignment to atoms done       ...    0.0 sec
Grid point division into batches done        ...    0.0 sec
Reduced shell lists constructed in    0.0 sec

Total number of grid points                  ...    10040
Total number of batches                      ...      162
Average number of points per batch           ...       61
Average number of grid points per atom       ...     1004
Average number of shells per batch           ...    35.69 (91.51%)
Average number of basis functions per batch  ...    70.40 (91.43%)
Average number of large shells per batch     ...    33.02 (92.53%)
Average number of large basis fcns per batch ...    64.60 (91.75%)
Maximum spatial batch extension              ...  18.80, 19.45, 14.79 au
Average spatial batch extension              ...   0.68,  0.68,  0.66 au

Time for grid setup =    0.030 sec

------------------------------
INITIAL GUESS: MODEL POTENTIAL
------------------------------
Loading Hartree-Fock densities                     ... done
Calculating cut-offs                               ... done
Setting up the integral package                    ... done
Initializing the effective Hamiltonian             ... done
Starting the Coulomb interaction                   ... done (   0.0 sec)
Reading the grid                                   ... done
Mapping shells                                     ... done
Starting the XC term evaluation                    ... done (   0.0 sec)
  promolecular density results
     # of electrons  =     24.995715509
     EX              =    -17.358661386
     EC              =     -0.780324452
     EX+EC           =    -18.138985838
Transforming the Hamiltonian                       ... done (   0.0 sec)
Diagonalizing the Hamiltonian                      ... done (   0.0 sec)
Back transforming the eigenvectors                 ... done (   0.0 sec)
Now organizing SCF variables                       ... done
                      ------------------
                      INITIAL GUESS DONE (   0.1 sec)
                      ------------------

--------------------
CPCM SOLVATION MODEL
--------------------
CPCM parameters:
  Epsilon                                         ...      80.4000
  Refrac                                          ...       1.3300
  Rsolv                                           ...       1.3000
  Surface type                                    ... GAUSSIAN VDW
  Epsilon function type                           ...         CPCM
Radii:
 Radius for C  used is    3.8550 Bohr (=   2.0400 Ang.)
 Radius for H  used is    2.4944 Bohr (=   1.3200 Ang.)
Calculating surface                               ...        done! (  0.0s)
GEPOL surface points                              ...          618
GEPOL Volume                                      ...     534.6912
GEPOL Surface-area                                ...     351.8045
Calculating surface distance matrix               ...        done! (  0.0s)
Performing Cholesky decomposition & store         ...        done! (  0.0s)
Overall time for CPCM initialization              ...                 0.0s
--------------
SCF ITERATIONS
--------------
ITER       Energy         Delta-E        Max-DP      RMS-DP      [F,P]     Damp
               ***  Starting incremental Fock matrix formation  ***
  0   -118.0936178997   0.000000000000 0.03874495  0.00164278  0.1683955 0.7000
  1   -118.1456391044  -0.052021204690 0.02246805  0.00119934  0.0819881 0.7000
                               ***Turning on DIIS***
  2   -118.1647480147  -0.019108910315 0.02677282  0.00200146  0.0245563 0.0000
  3   -118.1900765080  -0.025328493293 0.01623458  0.00078022  0.0518596 0.0000
  4   -118.1997522383  -0.009675730354 0.00456746  0.00026478  0.0114839 0.0000
  5   -118.2003304629  -0.000578224595 0.00176234  0.00010675  0.0026752 0.0000
  6   -118.2003803920  -0.000049929066 0.00130473  0.00007334  0.0007278 0.0000
  7   -118.2003861619  -0.000005769934 0.00023490  0.00000857  0.0003691 0.0000
  8   -118.2003867014  -0.000000539463 0.00009958  0.00000314  0.0001526 0.0000
  9   -118.2003867824  -0.000000081003 0.00003029  0.00000110  0.0000147 0.0000
 10   -118.2003867886  -0.000000006218 0.00001391  0.00000036  0.0000119 0.0000
 11   -118.2003867902  -0.000000001549 0.00000540  0.00000018  0.0000024 0.0000
                 **** Energy Check signals convergence ****

               *****************************************************
               *                     SUCCESS                       *
               *           SCF CONVERGED AFTER  12 CYCLES          *
               *****************************************************

Setting up the final grid:

General Integration Accuracy     IntAcc      ...  4.670
Radial Grid Type                 RadialGrid  ... Gauss-Chebyshev
Angular Grid (max. acc.)         AngularGrid ... Lebedev-302
Angular grid pruning method      GridPruning ... 3 (G Style)
Weight generation scheme         WeightScheme... Becke
Basis function cutoff            BFCut       ...    1.0000e-11
Integration weight cutoff        WCut        ...    1.0000e-14
Grids for H and He will be reduced by one unit

# of grid points (after initial pruning)     ...  42394 (   0.0 sec)
# of grid points (after weights+screening)   ...  40004 (   0.0 sec)
nearest neighbour list constructed           ...    0.0 sec
Grid point re-assignment to atoms done       ...    0.0 sec
Grid point division into batches done        ...    0.1 sec
Reduced shell lists constructed in    0.1 sec

Total number of grid points                  ...    40004
Total number of batches                      ...      630
Average number of points per batch           ...       63
Average number of grid points per atom       ...     4000
Average number of shells per batch           ...    34.77 (89.15%)
Average number of basis functions per batch  ...    68.65 (89.16%)
Average number of large shells per batch     ...    31.18 (89.67%)
Average number of large basis fcns per batch ...    60.81 (88.58%)
Maximum spatial batch extension              ...  17.70, 17.87, 15.82 au
Average spatial batch extension              ...   0.45,  0.49,  0.45 au

Final grid set up in    0.1 sec
Final integration                            ... done (   0.1 sec)
Change in XC energy                          ...     0.000214187
Integrated number of electrons               ...    24.999931756
Previous integrated no of electrons          ...    25.000486815

----------------
TOTAL SCF ENERGY
----------------

Total Energy       :         -118.20017260 Eh           -3216.39021 eV

Components:
Nuclear Repulsion  :           75.39358081 Eh            2051.56363 eV
Electronic Energy  :         -193.59375341 Eh           -5267.95385 eV
One Electron Energy:         -306.64982806 Eh           -8344.36604 eV
Two Electron Energy:          113.05607464 Eh            3076.41219 eV
CPCM Dielectric    :           -0.00113828 Eh              -0.03097 eV

Virial components:
Potential Energy   :         -235.03102340 Eh           -6395.51929 eV
Kinetic Energy     :          116.83085080 Eh            3179.12907 eV
Virial Ratio       :            2.01172055


DFT components:
N(Alpha)           :       12.999961668829 electrons
N(Beta)            :       11.999970087219 electrons
N(Total)           :       24.999931756048 electrons
E(X)               :      -17.870685771157 Eh       
E(C)               :       -0.791525880630 Eh       
E(XC)              :      -18.662211651787 Eh       
DFET-embed. en.    :        0.000000000000 Eh       
CPCM Solvation Model Properties:
Surface-charge          :           -0.01983898
Charge-correction       :            0.00001176 Eh               0.00032 eV
Free-energy (cav+disp)  :            0.00316705 Eh               0.08618 eV
Corrected G(solv)       :         -118.19699380 Eh           -3216.30371 eV

---------------
SCF CONVERGENCE
---------------

  Last Energy change         ...    4.8165e-10  Tolerance :   1.0000e-08
  Last MAX-Density change    ...    2.5485e-06  Tolerance :   1.0000e-07
  Last RMS-Density change    ...    9.1781e-08  Tolerance :   5.0000e-09
  Last DIIS Error            ...    7.6500e-07  Tolerance :   5.0000e-07

             **** THE GBW FILE WAS UPDATED (m-mfaV_2-6_hl1d_fbond_scan_12_orca.gbw) ****
             **** DENSITY FILE WAS UPDATED (m-mfaV_2-6_hl1d_fbond_scan_12_orca.scfp) ****
             **** ENERGY FILE WAS UPDATED (m-mfaV_2-6_hl1d_fbond_scan_12_orca.en.tmp) ****
----------------------
UHF SPIN CONTAMINATION
----------------------

Warning: in a DFT calculation there is little theoretical justification to 
         calculate <S**2> as in Hartree-Fock theory. We will do it anyways
         but you should keep in mind that the values have only limited relevance

Expectation value of <S**2>     :     0.753280
Ideal value S*(S+1) for S=0.5   :     0.750000
Deviation                       :     0.003280

             **** THE GBW FILE WAS UPDATED (m-mfaV_2-6_hl1d_fbond_scan_12_orca.gbw) ****
             **** DENSITY FILE WAS UPDATED (m-mfaV_2-6_hl1d_fbond_scan_12_orca.scfp) ****
----------------
ORBITAL ENERGIES
----------------
                 SPIN UP ORBITALS
  NO   OCC          E(Eh)            E(eV) 
   0   1.0000      -9.897041      -269.3122 
   1   1.0000      -9.889033      -269.0943 
   2   1.0000      -9.876626      -268.7567 
   3   1.0000      -0.696912       -18.9639 
   4   1.0000      -0.614551       -16.7228 
   5   1.0000      -0.499807       -13.6004 
   6   1.0000      -0.396739       -10.7958 
   7   1.0000      -0.378780       -10.3071 
   8   1.0000      -0.357857        -9.7378 
   9   1.0000      -0.335752        -9.1363 
  10   1.0000      -0.306218        -8.3326 
  11   1.0000      -0.296263        -8.0617 
  12   1.0000      -0.143922        -3.9163 
  13   0.0000       0.050019         1.3611 
  14   0.0000       0.075535         2.0554 
  15   0.0000       0.087586         2.3833 
  16   0.0000       0.113375         3.0851 
  17   0.0000       0.126757         3.4492 
  18   0.0000       0.134463         3.6589 
  19   0.0000       0.144587         3.9344 
  20   0.0000       0.208651         5.6777 
  21   0.0000       0.249258         6.7827 
  22   0.0000       0.359895         9.7932 
  23   0.0000       0.396828        10.7982 
  24   0.0000       0.414929        11.2908 
  25   0.0000       0.430424        11.7124 
  26   0.0000       0.444448        12.0940 
  27   0.0000       0.493505        13.4290 
  28   0.0000       0.575587        15.6625 
  29   0.0000       0.579701        15.7745 
  30   0.0000       0.596960        16.2441 
  31   0.0000       0.610642        16.6164 
  32   0.0000       0.614308        16.7162 
  33   0.0000       0.631894        17.1947 
  34   0.0000       0.639655        17.4059 
  35   0.0000       0.647265        17.6130 
  36   0.0000       0.666697        18.1418 
  37   0.0000       0.685364        18.6497 
  38   0.0000       0.692868        18.8539 
  39   0.0000       0.814562        22.1654 
  40   0.0000       0.923001        25.1161 
  41   0.0000       1.084179        29.5020 
  42   0.0000       1.101900        29.9842 
  43   0.0000       1.219352        33.1803 
  44   0.0000       1.362569        37.0774 
  45   0.0000       1.454527        39.5797 
  46   0.0000       1.473229        40.0886 
  47   0.0000       1.503154        40.9029 
  48   0.0000       1.521586        41.4045 
  49   0.0000       1.624331        44.2003 
  50   0.0000       1.635976        44.5172 
  51   0.0000       1.689542        45.9748 
  52   0.0000       1.703798        46.3627 
  53   0.0000       1.728706        47.0405 
  54   0.0000       1.737927        47.2914 
  55   0.0000       1.781022        48.4641 
  56   0.0000       1.823256        49.6133 
  57   0.0000       1.836546        49.9749 
  58   0.0000       1.873755        50.9875 
  59   0.0000       1.923914        52.3524 
  60   0.0000       2.041394        55.5492 
  61   0.0000       2.111169        57.4478 
  62   0.0000       2.130815        57.9824 
  63   0.0000       2.175983        59.2115 
  64   0.0000       2.319061        63.1049 
  65   0.0000       2.332018        63.4574 
  66   0.0000       2.418806        65.8191 
  67   0.0000       2.486620        67.6644 
  68   0.0000       2.505387        68.1750 
  69   0.0000       2.542359        69.1811 
  70   0.0000       2.650029        72.1109 
  71   0.0000       2.766529        75.2811 
  72   0.0000       2.820554        76.7512 
  73   0.0000       2.843828        77.3845 
  74   0.0000       2.891013        78.6685 
  75   0.0000       2.989806        81.3568 
  76   0.0000       3.071829        83.5887 

                 SPIN DOWN ORBITALS
  NO   OCC          E(Eh)            E(eV) 
   0   1.0000      -9.889848      -269.1164 
   1   1.0000      -9.883658      -268.9480 
   2   1.0000      -9.877261      -268.7739 
   3   1.0000      -0.682659       -18.5761 
   4   1.0000      -0.611860       -16.6495 
   5   1.0000      -0.482482       -13.1290 
   6   1.0000      -0.391302       -10.6479 
   7   1.0000      -0.367076        -9.9887 
   8   1.0000      -0.351486        -9.5644 
   9   1.0000      -0.331430        -9.0187 
  10   1.0000      -0.302876        -8.2417 
  11   1.0000      -0.291512        -7.9324 
  12   0.0000      -0.065030        -1.7696 
  13   0.0000       0.053167         1.4467 
  14   0.0000       0.079539         2.1644 
  15   0.0000       0.090567         2.4645 
  16   0.0000       0.120542         3.2801 
  17   0.0000       0.134464         3.6590 
  18   0.0000       0.136429         3.7124 
  19   0.0000       0.149346         4.0639 
  20   0.0000       0.221781         6.0350 
  21   0.0000       0.256318         6.9748 
  22   0.0000       0.363459         9.8902 
  23   0.0000       0.400751        10.9050 
  24   0.0000       0.432611        11.7719 
  25   0.0000       0.439192        11.9510 
  26   0.0000       0.463175        12.6036 
  27   0.0000       0.540493        14.7076 
  28   0.0000       0.582544        15.8518 
  29   0.0000       0.594052        16.1650 
  30   0.0000       0.601734        16.3740 
  31   0.0000       0.618798        16.8383 
  32   0.0000       0.626572        17.0499 
  33   0.0000       0.639724        17.4078 
  34   0.0000       0.641328        17.4514 
  35   0.0000       0.654015        17.7967 
  36   0.0000       0.671421        18.2703 
  37   0.0000       0.692012        18.8306 
  38   0.0000       0.698431        19.0053 
  39   0.0000       0.823928        22.4202 
  40   0.0000       0.927265        25.2322 
  41   0.0000       1.092369        29.7249 
  42   0.0000       1.116491        30.3813 
  43   0.0000       1.220190        33.2031 
  44   0.0000       1.371241        37.3134 
  45   0.0000       1.470077        40.0028 
  46   0.0000       1.479894        40.2700 
  47   0.0000       1.507776        41.0287 
  48   0.0000       1.544459        42.0269 
  49   0.0000       1.630077        44.3566 
  50   0.0000       1.644497        44.7490 
  51   0.0000       1.702049        46.3151 
  52   0.0000       1.719785        46.7977 
  53   0.0000       1.741817        47.3973 
  54   0.0000       1.751541        47.6619 
  55   0.0000       1.790229        48.7146 
  56   0.0000       1.825529        49.6752 
  57   0.0000       1.838553        50.0296 
  58   0.0000       1.887625        51.3649 
  59   0.0000       1.948790        53.0293 
  60   0.0000       2.065163        56.1959 
  61   0.0000       2.128635        57.9231 
  62   0.0000       2.153519        58.6002 
  63   0.0000       2.182366        59.3852 
  64   0.0000       2.323392        63.2227 
  65   0.0000       2.338993        63.6472 
  66   0.0000       2.429190        66.1016 
  67   0.0000       2.503083        68.1124 
  68   0.0000       2.513802        68.4040 
  69   0.0000       2.551357        69.4260 
  70   0.0000       2.662005        72.4368 
  71   0.0000       2.771971        75.4292 
  72   0.0000       2.825129        76.8757 
  73   0.0000       2.848729        77.5178 
  74   0.0000       2.896086        78.8065 
  75   0.0000       2.996745        81.5456 
  76   0.0000       3.078610        83.7732 

                    ********************************
                    * MULLIKEN POPULATION ANALYSIS *
                    ********************************

--------------------------------------------
MULLIKEN ATOMIC CHARGES AND SPIN POPULATIONS
--------------------------------------------
   0 C :   -0.034750   -0.083669
   1 C :   -0.221246    1.022243
   2 C :    0.036307   -0.072991
   3 H :    0.041679    0.071602
   4 H :    0.039662    0.010887
   5 H :    0.036734    0.020011
   6 H :    0.004056    0.044390
   7 H :    0.036354   -0.045844
   8 H :    0.030319    0.022485
   9 H :    0.030885    0.010888
Sum of atomic charges         :    0.0000000
Sum of atomic spin populations:    1.0000000

-----------------------------------------------------
MULLIKEN REDUCED ORBITAL CHARGES AND SPIN POPULATIONS
-----------------------------------------------------
CHARGE
  0 C s       :     3.016293  s :     3.016293
      pz      :     1.014043  p :     2.992709
      px      :     0.980195
      py      :     0.998471
      dz2     :     0.004177  d :     0.025748
      dxz     :     0.004730
      dyz     :     0.005813
      dx2y2   :     0.004714
      dxy     :     0.006313
  1 C s       :     3.224071  s :     3.224071
      pz      :     1.031361  p :     2.967794
      px      :     0.967278
      py      :     0.969155
      dz2     :     0.002564  d :     0.029382
      dxz     :     0.004977
      dyz     :     0.002804
      dx2y2   :     0.010485
      dxy     :     0.008551
  2 C s       :     2.937120  s :     2.937120
      pz      :     1.023401  p :     2.998953
      px      :     0.980961
      py      :     0.994590
      dz2     :     0.005719  d :     0.027620
      dxz     :     0.003992
      dyz     :     0.007063
      dx2y2   :     0.004867
      dxy     :     0.005979
  3 H s       :     0.935029  s :     0.935029
      pz      :     0.011809  p :     0.023292
      px      :     0.005231
      py      :     0.006251
  4 H s       :     0.937556  s :     0.937556
      pz      :     0.005956  p :     0.022782
      px      :     0.008863
      py      :     0.007964
  5 H s       :     0.940405  s :     0.940405
      pz      :     0.008400  p :     0.022861
      px      :     0.004337
      py      :     0.010124
  6 H s       :     0.965075  s :     0.965075
      pz      :     0.014766  p :     0.030869
      px      :     0.007275
      py      :     0.008827
  7 H s       :     0.941612  s :     0.941612
      pz      :     0.005907  p :     0.022034
      px      :     0.003320
      py      :     0.012807
  8 H s       :     0.946379  s :     0.946379
      pz      :     0.009102  p :     0.023302
      px      :     0.004448
      py      :     0.009752
  9 H s       :     0.945873  s :     0.945873
      pz      :     0.006142  p :     0.023241
      px      :     0.009685
      py      :     0.007414

SPIN
  0 C s       :    -0.026170  s :    -0.026170
      pz      :    -0.020640  p :    -0.064510
      px      :    -0.029950
      py      :    -0.013919
      dz2     :     0.000394  d :     0.007011
      dxz     :     0.004099
      dyz     :     0.002230
      dx2y2   :     0.000010
      dxy     :     0.000278
  1 C s       :     0.111507  s :     0.111507
      pz      :     0.826063  p :     0.912706
      px      :     0.031530
      py      :     0.055113
      dz2     :    -0.002089  d :    -0.001970
      dxz     :     0.000263
      dyz     :    -0.000160
      dx2y2   :     0.000148
      dxy     :    -0.000133
  2 C s       :    -0.024992  s :    -0.024992
      pz      :    -0.012593  p :    -0.055201
      px      :    -0.027156
      py      :    -0.015452
      dz2     :     0.000589  d :     0.007202
      dxz     :     0.003328
      dyz     :     0.003038
      dx2y2   :     0.000061
      dxy     :     0.000186
  3 H s       :     0.071818  s :     0.071818
      pz      :    -0.000212  p :    -0.000216
      px      :     0.000023
      py      :    -0.000028
  4 H s       :     0.011059  s :     0.011059
      pz      :    -0.000011  p :    -0.000172
      px      :    -0.000143
      py      :    -0.000017
  5 H s       :     0.020260  s :     0.020260
      pz      :    -0.000067  p :    -0.000249
      px      :    -0.000053
      py      :    -0.000129
  6 H s       :     0.044453  s :     0.044453
      pz      :    -0.000116  p :    -0.000063
      px      :     0.000073
      py      :    -0.000020
  7 H s       :    -0.050839  s :    -0.050839
      pz      :     0.004704  p :     0.004995
      px      :    -0.000175
      py      :     0.000467
  8 H s       :     0.022708  s :     0.022708
      pz      :    -0.000056  p :    -0.000223
      px      :    -0.000023
      py      :    -0.000144
  9 H s       :     0.011034  s :     0.011034
      pz      :     0.000017  p :    -0.000147
      px      :    -0.000132
      py      :    -0.000032


                     *******************************
                     * LOEWDIN POPULATION ANALYSIS *
                     *******************************

-------------------------------------------
LOEWDIN ATOMIC CHARGES AND SPIN POPULATIONS
-------------------------------------------
   0 C :   -0.091085   -0.011194
   1 C :   -0.054055    0.858782
   2 C :   -0.071609   -0.003280
   3 H :    0.038554    0.061772
   4 H :    0.036742    0.009240
   5 H :    0.034651    0.017062
   6 H :    0.012757    0.039433
   7 H :    0.017095    0.000415
   8 H :    0.037775    0.018758
   9 H :    0.039174    0.009012

----------------------------------------------------
LOEWDIN REDUCED ORBITAL CHARGES AND SPIN POPULATIONS
----------------------------------------------------
CHARGE
  0 C s       :     2.850873  s :     2.850873
      pz      :     1.062364  p :     3.167640
      px      :     1.043624
      py      :     1.061653
      dz2     :     0.012601  d :     0.072571
      dxz     :     0.011936
      dyz     :     0.016819
      dx2y2   :     0.012646
      dxy     :     0.018570
  1 C s       :     2.916631  s :     2.916631
      pz      :     0.994708  p :     3.066280
      px      :     1.024957
      py      :     1.046615
      dz2     :     0.005083  d :     0.071144
      dxz     :     0.008913
      dyz     :     0.005163
      dx2y2   :     0.027922
      dxy     :     0.024063
  2 C s       :     2.812784  s :     2.812784
      pz      :     1.086672  p :     3.181243
      px      :     1.038009
      py      :     1.056562
      dz2     :     0.016210  d :     0.077582
      dxz     :     0.009970
      dyz     :     0.020255
      dx2y2   :     0.012154
      dxy     :     0.018994
  3 H s       :     0.897384  s :     0.897384
      pz      :     0.034325  p :     0.064062
      px      :     0.014282
      py      :     0.015456
  4 H s       :     0.899649  s :     0.899649
      pz      :     0.014495  p :     0.063609
      px      :     0.026748
      py      :     0.022365
  5 H s       :     0.901907  s :     0.901907
      pz      :     0.022131  p :     0.063442
      px      :     0.011588
      py      :     0.029723
  6 H s       :     0.896567  s :     0.896567
      pz      :     0.042724  p :     0.090676
      px      :     0.022666
      py      :     0.025286
  7 H s       :     0.910373  s :     0.910373
      pz      :     0.022134  p :     0.072531
      px      :     0.010842
      py      :     0.039555
  8 H s       :     0.899658  s :     0.899658
      pz      :     0.022338  p :     0.062566
      px      :     0.011671
      py      :     0.028558
  9 H s       :     0.898179  s :     0.898179
      pz      :     0.014112  p :     0.062647
      px      :     0.028712
      py      :     0.019824

SPIN
  0 C s       :    -0.005090  s :    -0.005090
      pz      :    -0.006485  p :    -0.024826
      px      :    -0.012860
      py      :    -0.005481
      dz2     :     0.001496  d :     0.018723
      dxz     :     0.009830
      dyz     :     0.005844
      dx2y2   :     0.000359
      dxy     :     0.001194
  1 C s       :     0.035653  s :     0.035653
      pz      :     0.775334  p :     0.826197
      px      :     0.016563
      py      :     0.034300
      dz2     :    -0.001689  d :    -0.003068
      dxz     :     0.000124
      dyz     :    -0.000027
      dx2y2   :    -0.000670
      dxy     :    -0.000805
  2 C s       :    -0.004659  s :    -0.004659
      pz      :     0.000256  p :    -0.017029
      px      :    -0.011538
      py      :    -0.005747
      dz2     :     0.001758  d :     0.018408
      dxz     :     0.007722
      dyz     :     0.007542
      dx2y2   :     0.000370
      dxy     :     0.001016
  3 H s       :     0.062250  s :     0.062250
      pz      :    -0.000694  p :    -0.000478
      px      :     0.000204
      py      :     0.000011
  4 H s       :     0.009985  s :     0.009985
      pz      :    -0.000114  p :    -0.000745
      px      :    -0.000423
      py      :    -0.000208
  5 H s       :     0.017802  s :     0.017802
      pz      :    -0.000055  p :    -0.000740
      px      :    -0.000251
      py      :    -0.000434
  6 H s       :     0.039695  s :     0.039695
      pz      :    -0.000357  p :    -0.000262
      px      :     0.000102
      py      :    -0.000006
  7 H s       :    -0.021935  s :    -0.021935
      pz      :     0.018870  p :     0.022350
      px      :     0.000293
      py      :     0.003187
  8 H s       :     0.019308  s :     0.019308
      pz      :     0.000090  p :    -0.000550
      px      :    -0.000207
      py      :    -0.000433
  9 H s       :     0.009556  s :     0.009556
      pz      :     0.000054  p :    -0.000544
      px      :    -0.000377
      py      :    -0.000221


                      *****************************
                      * MAYER POPULATION ANALYSIS *
                      *****************************

  NA   - Mulliken gross atomic population
  ZA   - Total nuclear charge
  QA   - Mulliken gross atomic charge
  VA   - Mayer's total valence
  BVA  - Mayer's bonded valence
  FA   - Mayer's free valence

  ATOM       NA         ZA         QA         VA         BVA        FA
  0 C      6.0348     6.0000    -0.0348     3.9664     3.9632     0.0033
  1 C      6.2212     6.0000    -0.2212     4.0804     3.3269     0.7534
  2 C      5.9637     6.0000     0.0363     3.9585     3.9555     0.0030
  3 H      0.9583     1.0000     0.0417     0.9800     0.9746     0.0054
  4 H      0.9603     1.0000     0.0397     0.9831     0.9830     0.0001
  5 H      0.9633     1.0000     0.0367     0.9901     0.9897     0.0004
  6 H      0.9959     1.0000     0.0041     0.9951     0.9929     0.0021
  7 H      0.9636     1.0000     0.0364     0.9792     0.9765     0.0027
  8 H      0.9697     1.0000     0.0303     0.9930     0.9925     0.0005
  9 H      0.9691     1.0000     0.0309     0.9863     0.9862     0.0001

  Mayer bond orders larger than 0.100000
B(  0-C ,  1-C ) :   1.1225 B(  0-C ,  3-H ) :   0.9364 B(  0-C ,  4-H ) :   0.9582 
B(  0-C ,  5-H ) :   0.9572 B(  1-C ,  2-C ) :   1.1061 B(  1-C ,  7-H ) :   0.9615 
B(  2-C ,  6-H ) :   0.9509 B(  2-C ,  8-H ) :   0.9538 B(  2-C ,  9-H ) :   0.9556 



------------------
HIRSHFELD ANALYSIS
------------------

Total integrated alpha density =     13.001038867
Total integrated beta density  =     11.999447948

  ATOM     CHARGE      SPIN    
   0 C   -0.083090    0.053491
   1 C   -0.028118    0.692783
   2 C   -0.087619    0.056501
   3 H    0.029427    0.056451
   4 H    0.030220    0.011739
   5 H    0.028717    0.017816
   6 H    0.027368    0.037831
   7 H    0.017788    0.043946
   8 H    0.031974    0.019427
   9 H    0.032846    0.011605

  TOTAL  -0.000487    1.001591

-------
TIMINGS
-------

Total SCF time: 0 days 0 hours 0 min 3 sec 

Total time                  ....       3.427 sec
Sum of individual times     ....       3.338 sec  ( 97.4%)

Fock matrix formation       ....       3.045 sec  ( 88.9%)
  Split-RI-J                ....       0.868 sec  ( 28.5% of F)
  XC integration            ....       0.295 sec  (  9.7% of F)
    Basis function eval.    ....       0.088 sec  ( 29.9% of XC)
    Density eval.           ....       0.057 sec  ( 19.3% of XC)
    XC-Functional eval.     ....       0.028 sec  (  9.6% of XC)
    XC-Potential eval.      ....       0.096 sec  ( 32.6% of XC)
Diagonalization             ....       0.014 sec  (  0.4%)
Density matrix formation    ....       0.001 sec  (  0.0%)
Population analysis         ....       0.018 sec  (  0.5%)
Initial guess               ....       0.079 sec  (  2.3%)
Orbital Transformation      ....       0.000 sec  (  0.0%)
Orbital Orthonormalization  ....       0.000 sec  (  0.0%)
DIIS solution               ....       0.005 sec  (  0.2%)
Grid generation             ....       0.175 sec  (  5.1%)


-------------------------------------------------------------------------------
                          DFT DISPERSION CORRECTION                            
                                                                               
                              DFTD3 V3.1  Rev 1                                
                          USING Becke-Johnson damping                          
-------------------------------------------------------------------------------
The PBE functional is recognized
Active option DFTDOPT                   ...         4   

molecular C6(AA) [au] = 670.409218 


            DFT-D V3
 parameters
 s6 scaling factor         :     1.0000 
 a1 scaling factor         :     0.4289 
 s8 scaling factor         :     0.7875 
 a2 scaling factor         :     4.4407 
 ad hoc parameters k1-k3   :    16.0000     1.3333    -4.0000 

 Edisp/kcal,au: -3.328642643650  -0.005304529136 
 E6   /kcal   :  -2.418246011 
 E8   /kcal   :  -0.910396633 
 % E8         :  27.350386644 

-------------------------   ----------------
Dispersion correction           -0.005304529
-------------------------   ----------------


-------------------------   --------------------
FINAL SINGLE POINT ENERGY      -118.205477131913
-------------------------   --------------------

[1589382993.015450] [ty2019:17668:0]            sys.c:618  UCX  ERROR shmget(size=2097152 flags=0xfb0) for mm_recv_desc failed: Operation not permitted, please check shared memory limits by 'ipcs -l'
[1589382993.021075] [ty2019:17665:0]            sys.c:618  UCX  ERROR shmget(size=2097152 flags=0xfb0) for mm_recv_desc failed: Operation not permitted, please check shared memory limits by 'ipcs -l'
[1589382993.023293] [ty2019:17667:0]            sys.c:618  UCX  ERROR shmget(size=2097152 flags=0xfb0) for mm_recv_desc failed: Operation not permitted, please check shared memory limits by 'ipcs -l'
[1589382993.023940] [ty2019:17666:0]            sys.c:618  UCX  ERROR shmget(size=2097152 flags=0xfb0) for mm_recv_desc failed: Operation not permitted, please check shared memory limits by 'ipcs -l'
[1589382993.031701] [ty2019:17667:0]            sys.c:618  UCX  ERROR shmget(size=2097152 flags=0xb80) for ucp_am_bufs failed: Operation not permitted, please check shared memory limits by 'ipcs -l'
[1589382993.031713] [ty2019:17665:0]            sys.c:618  UCX  ERROR shmget(size=2097152 flags=0xb80) for ucp_am_bufs failed: Operation not permitted, please check shared memory limits by 'ipcs -l'


           ************************************************************
           *        Program running with 4 parallel MPI-processes     *
           *              working on a common directory               *
           ************************************************************
[1589382993.035337] [ty2019:17666:0]            sys.c:618  UCX  ERROR shmget(size=2097152 flags=0xb80) for ucp_am_bufs failed: Operation not permitted, please check shared memory limits by 'ipcs -l'
------------------------------------------------------------------------------
                         ORCA SCF GRADIENT CALCULATION
------------------------------------------------------------------------------

[1589382993.040276] [ty2019:17668:0]            sys.c:618  UCX  ERROR shmget(size=2097152 flags=0xb80) for ucp_am_bufs failed: Operation not permitted, please check shared memory limits by 'ipcs -l'
Gradient of the Kohn-Sham DFT energy:
Kohn-Sham wavefunction type      ... UKS
Hartree-Fock exchange scaling    ...    0.000
Number of operators              ...    2
Number of atoms                  ...   10
Basis set dimensions             ...   77
Integral neglect threshold       ... 2.5e-11
Integral primitive cutoff        ... 2.5e-12

Nuclear repulsion gradient       ... done
One Electron Gradient            ... done
Pre-screening matrix             ... done
RI-J gradient                    ... done
Exchange-correlation gradient    ... done
Dispersion correction            ... done

------------------
CARTESIAN GRADIENT
------------------

   1   C   :   -0.000102691    0.000079504   -0.000150523
   2   C   :    0.001421854    0.001294954    0.000656757
   3   C   :    0.018089459    0.039082400    0.099758356
   4   H   :    0.000088778   -0.000131856    0.000046327
   5   H   :    0.000056113    0.000007286   -0.000052098
   6   H   :    0.000014297   -0.000004046    0.000076033
   7   H   :   -0.020246703   -0.041431905   -0.102967477
   8   H   :    0.000082913    0.000035055    0.000067950
   9   H   :    0.000202606    0.000694505    0.001327311
  10   H   :    0.000393373    0.000374103    0.001237363

Difference to translation invariance:
           :    0.0000000000   -0.0000000000    0.0000000000

Norm of the cartesian gradient     ...    0.1566638359
RMS gradient                       ...    0.0286027723
MAX gradient                       ...    0.1029674766

-------
TIMINGS
-------

Total SCF gradient time            ...        0.915 sec

One electron gradient       ....       0.009 sec  (  1.0%)
Prescreening matrices       ....       0.011 sec  (  1.2%)
RI-J Coulomb gradient       ....       0.106 sec  ( 11.6%)
XC gradient                 ....       0.465 sec  ( 50.8%)
CPCM gradient               ....       0.160 sec  ( 17.5%)
   A-Matrix (El+Nuc)        ....       0.026 sec  (  2.8%)
   Potential                ....       0.134 sec  ( 14.6%)
------------------------------------------------------------------------------
                         ORCA GEOMETRY RELAXATION STEP
------------------------------------------------------------------------------

Reading the OPT-File                    .... done
Getting information on internals        .... done
Copying old internal coords+grads       .... done
Making the new internal coordinates     .... (new redundants).... done
Validating the new internal coordinates .... (new redundants).... done
Calculating the B-matrix                .... done
Calculating the G,G- and P matrices     .... done
Transforming gradient to internals      .... done
Projecting the internal gradient        .... done
Number of atoms                         ....  10
Number of internal coordinates          ....  36
Current Energy                          ....  -118.205477132 Eh
Current gradient norm                   ....     0.156663836 Eh/bohr
Maximum allowed component of the step   ....  0.300
Current trust radius                    ....  0.300
Evaluating the initial hessian          ....  (Almloef) done
Projecting the Hessian                  .... done
Forming the augmented Hessian           .... done
Diagonalizing the augmented Hessian     .... done
Last element of RFO vector              ....  0.999842913
Lowest eigenvalues of augmented Hessian:
 -0.000045612  0.013580411  0.013786602  0.016044380  0.126208322
Length of the computed step             ....  0.017727053
The final length of the internal step   ....  0.017727053
Converting the step to cartesian space:
 Initial RMS(Int)=    0.0029545089
Transforming coordinates:
 Iter   0:  RMS(Cart)=    0.0023344599 RMS(Int)=    0.0029530675
 Iter   1:  RMS(Cart)=    0.0000085471 RMS(Int)=    0.0000072729
 Iter   2:  RMS(Cart)=    0.0000000258 RMS(Int)=    0.0000000302
Imposing constraints:
 Iter   0:  RMS(Cart)=    0.0000000000 RMS(Int)=    0.0000000000
CONVERGED
done
Storing new coordinates                 .... done

                                .--------------------.
          ----------------------|Geometry convergence|-------------------------
          Item                value                   Tolerance       Converged
          ---------------------------------------------------------------------
          RMS gradient        0.0005418781            0.0005000000      NO
          MAX gradient        0.0020186456            0.0020000000      NO
          RMS step            0.0029545089            0.0070000000      YES
          MAX step            0.0070409818            0.0100000000      YES
          ........................................................
          Max(Bonds)      0.0025      Max(Angles)    0.33
          Max(Dihed)        0.40      Max(Improp)    0.00
          ---------------------------------------------------------------------

The optimization has not yet converged - more geometry cycles are needed


    ---------------------------------------------------------------------------
                         Redundant Internal Coordinates
                            (Angstroem and degrees)

        Definition                    Value    dE/dq     Step     New-Value
    ----------------------------------------------------------------------------
     1. B(C   1,C   0)                1.4904 -0.000077  0.0001    1.4905   
     2. B(C   2,C   1)                1.4925 -0.002019  0.0025    1.4950   
     3. B(H   3,C   0)                1.1207 -0.000028  0.0000    1.1207   
     4. B(H   4,C   0)                1.1097 -0.000029  0.0000    1.1097   
     5. B(H   5,C   0)                1.1126 -0.000050  0.0001    1.1127   
     6. B(H   6,C   2)                0.9872 -0.112824  0.0000    0.9872 C 
     7. B(H   7,C   1)                1.1044 -0.000010  0.0000    1.1044   
     8. B(H   8,C   2)                1.1130 -0.000270  0.0004    1.1134   
     9. B(H   9,C   2)                1.1098 -0.000202  0.0003    1.1101   
    10. A(C   1,C   0,H   3)          112.14 -0.000178    0.03    112.17   
    11. A(C   1,C   0,H   5)          111.80  0.000045   -0.01    111.79   
    12. A(C   1,C   0,H   4)          112.42 -0.000039    0.01    112.43   
    13. A(H   3,C   0,H   4)          106.13  0.000083   -0.01    106.12   
    14. A(H   4,C   0,H   5)          108.37  0.000022   -0.01    108.36   
    15. A(H   3,C   0,H   5)          105.57  0.000080   -0.02    105.55   
    16. A(C   2,C   1,H   7)          118.26 -0.000166    0.03    118.29   
    17. A(C   0,C   1,H   7)          118.20  0.000003   -0.00    118.20   
    18. A(C   0,C   1,C   2)          121.41  0.000166   -0.02    121.39   
    19. A(H   8,C   2,H   9)          108.08  0.000081   -0.24    107.84   
    20. A(C   1,C   2,H   8)          111.61  0.000920   -0.21    111.39   
    21. A(H   6,C   2,H   8)          105.89 -0.001175    0.33    106.22   
    22. A(C   1,C   2,H   9)          112.21  0.000900   -0.21    112.00   
    23. A(C   1,C   2,H   6)          112.17  0.000164    0.07    112.24   
    24. A(H   6,C   2,H   9)          106.52 -0.001088    0.30    106.82   
    25. D(C   2,C   1,C   0,H   5)     41.92 -0.000041    0.17     42.09   
    26. D(H   7,C   1,C   0,H   5)   -154.92 -0.000058    0.19   -154.74   
    27. D(H   7,C   1,C   0,H   4)    -32.77 -0.000024    0.17    -32.60   
    28. D(C   2,C   1,C   0,H   4)    164.08 -0.000007    0.16    164.23   
    29. D(C   2,C   1,C   0,H   3)    -76.43 -0.000053    0.17    -76.25   
    30. D(H   7,C   1,C   0,H   3)     86.73 -0.000070    0.19     86.92   
    31. D(H   6,C   2,C   1,C   0)     75.57 -0.000010   -0.07     75.51   
    32. D(H   6,C   2,C   1,H   7)    -87.57 -0.000020   -0.08    -87.65   
    33. D(H   8,C   2,C   1,C   0)    -43.07  0.000749   -0.39    -43.46   
    34. D(H   8,C   2,C   1,H   7)    153.79  0.000739   -0.40    153.38   
    35. D(H   9,C   2,C   1,C   0)   -164.55 -0.000663    0.22   -164.34   
    36. D(H   9,C   2,C   1,H   7)     32.30 -0.000673    0.21     32.51   
    ----------------------------------------------------------------------------

         *************************************************************
         *                GEOMETRY OPTIMIZATION CYCLE   2            *
         *************************************************************
---------------------------------
CARTESIAN COORDINATES (ANGSTROEM)
---------------------------------
  C     -1.301650    0.069384   -0.039192
  C      0.031230   -0.597675   -0.038752
  C      1.298314    0.194511    0.004572
  H     -1.585044    0.448800    0.976561
  H     -2.117570   -0.615015   -0.351221
  H     -1.317495    0.960296   -0.705570
  H      1.480105    0.559721    0.903584
  H      0.076940   -1.672328    0.211560
  H      1.254330    1.068918   -0.683260
  H      2.180740   -0.416711   -0.278283

----------------------------
CARTESIAN COORDINATES (A.U.)
----------------------------
  NO LB      ZA    FRAG     MASS         X           Y           Z
   0 C     6.0000    0    12.011   -2.459762    0.131116   -0.074063
   1 C     6.0000    0    12.011    0.059016   -1.129442   -0.073230
   2 C     6.0000    0    12.011    2.453458    0.367573    0.008640
   3 H     1.0000    0     1.008   -2.995299    0.848110    1.845433
   4 H     1.0000    0     1.008   -4.001628   -1.162209   -0.663711
   5 H     1.0000    0     1.008   -2.489705    1.814696   -1.333334
   6 H     1.0000    0     1.008    2.796993    1.057719    1.707527
   7 H     1.0000    0     1.008    0.145395   -3.160243    0.399790
   8 H     1.0000    0     1.008    2.370341    2.019961   -1.291175
   9 H     1.0000    0     1.008    4.121002   -0.787470   -0.525878

--------------------------------
INTERNAL COORDINATES (ANGSTROEM)
--------------------------------
 C      0   0   0     0.000000000000     0.00000000     0.00000000
 C      1   0   0     1.490481810347     0.00000000     0.00000000
 C      2   1   0     1.494970892795   121.38578688     0.00000000
 H      1   2   3     1.120724920288   112.17122316   283.74789076
 H      1   2   3     1.109724579220   112.43100240   164.23281720
 H      1   2   3     1.112669986596   111.79337235    42.09175216
 H      3   2   1     0.987243297593   112.23992195    75.50801979
 H      2   1   3     1.104366591989   118.20222469   163.17107077
 H      3   2   1     1.113388959981   111.39373390   316.54156806
 H      3   2   1     1.110079099111   111.99924048   195.66356664

---------------------------
INTERNAL COORDINATES (A.U.)
---------------------------
 C      0   0   0     0.000000000000     0.00000000     0.00000000
 C      1   0   0     2.816602429148     0.00000000     0.00000000
 C      2   1   0     2.825085565567   121.38578688     0.00000000
 H      1   2   3     2.117863170805   112.17122316   283.74789076
 H      1   2   3     2.097075538807   112.43100240   164.23281720
 H      1   2   3     2.102641552100   111.79337235    42.09175216
 H      3   2   1     1.865619460000   112.23992195    75.50801979
 H      2   1   3     2.086950410312   118.20222469   163.17107077
 H      3   2   1     2.104000214896   111.39373390   316.54156806
 H      3   2   1     2.097745484310   111.99924048   195.66356664

[1589382994.859137] [ty2019:17690:0]            sys.c:618  UCX  ERROR shmget(size=2097152 flags=0xfb0) for mm_recv_desc failed: Operation not permitted, please check shared memory limits by 'ipcs -l'
[1589382994.860531] [ty2019:17691:0]            sys.c:618  UCX  ERROR shmget(size=2097152 flags=0xfb0) for mm_recv_desc failed: Operation not permitted, please check shared memory limits by 'ipcs -l'
[1589382994.864914] [ty2019:17688:0]            sys.c:618  UCX  ERROR shmget(size=2097152 flags=0xfb0) for mm_recv_desc failed: Operation not permitted, please check shared memory limits by 'ipcs -l'
[1589382994.867679] [ty2019:17689:0]            sys.c:618  UCX  ERROR shmget(size=2097152 flags=0xfb0) for mm_recv_desc failed: Operation not permitted, please check shared memory limits by 'ipcs -l'
[1589382994.873650] [ty2019:17688:0]            sys.c:618  UCX  ERROR shmget(size=2097152 flags=0xb80) for ucp_am_bufs failed: Operation not permitted, please check shared memory limits by 'ipcs -l'
[1589382994.874203] [ty2019:17689:0]            sys.c:618  UCX  ERROR shmget(size=2097152 flags=0xb80) for ucp_am_bufs failed: Operation not permitted, please check shared memory limits by 'ipcs -l'
[1589382994.874790] [ty2019:17691:0]            sys.c:618  UCX  ERROR shmget(size=2097152 flags=0xb80) for ucp_am_bufs failed: Operation not permitted, please check shared memory limits by 'ipcs -l'


           ************************************************************
           *        Program running with 4 parallel MPI-processes     *
           *              working on a common directory               *
           ************************************************************
 One Electron integrals                  [1589382994.902760] [ty2019:17690:0]            sys.c:618  UCX  ERROR shmget(size=2097152 flags=0xb80) for ucp_am_bufs failed: Operation not permitted, please check shared memory limits by 'ipcs -l'
... done
 Pre-screening matrix                    ... done
[1589382995.876945] [ty2019:17710:0]            sys.c:618  UCX  ERROR shmget(size=2097152 flags=0xfb0) for mm_recv_desc failed: Operation not permitted, please check shared memory limits by 'ipcs -l'
[1589382995.878455] [ty2019:17713:0]            sys.c:618  UCX  ERROR shmget(size=2097152 flags=0xfb0) for mm_recv_desc failed: Operation not permitted, please check shared memory limits by 'ipcs -l'
[1589382995.879988] [ty2019:17711:0]            sys.c:618  UCX  ERROR shmget(size=2097152 flags=0xfb0) for mm_recv_desc failed: Operation not permitted, please check shared memory limits by 'ipcs -l'
[1589382995.880025] [ty2019:17712:0]            sys.c:618  UCX  ERROR shmget(size=2097152 flags=0xfb0) for mm_recv_desc failed: Operation not permitted, please check shared memory limits by 'ipcs -l'
[1589382995.887045] [ty2019:17710:0]            sys.c:618  UCX  ERROR shmget(size=2097152 flags=0xb80) for ucp_am_bufs failed: Operation not permitted, please check shared memory limits by 'ipcs -l'
[1589382995.887776] [ty2019:17711:0]            sys.c:618  UCX  ERROR shmget(size=2097152 flags=0xb80) for ucp_am_bufs failed: Operation not permitted, please check shared memory limits by 'ipcs -l'


           ************************************************************
           *        Program running with 4 parallel MPI-processes     *
           *              working on a common directory               *
           ************************************************************
[1589382995.891027] [ty2019:17712:0]            sys.c:618  UCX  ERROR shmget(size=2097152 flags=0xb80) for ucp_am_bufs failed: Operation not permitted, please check shared memory limits by 'ipcs -l'
[1589382995.891132] [ty2019:17713:0]            sys.c:618  UCX  ERROR shmget(size=2097152 flags=0xb80) for ucp_am_bufs failed: Operation not permitted, please check shared memory limits by 'ipcs -l'

Diagonalization of the overlap matrix:
Smallest eigenvalue                        ... 4.006e-03
Time for diagonalization                   ...    0.002 sec
Threshold for overlap eigenvalues          ... 1.000e-08
Number of eigenvalues below threshold      ... 0
Time for construction of square roots      ...    0.001 sec
Total time needed                          ...    0.003 sec

-------------------
DFT GRID GENERATION
-------------------

General Integration Accuracy     IntAcc      ...  4.340
Radial Grid Type                 RadialGrid  ... Gauss-Chebyshev
Angular Grid (max. acc.)         AngularGrid ... Lebedev-110
Angular grid pruning method      GridPruning ... 3 (G Style)
Weight generation scheme         WeightScheme... Becke
Basis function cutoff            BFCut       ...    1.0000e-11
Integration weight cutoff        WCut        ...    1.0000e-14
Grids for H and He will be reduced by one unit

# of grid points (after initial pruning)     ...  10526 (   0.0 sec)
# of grid points (after weights+screening)   ...  10040 (   0.0 sec)
nearest neighbour list constructed           ...    0.0 sec
Grid point re-assignment to atoms done       ...    0.0 sec
Grid point division into batches done        ...    0.0 sec
Reduced shell lists constructed in    0.0 sec

Total number of grid points                  ...    10040
Total number of batches                      ...      162
Average number of points per batch           ...       61
Average number of grid points per atom       ...     1004
Average number of shells per batch           ...    35.69 (91.51%)
Average number of basis functions per batch  ...    70.40 (91.43%)
Average number of large shells per batch     ...    33.05 (92.60%)
Average number of large basis fcns per batch ...    64.62 (91.78%)
Maximum spatial batch extension              ...  18.80, 19.46, 14.79 au
Average spatial batch extension              ...   0.68,  0.68,  0.67 au

Time for grid setup =    0.030 sec


--------------------
CPCM SOLVATION MODEL
--------------------
CPCM parameters:
  Epsilon                                         ...      80.4000
  Refrac                                          ...       1.3300
  Rsolv                                           ...       1.3000
  Surface type                                    ... GAUSSIAN VDW
  Epsilon function type                           ...         CPCM
Radii:
 Radius for C  used is    3.8550 Bohr (=   2.0400 Ang.)
 Radius for H  used is    2.4944 Bohr (=   1.3200 Ang.)
Calculating surface                               ...        done! (  0.0s)
GEPOL surface points                              ...          618
GEPOL Volume                                      ...     534.8521
GEPOL Surface-area                                ...     351.8816
Calculating surface distance matrix               ...        done! (  0.0s)
Performing Cholesky decomposition & store         ...        done! (  0.0s)
Overall time for CPCM initialization              ...                 0.0s
--------------
SCF ITERATIONS
--------------
ITER       Energy         Delta-E        Max-DP      RMS-DP      [F,P]     Damp
               ***  Starting incremental Fock matrix formation  ***
  0   -118.2004335162   0.000000000000 0.00020734  0.00000871  0.0006796 0.7000
  1   -118.2004350835  -0.000001567320 0.00017201  0.00000805  0.0005096 0.7000
                               ***Turning on DIIS***
  2   -118.2004362938  -0.000001210308 0.00043448  0.00002336  0.0003651 0.0000
  3   -118.2004392502  -0.000002956372 0.00006301  0.00000258  0.0000422 0.0000
  4   -118.2004392640  -0.000000013868 0.00003352  0.00000109  0.0000401 0.0000
  5   -118.2004392689  -0.000000004841 0.00001506  0.00000041  0.0000189 0.0000
  6   -118.2004392693  -0.000000000468 0.00000243  0.00000011  0.0000032 0.0000
                 **** Energy Check signals convergence ****

               *****************************************************
               *                     SUCCESS                       *
               *           SCF CONVERGED AFTER   7 CYCLES          *
               *****************************************************

Setting up the final grid:

General Integration Accuracy     IntAcc      ...  4.670
Radial Grid Type                 RadialGrid  ... Gauss-Chebyshev
Angular Grid (max. acc.)         AngularGrid ... Lebedev-302
Angular grid pruning method      GridPruning ... 3 (G Style)
Weight generation scheme         WeightScheme... Becke
Basis function cutoff            BFCut       ...    1.0000e-11
Integration weight cutoff        WCut        ...    1.0000e-14
Grids for H and He will be reduced by one unit

# of grid points (after initial pruning)     ...  42394 (   0.0 sec)
# of grid points (after weights+screening)   ...  40008 (   0.0 sec)
nearest neighbour list constructed           ...    0.0 sec
Grid point re-assignment to atoms done       ...    0.0 sec
Grid point division into batches done        ...    0.1 sec
Reduced shell lists constructed in    0.1 sec

Total number of grid points                  ...    40008
Total number of batches                      ...      630
Average number of points per batch           ...       63
Average number of grid points per atom       ...     4001
Average number of shells per batch           ...    34.73 (89.05%)
Average number of basis functions per batch  ...    68.54 (89.01%)
Average number of large shells per batch     ...    31.17 (89.75%)
Average number of large basis fcns per batch ...    60.75 (88.64%)
[...]
  39   0.0000       0.823644        22.4125 
  40   0.0000       0.926388        25.2083 
  41   0.0000       1.091694        29.7065 
  42   0.0000       1.115243        30.3473 
  43   0.0000       1.221839        33.2479 
  44   0.0000       1.374452        37.4007 
  45   0.0000       1.468891        39.9705 
  46   0.0000       1.479642        40.2631 
  47   0.0000       1.505611        40.9697 
  48   0.0000       1.545023        42.0422 
  49   0.0000       1.628713        44.3195 
  50   0.0000       1.642010        44.6814 
  51   0.0000       1.701268        46.2939 
  52   0.0000       1.720530        46.8180 
  53   0.0000       1.739662        47.3386 
  54   0.0000       1.751100        47.6498 
  55   0.0000       1.788062        48.6556 
  56   0.0000       1.826857        49.7113 
  57   0.0000       1.838990        50.0415 
  58   0.0000       1.887069        51.3498 
  59   0.0000       1.950060        53.0638 
  60   0.0000       2.062480        56.1229 
  61   0.0000       2.128852        57.9290 
  62   0.0000       2.153794        58.6077 
  63   0.0000       2.182755        59.3958 
  64   0.0000       2.318849        63.0991 
  65   0.0000       2.338958        63.6463 
  66   0.0000       2.428714        66.0887 
  67   0.0000       2.500593        68.0446 
  68   0.0000       2.513607        68.3987 
  69   0.0000       2.547664        69.3255 
  70   0.0000       2.664900        72.5156 
  71   0.0000       2.773820        75.4795 
  72   0.0000       2.822763        76.8113 
  73   0.0000       2.850965        77.5787 
  74   0.0000       2.894037        78.7508 
  75   0.0000       2.992778        81.4376 
  76   0.0000       3.074454        83.6601 

                    ********************************
                    * MULLIKEN POPULATION ANALYSIS *
                    ********************************

--------------------------------------------
MULLIKEN ATOMIC CHARGES AND SPIN POPULATIONS
--------------------------------------------
   0 C :   -0.034920   -0.083849
   1 C :   -0.222466    1.024118
   2 C :    0.033912   -0.072651
   3 H :    0.041671    0.071556
   4 H :    0.039512    0.010336
   5 H :    0.036905    0.020906
   6 H :    0.005929    0.042867
   7 H :    0.036975   -0.045898
   8 H :    0.031223    0.022336
   9 H :    0.031258    0.010278
Sum of atomic charges         :    0.0000000
Sum of atomic spin populations:    1.0000000

-----------------------------------------------------
MULLIKEN REDUCED ORBITAL CHARGES AND SPIN POPULATIONS
-----------------------------------------------------
CHARGE
  0 C s       :     3.016685  s :     3.016685
      pz      :     1.014042  p :     2.992498
      px      :     0.979881
      py      :     0.998576
      dz2     :     0.004161  d :     0.025736
      dxz     :     0.004700
      dyz     :     0.005854
      dx2y2   :     0.004700
      dxy     :     0.006321
  1 C s       :     3.225614  s :     3.225614
      pz      :     1.031108  p :     2.967578
      px      :     0.967151
      py      :     0.969319
      dz2     :     0.002574  d :     0.029274
      dxz     :     0.004927
      dyz     :     0.002748
      dx2y2   :     0.010509
      dxy     :     0.008516
  2 C s       :     2.940755  s :     2.940755
      pz      :     1.020422  p :     2.997958
      px      :     0.981671
      py      :     0.995866
      dz2     :     0.005655  d :     0.027375
      dxz     :     0.003957
      dyz     :     0.007101
      dx2y2   :     0.004708
      dxy     :     0.005954
  3 H s       :     0.935042  s :     0.935042
      pz      :     0.011796  p :     0.023287
      px      :     0.005217
      py      :     0.006274
  4 H s       :     0.937713  s :     0.937713
      pz      :     0.005932  p :     0.022775
      px      :     0.008873
      py      :     0.007970
  5 H s       :     0.940229  s :     0.940229
      pz      :     0.008434  p :     0.022865
      px      :     0.004340
      py      :     0.010091
  6 H s       :     0.963359  s :     0.963359
      pz      :     0.014776  p :     0.030712
      px      :     0.007194
      py      :     0.008742
  7 H s       :     0.941005  s :     0.941005
      pz      :     0.005880  p :     0.022020
      px      :     0.003312
      py      :     0.012828
  8 H s       :     0.945467  s :     0.945467
      pz      :     0.009148  p :     0.023310
      px      :     0.004510
      py      :     0.009652
  9 H s       :     0.945500  s :     0.945500
      pz      :     0.006146  p :     0.023242
      px      :     0.009613
      py      :     0.007483

SPIN
  0 C s       :    -0.026200  s :    -0.026200
      pz      :    -0.020729  p :    -0.064671
      px      :    -0.029942
      py      :    -0.014000
      dz2     :     0.000388  d :     0.007022
      dxz     :     0.004085
      dyz     :     0.002278
      dx2y2   :     0.000008
      dxy     :     0.000262
  1 C s       :     0.111615  s :     0.111615
      pz      :     0.829683  p :     0.914477
      px      :     0.031718
      py      :     0.053076
      dz2     :    -0.002103  d :    -0.001973
      dxz     :     0.000256
      dyz     :    -0.000139
      dx2y2   :     0.000145
      dxy     :    -0.000132
  2 C s       :    -0.024657  s :    -0.024657
      pz      :    -0.012269  p :    -0.055050
      px      :    -0.027311
      py      :    -0.015471
      dz2     :     0.000578  d :     0.007056
      dxz     :     0.003254
      dyz     :     0.003000
      dx2y2   :     0.000055
      dxy     :     0.000169
  3 H s       :     0.071777  s :     0.071777
      pz      :    -0.000212  p :    -0.000220
      px      :     0.000025
      py      :    -0.000033
  4 H s       :     0.010507  s :     0.010507
      pz      :    -0.000011  p :    -0.000171
      px      :    -0.000140
      py      :    -0.000020
  5 H s       :     0.021158  s :     0.021158
      pz      :    -0.000070  p :    -0.000252
      px      :    -0.000050
      py      :    -0.000132
  6 H s       :     0.042934  s :     0.042934
      pz      :    -0.000116  p :    -0.000067
      px      :     0.000071
      py      :    -0.000022
  7 H s       :    -0.050903  s :    -0.050903
      pz      :     0.004731  p :     0.005005
      px      :    -0.000174
      py      :     0.000448
  8 H s       :     0.022563  s :     0.022563
      pz      :    -0.000061  p :    -0.000227
      px      :    -0.000018
      py      :    -0.000148
  9 H s       :     0.010428  s :     0.010428
      pz      :     0.000010  p :    -0.000150
      px      :    -0.000134
      py      :    -0.000026


                     *******************************
                     * LOEWDIN POPULATION ANALYSIS *
                     *******************************

-------------------------------------------
LOEWDIN ATOMIC CHARGES AND SPIN POPULATIONS
-------------------------------------------
   0 C :   -0.091495   -0.011256
   1 C :   -0.053663    0.860982
   2 C :   -0.070905   -0.003847
   3 H :    0.038568    0.061742
   4 H :    0.036650    0.008733
   5 H :    0.034746    0.017842
   6 H :    0.012180    0.038094
   7 H :    0.016916    0.000407
   8 H :    0.037878    0.018761
   9 H :    0.039124    0.008541

----------------------------------------------------
LOEWDIN REDUCED ORBITAL CHARGES AND SPIN POPULATIONS
----------------------------------------------------
CHARGE
  0 C s       :     2.851033  s :     2.851033
      pz      :     1.062398  p :     3.167894
      px      :     1.043804
      py      :     1.061693
      dz2     :     0.012568  d :     0.072567
      dxz     :     0.011846
      dyz     :     0.016942
      dx2y2   :     0.012613
      dxy     :     0.018598
  1 C s       :     2.917984  s :     2.917984
      pz      :     0.994007  p :     3.064937
      px      :     1.024335
      py      :     1.046596
      dz2     :     0.005078  d :     0.070742
      dxz     :     0.008787
      dyz     :     0.005012
      dx2y2   :     0.027913
      dxy     :     0.023952
  2 C s       :     2.813987  s :     2.813987
      pz      :     1.084662  p :     3.179990
      px      :     1.038012
      py      :     1.057315
      dz2     :     0.016165  d :     0.076927
      dxz     :     0.009880
      dyz     :     0.020332
      dx2y2   :     0.011699
      dxy     :     0.018852
  3 H s       :     0.897386  s :     0.897386
      pz      :     0.034266  p :     0.064046
      px      :     0.014243
      py      :     0.015537
  4 H s       :     0.899749  s :     0.899749
      pz      :     0.014434  p :     0.063601
      px      :     0.026786
      py      :     0.022380
  5 H s       :     0.901826  s :     0.901826
      pz      :     0.022230  p :     0.063428
      px      :     0.011588
      py      :     0.029610
  6 H s       :     0.897384  s :     0.897384
      pz      :     0.042776  p :     0.090436
      px      :     0.022514
      py      :     0.025146
  7 H s       :     0.910506  s :     0.910506
      pz      :     0.022043  p :     0.072579
      px      :     0.010850
      py      :     0.039685
  8 H s       :     0.899602  s :     0.899602
      pz      :     0.022571  p :     0.062520
      px      :     0.011794
      py      :     0.028154
  9 H s       :     0.898258  s :     0.898258
      pz      :     0.014115  p :     0.062617
      px      :     0.028497
      py      :     0.020005

SPIN
  0 C s       :    -0.005109  s :    -0.005109
      pz      :    -0.006507  p :    -0.024901
      px      :    -0.012839
      py      :    -0.005555
      dz2     :     0.001473  d :     0.018753
      dxz     :     0.009787
      dyz     :     0.005983
      dx2y2   :     0.000361
      dxy     :     0.001149
  1 C s       :     0.035831  s :     0.035831
      pz      :     0.779044  p :     0.828222
      px      :     0.016821
      py      :     0.032358
      dz2     :    -0.001696  d :    -0.003071
      dxz     :     0.000119
      dyz     :    -0.000014
      dx2y2   :    -0.000677
      dxy     :    -0.000803
  2 C s       :    -0.004619  s :    -0.004619
      pz      :     0.000382  p :    -0.017224
      px      :    -0.011749
      py      :    -0.005856
      dz2     :     0.001713  d :     0.017996
      dxz     :     0.007519
      dyz     :     0.007437
      dx2y2   :     0.000354
      dxy     :     0.000972
  3 H s       :     0.062239  s :     0.062239
      pz      :    -0.000692  p :    -0.000496
      px      :     0.000203
      py      :    -0.000008
  4 H s       :     0.009470  s :     0.009470
      pz      :    -0.000113  p :    -0.000737
      px      :    -0.000416
      py      :    -0.000209
  5 H s       :     0.018592  s :     0.018592
      pz      :    -0.000062  p :    -0.000750
      px      :    -0.000246
      py      :    -0.000443
  6 H s       :     0.038385  s :     0.038385
      pz      :    -0.000358  p :    -0.000291
      px      :     0.000085
      py      :    -0.000018
  7 H s       :    -0.021973  s :    -0.021973
      pz      :     0.018935  p :     0.022380
      px      :     0.000299
      py      :     0.003145
  8 H s       :     0.019341  s :     0.019341
      pz      :     0.000046  p :    -0.000580
      px      :    -0.000198
      py      :    -0.000428
  9 H s       :     0.009103  s :     0.009103
      pz      :     0.000030  p :    -0.000562
      px      :    -0.000377
      py      :    -0.000215


                      *****************************
                      * MAYER POPULATION ANALYSIS *
                      *****************************

  NA   - Mulliken gross atomic population
  ZA   - Total nuclear charge
  QA   - Mulliken gross atomic charge
  VA   - Mayer's total valence
  BVA  - Mayer's bonded valence
  FA   - Mayer's free valence

  ATOM       NA         ZA         QA         VA         BVA        FA
  0 C      6.0349     6.0000    -0.0349     3.9666     3.9633     0.0033
  1 C      6.2225     6.0000    -0.2225     4.0780     3.3218     0.7562
  2 C      5.9661     6.0000     0.0339     3.9591     3.9561     0.0030
  3 H      0.9583     1.0000     0.0417     0.9800     0.9746     0.0054
  4 H      0.9605     1.0000     0.0395     0.9831     0.9830     0.0001
  5 H      0.9631     1.0000     0.0369     0.9900     0.9896     0.0005
  6 H      0.9941     1.0000     0.0059     0.9952     0.9932     0.0020
  7 H      0.9630     1.0000     0.0370     0.9792     0.9766     0.0027
  8 H      0.9688     1.0000     0.0312     0.9929     0.9924     0.0005
  9 H      0.9687     1.0000     0.0313     0.9863     0.9862     0.0001

  Mayer bond orders larger than 0.100000
B(  0-C ,  1-C ) :   1.1226 B(  0-C ,  3-H ) :   0.9364 B(  0-C ,  4-H ) :   0.9584 
B(  0-C ,  5-H ) :   0.9570 B(  1-C ,  2-C ) :   1.1024 B(  1-C ,  7-H ) :   0.9618 
B(  2-C ,  6-H ) :   0.9532 B(  2-C ,  8-H ) :   0.9549 B(  2-C ,  9-H ) :   0.9565 



------------------
HIRSHFELD ANALYSIS
------------------

Total integrated alpha density =     13.001253339
Total integrated beta density  =     11.999592228

  ATOM     CHARGE      SPIN    
   0 C   -0.083310    0.053589
   1 C   -0.027935    0.694686
   2 C   -0.087271    0.055559
   3 H    0.029449    0.056417
   4 H    0.030156    0.011274
   5 H    0.028653    0.018509
   6 H    0.027652    0.036684
   7 H    0.017535    0.044205
   8 H    0.031722    0.019497
   9 H    0.032502    0.011243

  TOTAL  -0.000846    1.001661

-------
TIMINGS
-------

Total SCF time: 0 days 0 hours 0 min 2 sec 

Total time                  ....       2.239 sec
Sum of individual times     ....       2.061 sec  ( 92.1%)

Fock matrix formation       ....       1.843 sec  ( 82.3%)
  Split-RI-J                ....       0.499 sec  ( 27.1% of F)
  XC integration            ....       0.181 sec  (  9.8% of F)
    Basis function eval.    ....       0.055 sec  ( 30.1% of XC)
    Density eval.           ....       0.039 sec  ( 21.4% of XC)
    XC-Functional eval.     ....       0.017 sec  (  9.4% of XC)
    XC-Potential eval.      ....       0.053 sec  ( 29.3% of XC)
Diagonalization             ....       0.008 sec  (  0.3%)
Density matrix formation    ....       0.001 sec  (  0.0%)
Population analysis         ....       0.030 sec  (  1.3%)
Initial guess               ....       0.003 sec  (  0.1%)
Orbital Transformation      ....       0.000 sec  (  0.0%)
Orbital Orthonormalization  ....       0.001 sec  (  0.0%)
DIIS solution               ....       0.002 sec  (  0.1%)
Grid generation             ....       0.176 sec  (  7.9%)


-------------------------------------------------------------------------------
                          DFT DISPERSION CORRECTION                            
                                                                               
                              DFTD3 V3.1  Rev 1                                
                          USING Becke-Johnson damping                          
-------------------------------------------------------------------------------
The PBE functional is recognized
Active option DFTDOPT                   ...         4   

molecular C6(AA) [au] = 670.423347 


            DFT-D V3
 parameters
 s6 scaling factor         :     1.0000 
 a1 scaling factor         :     0.4289 
 s8 scaling factor         :     0.7875 
 a2 scaling factor         :     4.4407 
 ad hoc parameters k1-k3   :    16.0000     1.3333    -4.0000 

 Edisp/kcal,au: -3.327962166396  -0.005303444727 
 E6   /kcal   :  -2.417739339 
 E8   /kcal   :  -0.910222828 
 % E8         :  27.350756474 

-------------------------   ----------------
Dispersion correction           -0.005303445
-------------------------   ----------------


-------------------------   --------------------
FINAL SINGLE POINT ENERGY      -118.205546264485
-------------------------   --------------------

                                *** OPTIMIZATION RUN DONE ***

                            ***************************************
                            *     ORCA property calculations      *
                            ***************************************

                                    ---------------------
                                    Active property flags
                                    ---------------------
   (+) Dipole Moment


------------------------------------------------------------------------------
                       ORCA ELECTRIC PROPERTIES CALCULATION
------------------------------------------------------------------------------

Dipole Moment Calculation                       ... on
Quadrupole Moment Calculation                   ... off
Polarizability Calculation                      ... off
GBWName                                         ... m-mfaV_2-6_hl1d_fbond_scan_12_orca.gbw
Electron density file                           ... m-mfaV_2-6_hl1d_fbond_scan_12_orca.scfp
The origin for moment calculation is the CENTER OF MASS  = ( 0.014696, -0.159899 -0.033043)

-------------
DIPOLE MOMENT
-------------
                                X             Y             Z
Electronic contribution:      0.08870      -0.75229      -0.03434
Nuclear contribution   :     -0.07975       0.86646       0.17907
                        -----------------------------------------
Total Dipole Moment    :      0.00895       0.11417       0.14473
                        -----------------------------------------
Magnitude (a.u.)       :      0.18456
Magnitude (Debye)      :      0.46911



--------------------
Rotational spectrum 
--------------------
 
Rotational constants in cm-1:     1.257469     0.275705     0.246054 
Rotational constants in MHz : 37697.965304  8265.440949  7376.498398 

 Dipole components along the rotational axes: 
x,y,z [a.u.] :     0.016286     0.107708    -0.148982 
x,y,z [Debye]:     0.041395     0.273771    -0.378681 

 
[1589383011.725552] [ty2019:17872:0]            sys.c:618  UCX  ERROR shmget(size=2097152 flags=0xfb0) for mm_recv_desc failed: Operation not permitted, please check shared memory limits by 'ipcs -l'
[1589383011.725530] [ty2019:17873:0]            sys.c:618  UCX  ERROR shmget(size=2097152 flags=0xfb0) for mm_recv_desc failed: Operation not permitted, please check shared memory limits by 'ipcs -l'
[1589383011.725511] [ty2019:17875:0]            sys.c:618  UCX  ERROR shmget(size=2097152 flags=0xfb0) for mm_recv_desc failed: Operation not permitted, please check shared memory limits by 'ipcs -l'
[1589383011.727498] [ty2019:17874:0]            sys.c:618  UCX  ERROR shmget(size=2097152 flags=0xfb0) for mm_recv_desc failed: Operation not permitted, please check shared memory limits by 'ipcs -l'
[1589383011.734511] [ty2019:17872:0]            sys.c:618  UCX  ERROR shmget(size=2097152 flags=0xb80) for ucp_am_bufs failed: Operation not permitted, please check shared memory limits by 'ipcs -l'
[1589383011.736370] [ty2019:17874:0]            sys.c:618  UCX  ERROR shmget(size=2097152 flags=0xb80) for ucp_am_bufs failed: Operation not permitted, please check shared memory limits by 'ipcs -l'
[1589383011.736816] [ty2019:17873:0]            sys.c:618  UCX  ERROR shmget(size=2097152 flags=0xb80) for ucp_am_bufs failed: Operation not permitted, please check shared memory limits by 'ipcs -l'
[1589383011.740673] [ty2019:17875:0]            sys.c:618  UCX  ERROR shmget(size=2097152 flags=0xb80) for ucp_am_bufs failed: Operation not permitted, please check shared memory limits by 'ipcs -l'

Timings for individual modules:

Sum of individual times         ...       23.733 sec (=   0.396 min)
GTO integral calculation        ...        4.047 sec (=   0.067 min)  17.1 %
SCF iterations                  ...       14.641 sec (=   0.244 min)  61.7 %
SCF Gradient evaluation         ...        4.831 sec (=   0.081 min)  20.4 %
Geometry relaxation             ...        0.214 sec (=   0.004 min)   0.9 %
                             ****ORCA TERMINATED NORMALLY****
TOTAL RUN TIME: 0 days 0 hours 0 minutes 24 seconds 999 msec
