
                                 *****************
                                 * O   R   C   A *
                                 *****************

           --- An Ab Initio, DFT and Semiempirical electronic structure package ---

                  #######################################################
                  #                        -***-                        #
                  #          Department of theory and spectroscopy      #
                  #               Directorship: Frank Neese             #
                  #        Max Planck Institute fuer Kohlenforschung    #
                  #                Kaiser Wilhelm Platz 1               #
                  #                 D-45470 Muelheim/Ruhr               #
                  #                      Germany                        #
                  #                                                     #
                  #                  All rights reserved                #
                  #                        -***-                        #
                  #######################################################


                         Program Version 4.2.1 -  RELEASE  -


 With contributions from (in alphabetic order):
   Daniel Aravena         : Magnetic Suceptibility
   Michael Atanasov       : Ab Initio Ligand Field Theory (pilot matlab implementation)
   Alexander A. Auer      : GIAO ZORA, VPT2
   Ute Becker             : Parallelization
   Giovanni Bistoni       : ED, misc. LED, open-shell LED, HFLD
   Martin Brehm           : Molecular dynamics
   Dmytro Bykov           : SCF Hessian
   Vijay G. Chilkuri      : MRCI spin determinant printing, contributions to CSF-ICE
   Dipayan Datta          : RHF DLPNO-CCSD density
   Achintya Kumar Dutta   : EOM-CC, STEOM-CC
   Dmitry Ganyushin       : Spin-Orbit,Spin-Spin,Magnetic field MRCI
   Miquel Garcia          : C-PCM Hessian, Gaussian charge scheme
   Yang Guo               : DLPNO-NEVPT2, CIM, IAO-localization
   Andreas Hansen         : Spin unrestricted coupled pair/coupled cluster methods
   Benjamin Helmich-Paris : CASSCF linear response (MC-RPA)
   Lee Huntington         : MR-EOM, pCC
   Robert Izsak           : Overlap fitted RIJCOSX, COSX-SCS-MP3, EOM
   Christian Kollmar      : KDIIS, OOCD, Brueckner-CCSD(T), CCSD density
   Simone Kossmann        : Meta GGA functionals, TD-DFT gradient, OOMP2, MP2 Hessian
   Martin Krupicka        : AUTO-CI
   Lucas Lang             : DCDCAS
   Dagmar Lenk            : GEPOL surface, SMD
   Dimitrios Liakos       : Extrapolation schemes; Compound Job, initial MDCI parallelization
   Dimitrios Manganas     : Further ROCIS development; embedding schemes
   Dimitrios Pantazis     : SARC Basis sets
   Taras Petrenko         : DFT Hessian,TD-DFT gradient, ASA, ECA, R-Raman, ABS, FL, XAS/XES, NRVS
   Peter Pinski           : DLPNO-MP2, DLPNO-MP2 Gradient
   Christoph Reimann      : Effective Core Potentials
   Marius Retegan         : Local ZFS, SOC
   Christoph Riplinger    : Optimizer, TS searches, QM/MM, DLPNO-CCSD(T), (RO)-DLPNO pert. Triples
   Tobias Risthaus        : Range-separated hybrids, TD-DFT gradient, RPA, STAB
   Michael Roemelt        : Original ROCIS implementation
   Masaaki Saitow         : Open-shell DLPNO-CCSD energy and density
   Barbara Sandhoefer     : DKH picture change effects
   Avijit Sen             : IP-ROCIS
   Kantharuban Sivalingam : CASSCF convergence, NEVPT2, FIC-MRCI
   Bernardo de Souza      : ESD, SOC TD-DFT
   Georgi Stoychev        : AutoAux, RI-MP2 NMR
   Willem Van den Heuvel  : Paramagnetic NMR
   Boris Wezisla          : Elementary symmetry handling
   Frank Wennmohs         : Technical directorship


 We gratefully acknowledge several colleagues who have allowed us to
 interface, adapt or use parts of their codes:
   Stefan Grimme, W. Hujo, H. Kruse,             : VdW corrections, initial TS optimization,
                  C. Bannwarth                     DFT functionals, gCP, sTDA/sTD-DF
   Ed Valeev, F. Pavosevic, A. Kumar             : LibInt (2-el integral package), F12 methods
   Garnet Chan, S. Sharma, J. Yang, R. Olivares  : DMRG
   Ulf Ekstrom                                   : XCFun DFT Library
   Mihaly Kallay                                 : mrcc  (arbitrary order and MRCC methods)
   Andreas Klamt, Michael Diedenhofen            : otool_cosmo (COSMO solvation model)
   Jiri Pittner, Ondrej Demel                    : Mk-CCSD
   Frank Weinhold                                : gennbo (NPA and NBO analysis)
   Christopher J. Cramer and Donald G. Truhlar   : smd solvation model
   Lars Goerigk                                  : TD-DFT with DH, B97 family of functionals
   V. Asgeirsson, H. Jonsson                     : NEB implementation
   FAccTs GmbH                                   : IRC, NEB, NEB-TS, Multilevel, MM, QM/MM, CI optimization
   S Lehtola, MJT Oliveira, MAL Marques          : LibXC Library


 Your calculation uses the libint2 library for the computation of 2-el integrals
 For citations please refer to: http://libint.valeyev.net

 Your ORCA version has been built with support for libXC version: 4.2.3
 For citations please refer to: https://tddft.org/programs/libxc/

 This ORCA versions uses:
   CBLAS   interface :  Fast vector & matrix operations
   LAPACKE interface :  Fast linear algebra routines
   SCALAPACK package :  Parallel linear algebra routines


Your calculation utilizes the atom-pairwise dispersion correction
with the Becke-Johnson damping scheme (D3BJ)
Cite in your paper:
S.Grimme, S.Ehrlich, L.Goerigk, J Comput Chem, (2011), 32, 1456–1465 
S.Grimme, J.Antony, S.Ehrlich and H.Krieg, J.Chem.Phys., 132, (2010), 154104 
   

----- Orbital basis set information -----
Your calculation utilizes the basis: def2-SVP
   F. Weigend and R. Ahlrichs, Phys. Chem. Chem. Phys. 7, 3297 (2005).

----- AuxJ basis set information -----
Your calculation utilizes the auxiliary basis: def2/J
   F. Weigend, Phys. Chem. Chem. Phys. 8, 1057 (2006).

================================================================================
                                        WARNINGS
                       Please study these warnings very carefully!
================================================================================


WARNING: your system is open-shell and RHF/RKS was chosen
  ===> : WILL SWITCH to UHF/UKS


WARNING: Geometry Optimization
  ===> : Switching off AutoStart
         For restart on a previous wavefunction, please use MOREAD

INFO   : the flag for use of LIBINT has been found!

================================================================================
                                       INPUT FILE
================================================================================
NAME = m-mfaV_2-6_hl1d_fbond_scan_9_orca.inp
|  1> ! LooseOpt PBE RI D3BJ def2-SVP def2/J CPCM(Water)
|  2> %cpcm
|  3>  surfacetype vdw_gaussian
|  4> end
|  5> %geom Constraints
|  6> { B 2 6 1.2872432992239329 C }
|  7>     end
|  8> end
|  9> %geom MaxIter 100 end
| 10> %pal nprocs 4
| 11> end
| 12> %output 
| 13> xyzfile=True 
| 14> end 
| 15> %scf 
| 16> maxiter 250 
| 17> end
| 18> %output
| 19> Print[P_Hirshfeld] = 1
| 20> end
| 21> % maxcore
| 22> 4000
| 23> *xyz 0 2
| 24> C   -1.24380179   0.09254959  -0.00966501 
| 25> C    0.12662310  -0.52860393   0.06281618 
| 26> C    1.32594108   0.28682815  -0.24627833 
| 27> H   -1.23918456   1.12004966   0.40880401 
| 28> H   -2.00018380  -0.49760064   0.54569941 
| 29> H   -1.59039962   0.17613738  -1.06558376 
| 30> H    0.81057384  -0.22486795   0.93567249 
| 31> H    0.22265152  -1.60459875  -0.16096709 
| 32> H    1.28242363   1.37808221  -0.10648726 
| 33> H    2.30525660  -0.19807573  -0.36401066 
| 34> *
| 35> 
| 36>                          ****END OF INPUT****
================================================================================

                       *****************************
                       * Geometry Optimization Run *
                       *****************************

Geometry optimization settings:
Update method            Update   .... BFGS
Choice of coordinates    CoordSys .... Z-matrix Internals
Initial Hessian          InHess   .... Almoef's Model

Convergence Tolerances:
Energy Change            TolE     ....  3.0000e-05 Eh
Max. Gradient            TolMAXG  ....  2.0000e-03 Eh/bohr
RMS Gradient             TolRMSG  ....  5.0000e-04 Eh/bohr
Max. Displacement        TolMAXD  ....  1.0000e-02 bohr
RMS Displacement         TolRMSD  ....  7.0000e-03 bohr
Strict Convergence                ....  False
------------------------------------------------------------------------------
                        ORCA OPTIMIZATION COORDINATE SETUP
------------------------------------------------------------------------------

The optimization will be done in new redundant internal coordinates
Making redundant internal coordinates   ...  (new redundants) done
Evaluating the initial hessian          ...  (Almloef) done
Evaluating the coordinates              ...  done
Calculating the B-matrix                .... done
Calculating the G-matrix                .... done
Diagonalizing the G-matrix              .... done
Imposing constraints:
 Iter   0:  RMS(Cart)=    0.0221247210 RMS(Int)=    0.0670813339
 Iter   1:  RMS(Cart)=    0.0078538123 RMS(Int)=    0.0238401847
 Iter   2:  RMS(Cart)=    0.0027911839 RMS(Int)=    0.0084763726
 Iter   3:  RMS(Cart)=    0.0009924048 RMS(Int)=    0.0030142597
 Iter   4:  RMS(Cart)=    0.0003529064 RMS(Int)=    0.0010719548
 Iter   5:  RMS(Cart)=    0.0001255033 RMS(Int)=    0.0003812249
 Iter   6:  RMS(Cart)=    0.0000446334 RMS(Int)=    0.0001355780
 Iter   7:  RMS(Cart)=    0.0000158733 RMS(Int)=    0.0000482168
 Iter   8:  RMS(Cart)=    0.0000056452 RMS(Int)=    0.0000171478
 Iter   9:  RMS(Cart)=    0.0000020076 RMS(Int)=    0.0000060984
 Iter  10:  RMS(Cart)=    0.0000007140 RMS(Int)=    0.0000021688
 Iter  11:  RMS(Cart)=    0.0000002539 RMS(Int)=    0.0000007713
 Iter  12:  RMS(Cart)=    0.0000000903 RMS(Int)=    0.0000002743
 Iter  13:  RMS(Cart)=    0.0000000321 RMS(Int)=    0.0000000976
CONVERGED
The first mode is                       ....   26
The number of degrees of freedom        ....   24
Storing new coordinates                 .... done

    -----------------------------------------------------------------
                    Redundant Internal Coordinates


    -----------------------------------------------------------------
         Definition                    Initial Value    Approx d2E/dq
    -----------------------------------------------------------------
      1. B(C   1,C   0)                  1.5065         0.407454   
      2. B(C   2,C   1)                  1.4453         0.444231   
      3. B(H   3,C   0)                  1.1095         0.335260   
      4. B(H   4,C   0)                  1.1087         0.336413   
      5. B(H   5,C   0)                  1.1146         0.329121   
      6. B(H   6,C   1)                  1.1335         0.289133   
      7. B(H   6,C   2)                  1.2872         0.120834 C 
      8. B(H   7,C   1)                  1.1032         0.343046   
      9. B(H   8,C   2)                  1.1011         0.345798   
     10. B(H   9,C   2)                  1.0992         0.348243   
     11. A(C   1,C   0,H   3)          111.0923         0.325137   
     12. A(H   3,C   0,H   4)          107.8810         0.284565   
     13. A(C   1,C   0,H   4)          112.1530         0.325320   
     14. A(H   3,C   0,H   5)          106.8055         0.283598   
     15. A(C   1,C   0,H   5)          111.0732         0.324151   
     16. A(H   4,C   0,H   5)          107.5991         0.283749   
     17. A(H   6,C   1,H   7)          111.6568         0.278960   
     18. A(C   0,C   1,C   2)          121.4279         0.379983   
     19. A(C   0,C   1,H   6)          119.6359         0.317357   
     20. A(C   2,C   1,H   6)           58.4034         0.321867   
     21. A(C   0,C   1,H   7)          117.0991         0.326367   
     22. A(C   2,C   1,H   7)          115.2050         0.331056   
     23. A(H   6,C   2,H   9)          104.4140         0.245451   
     24. A(C   1,C   2,H   6)           48.5948         0.280138   
     25. A(C   1,C   2,H   8)          119.1843         0.331494   
     26. A(H   8,C   2,H   9)          119.0315         0.287487   
     27. A(H   6,C   2,H   8)          103.6274         0.245202   
     28. A(C   1,C   2,H   9)          120.0950         0.331881   
     29. A(C   1,H   6,C   2)           73.0019         0.239001   
     30. D(H   6,C   1,C   0,H   3)     29.8395         0.013156   
     31. D(H   7,C   1,C   0,H   3)    170.0196         0.013156   
     32. D(H   6,C   1,C   0,H   4)    -90.9814         0.013156   
     33. D(C   2,C   1,C   0,H   4)   -159.9561         0.013156   
     34. D(H   7,C   1,C   0,H   5)    -71.2478         0.013156   
     35. D(H   6,C   1,C   0,H   5)    148.5721         0.013156   
     36. D(H   7,C   1,C   0,H   4)     49.1987         0.013156   
     37. D(C   2,C   1,C   0,H   3)    -39.1352         0.013156   
     38. D(C   2,C   1,C   0,H   5)     79.5974         0.013156   
     39. D(H   9,C   2,C   1,C   0)   -169.5963         0.015590   
     40. D(H   6,C   2,C   1,H   7)   -100.9148         0.015590   
     41. D(H   8,C   2,C   1,C   0)     25.3521         0.015590   
     42. D(H   8,C   2,C   1,H   6)    -82.3744         0.015590   
     43. D(H   6,C   2,C   1,C   0)    107.7265         0.015590   
     44. D(H   8,C   2,C   1,H   7)    176.7108         0.015590   
     45. D(H   9,C   2,C   1,H   6)     82.6772         0.015590   
     46. D(H   9,C   2,C   1,H   7)    -18.2376         0.015590   
     47. D(C   2,H   6,C   1,C   0)   -110.7543         0.071745   
     48. D(C   2,H   6,C   1,H   7)    107.0795         0.071745   
     49. D(C   1,H   6,C   2,H   8)    117.0763         0.010724   
     50. D(C   1,H   6,C   2,H   9)   -117.6217         0.010724   
    -----------------------------------------------------------------

Number of atoms                         .... 10
Number of degrees of freedom            .... 50

         *************************************************************
         *                GEOMETRY OPTIMIZATION CYCLE   1            *
         *************************************************************
---------------------------------
CARTESIAN COORDINATES (ANGSTROEM)
---------------------------------
  C     -1.245070    0.092520   -0.010622
  C      0.133517   -0.511463    0.054689
  C      1.314205    0.273441   -0.225796
  H     -1.249162    1.123465    0.399486
  H     -1.989367   -0.502286    0.556255
  H     -1.602080    0.163364   -1.064132
  H      0.845685   -0.195025    0.877846
  H      0.221436   -1.588400   -0.168044
  H      1.281042    1.364266   -0.079433
  H      2.289696   -0.219982   -0.340250

----------------------------
CARTESIAN COORDINATES (A.U.)
----------------------------
  NO LB      ZA    FRAG     MASS         X           Y           Z
   0 C     6.0000    0    12.011   -2.352842    0.174838   -0.020072
   1 C     6.0000    0    12.011    0.252310   -0.966524    0.103347
   2 C     6.0000    0    12.011    2.483487    0.516728   -0.426692
   3 H     1.0000    0     1.008   -2.360574    2.123040    0.754920
   4 H     1.0000    0     1.008   -3.759358   -0.949184    1.051169
   5 H     1.0000    0     1.008   -3.027493    0.308713   -2.010918
   6 H     1.0000    0     1.008    1.598112   -0.368544    1.658888
   7 H     1.0000    0     1.008    0.418453   -3.001640   -0.317557
   8 H     1.0000    0     1.008    2.420818    2.578089   -0.150106
   9 H     1.0000    0     1.008    4.326898   -0.415706   -0.642979

--------------------------------
INTERNAL COORDINATES (ANGSTROEM)
--------------------------------
 C      0   0   0     0.000000000000     0.00000000     0.00000000
 C      1   0   0     1.506369674895     0.00000000     0.00000000
 C      2   1   0     1.482846084513   119.93503744     0.00000000
 H      1   2   3     1.109456638793   111.09747401   319.37623254
 H      1   2   3     1.108521843728   112.15562163   198.55909775
 H      1   2   3     1.114487048377   111.06591520    78.11285806
 H      2   1   3     1.149748797868   117.95513744    72.18251319
 H      2   1   3     1.103206808376   118.13879923   210.41509137
 H      3   2   1     1.101031668560   119.11699409    25.84433397
 H      3   2   1     1.099113989575   120.02381120   190.53117798

---------------------------
INTERNAL COORDINATES (A.U.)
---------------------------
 C      0   0   0     0.000000000000     0.00000000     0.00000000
 C      1   0   0     2.846626141996     0.00000000     0.00000000
 C      2   1   0     2.802172998488   119.93503744     0.00000000
 H      1   2   3     2.096569204780   111.09747401   319.37623254
 H      1   2   3     2.094802698116   112.15562163   198.55909775
 H      1   2   3     2.106075301234   111.06591520    78.11285806
 H      2   1   3     2.172710350777   117.95513744    72.18251319
 H      2   1   3     2.084758736907   118.13879923   210.41509137
 H      3   2   1     2.080648318353   119.11699409    25.84433397
 H      3   2   1     2.077024430258   120.02381120   190.53117798

---------------------
BASIS SET INFORMATION
---------------------
There are 2 groups of distinct atoms

 Group   1 Type C   : 7s4p1d contracted to 3s2p1d pattern {511/31/1}
 Group   2 Type H   : 4s1p contracted to 2s1p pattern {31/1}

Atom   0C    basis set group =>   1
Atom   1C    basis set group =>   1
Atom   2C    basis set group =>   1
Atom   3H    basis set group =>   2
Atom   4H    basis set group =>   2
Atom   5H    basis set group =>   2
Atom   6H    basis set group =>   2
Atom   7H    basis set group =>   2
Atom   8H    basis set group =>   2
Atom   9H    basis set group =>   2
---------------------------------
AUXILIARY/J BASIS SET INFORMATION
---------------------------------
There are 2 groups of distinct atoms

 Group   1 Type C   : 12s5p4d2f1g contracted to 6s4p3d1f1g pattern {711111/2111/211/2/1}
 Group   2 Type H   : 5s2p1d contracted to 3s1p1d pattern {311/2/1}

Atom   0C    basis set group =>   1
Atom   1C    basis set group =>   1
Atom   2C    basis set group =>   1
Atom   3H    basis set group =>   2
Atom   4H    basis set group =>   2
Atom   5H    basis set group =>   2
Atom   6H    basis set group =>   2
Atom   7H    basis set group =>   2
Atom   8H    basis set group =>   2
Atom   9H    basis set group =>   2
[1589382425.241393] [ty2019:11724:0]            sys.c:618  UCX  ERROR shmget(size=2097152 flags=0xfb0) for mm_recv_desc failed: Operation not permitted, please check shared memory limits by 'ipcs -l'
[1589382425.247625] [ty2019:11721:0]            sys.c:618  UCX  ERROR shmget(size=2097152 flags=0xfb0) for mm_recv_desc failed: Operation not permitted, please check shared memory limits by 'ipcs -l'
[1589382425.249910] [ty2019:11723:0]            sys.c:618  UCX  ERROR shmget(size=2097152 flags=0xfb0) for mm_recv_desc failed: Operation not permitted, please check shared memory limits by 'ipcs -l'
[1589382425.252301] [ty2019:11722:0]            sys.c:618  UCX  ERROR shmget(size=2097152 flags=0xfb0) for mm_recv_desc failed: Operation not permitted, please check shared memory limits by 'ipcs -l'
[1589382425.259739] [ty2019:11721:0]            sys.c:618  UCX  ERROR shmget(size=2097152 flags=0xb80) for ucp_am_bufs failed: Operation not permitted, please check shared memory limits by 'ipcs -l'
[1589382425.260461] [ty2019:11722:0]            sys.c:618  UCX  ERROR shmget(size=2097152 flags=0xb80) for ucp_am_bufs failed: Operation not permitted, please check shared memory limits by 'ipcs -l'
[1589382425.266551] [ty2019:11723:0]            sys.c:618  UCX  ERROR shmget(size=2097152 flags=0xb80) for ucp_am_bufs failed: Operation not permitted, please check shared memory limits by 'ipcs -l'


           ************************************************************
           *        Program running with 4 parallel MPI-processes     *
           *              working on a common directory               *
           ************************************************************
------------------------------------------------------------------------------
                           ORCA GTO INTEGRAL CALCULATION
                           -- RI-GTO INTEGRALS CHOSEN --
------------------------------------------------------------------------------

                         BASIS SET STATISTICS AND STARTUP INFO

Gaussian basis set:
 # of primitive gaussian shells          ...   71
 # of primitive gaussian functions       ...  121
 # of contracted shells                  ...   39
 # of contracted basis functions         ...   77
 Highest angular momentum                ...    2
 Maximum contraction depth               ...    5
Auxiliary gaussian basis set:
 # of primitive gaussian shells          ...  128
 # of primitive gaussian functions       ...  322
 # of contracted shells                  ...   80
 # of contracted aux-basis functions     ...  224
 Highest angular momentum                ...    4
 Maximum contraction depth               ...    7
Ratio of auxiliary to basis functions    ...  2.91
Integral package used                  ... LIBINT
 One Electron integrals                  ... done
 Ordering auxiliary basis shells         ... done
 Integral threshhold             Thresh  ...  2.500e-11
 Primitive cut-off               TCut    ...  2.500e-12
 Pre-screening matrix                    ... done
 Shell pair data                         ... 
 Ordering of the shell pairs             ... done (   0.000 sec) 778 of 780 pairs
 Determination of significant pairs      ... done (   0.000 sec)
 Creation of shell pair data             ... done (   0.000 sec)
 Storage of shell pair data              ... [1589382425.367017] [ty2019:11724:0]            sys.c:618  UCX  ERROR shmget(size=2097152 flags=0xb80) for ucp_am_bufs failed: Operation not permitted, please check shared memory limits by 'ipcs -l'
done (   0.029 sec)
 Shell pair data done in (   0.029 sec)
 Computing two index integrals           ... done
 Cholesky decomposition of the V-matrix  ... done


Timings:
 Total evaluation time                   ...   0.130 sec (  0.002 min)
 One electron matrix time                ...   0.006 sec (  0.000 min) =  4.2%
 Schwartz matrix evaluation time         ...   0.069 sec (  0.001 min) = 53.5%
 Two index repulsion integral time       ...   0.002 sec (  0.000 min) =  1.2%
 Cholesky decomposition of V             ...   0.001 sec (  0.000 min) =  0.7%
 Three index repulsion integral time     ...   0.000 sec (  0.000 min) =  0.0%

[1589382426.258229] [ty2019:11744:0]            sys.c:618  UCX  ERROR shmget(size=2097152 flags=0xfb0) for mm_recv_desc failed: Operation not permitted, please check shared memory limits by 'ipcs -l'
[1589382426.258554] [ty2019:11743:0]            sys.c:618  UCX  ERROR shmget(size=2097152 flags=0xfb0) for mm_recv_desc failed: Operation not permitted, please check shared memory limits by 'ipcs -l'
[1589382426.263177] [ty2019:11745:0]            sys.c:618  UCX  ERROR shmget(size=2097152 flags=0xfb0) for mm_recv_desc failed: Operation not permitted, please check shared memory limits by 'ipcs -l'
[1589382426.266635] [ty2019:11742:0]            sys.c:618  UCX  ERROR shmget(size=2097152 flags=0xfb0) for mm_recv_desc failed: Operation not permitted, please check shared memory limits by 'ipcs -l'
[1589382426.273634] [ty2019:11744:0]            sys.c:618  UCX  ERROR shmget(size=2097152 flags=0xb80) for ucp_am_bufs failed: Operation not permitted, please check shared memory limits by 'ipcs -l'
[1589382426.274397] [ty2019:11743:0]            sys.c:618  UCX  ERROR shmget(size=2097152 flags=0xb80) for ucp_am_bufs failed: Operation not permitted, please check shared memory limits by 'ipcs -l'
[1589382426.274932] [ty2019:11742:0]            sys.c:618  UCX  ERROR shmget(size=2097152 flags=0xb80) for ucp_am_bufs failed: Operation not permitted, please check shared memory limits by 'ipcs -l'
[1589382426.275699] [ty2019:11745:0]            sys.c:618  UCX  ERROR shmget(size=2097152 flags=0xb80) for ucp_am_bufs failed: Operation not permitted, please check shared memory limits by 'ipcs -l'


           ************************************************************
           *        Program running with 4 parallel MPI-processes     *
           *              working on a common directory               *
           ************************************************************
-------------------------------------------------------------------------------
                                 ORCA SCF
-------------------------------------------------------------------------------

------------
SCF SETTINGS
------------
Hamiltonian:
 Density Functional     Method          .... DFT(GTOs)
 Exchange Functional    Exchange        .... PBE
   PBE kappa parameter   XKappa         ....  0.804000
   PBE mue parameter    XMuePBE         ....  0.219520
 Correlation Functional Correlation     .... PBE
   PBE beta parameter  CBetaPBE         ....  0.066725
 LDA part of GGA corr.  LDAOpt          .... PW91-LDA
 Gradients option       PostSCFGGA      .... off
   Density functional embedding theory  .... OFF
   NL short-range parameter             ....  6.400000
 RI-approximation to the Coulomb term is turned on
   Number of auxiliary basis functions  .... 224


General Settings:
 Integral files         IntName         .... m-mfaV_2-6_hl1d_fbond_scan_9_orca
 Hartree-Fock type      HFTyp           .... UHF
 Total Charge           Charge          ....    0
 Multiplicity           Mult            ....    2
 Number of Electrons    NEL             ....   25
 Basis Dimension        Dim             ....   77
 Nuclear Repulsion      ENuc            ....     76.7932215487 Eh

Convergence Acceleration:
 DIIS                   CNVDIIS         .... on
   Start iteration      DIISMaxIt       ....    12
   Startup error        DIISStart       ....  0.200000
   # of expansion vecs  DIISMaxEq       ....     5
   Bias factor          DIISBfac        ....   1.050
   Max. coefficient     DIISMaxC        ....  10.000
 Newton-Raphson         CNVNR           .... off
 SOSCF                  CNVSOSCF        .... off
 Level Shifting         CNVShift        .... on
   Level shift para.    LevelShift      ....    0.2500
   Turn off err/grad.   ShiftErr        ....    0.0010
 Zerner damping         CNVZerner       .... off
 Static damping         CNVDamp         .... on
   Fraction old density DampFac         ....    0.7000
   Max. Damping (<1)    DampMax         ....    0.9800
   Min. Damping (>=0)   DampMin         ....    0.0000
   Turn off err/grad.   DampErr         ....    0.1000
 Fernandez-Rico         CNVRico         .... off

SCF Procedure:
 Maximum # iterations   MaxIter         ....   250
 SCF integral mode      SCFMode         .... Direct
   Integral package                     .... LIBINT
 Reset frequency        DirectResetFreq ....    20
 Integral Threshold     Thresh          ....  2.500e-11 Eh
 Primitive CutOff       TCut            ....  2.500e-12 Eh

Convergence Tolerance:
 Convergence Check Mode ConvCheckMode   .... Total+1el-Energy
 Convergence forced     ConvForced      .... 0
 Energy Change          TolE            ....  1.000e-08 Eh
 1-El. energy change                    ....  1.000e-05 Eh
 DIIS Error             TolErr          ....  5.000e-07


Diagonalization of the overlap matrix:
Smallest eigenvalue                        ... 3.311e-03
Time for diagonalization                   ...    0.003 sec
Threshold for overlap eigenvalues          ... 1.000e-08
Number of eigenvalues below threshold      ... 0
Time for construction of square roots      ...    0.001 sec
Total time needed                          ...    0.004 sec

-------------------
DFT GRID GENERATION
-------------------

General Integration Accuracy     IntAcc      ...  4.340
Radial Grid Type                 RadialGrid  ... Gauss-Chebyshev
Angular Grid (max. acc.)         AngularGrid ... Lebedev-110
Angular grid pruning method      GridPruning ... 3 (G Style)
Weight generation scheme         WeightScheme... Becke
Basis function cutoff            BFCut       ...    1.0000e-11
Integration weight cutoff        WCut        ...    1.0000e-14
Grids for H and He will be reduced by one unit

# of grid points (after initial pruning)     ...  10526 (   0.0 sec)
# of grid points (after weights+screening)   ...  10030 (   0.0 sec)
nearest neighbour list constructed           ...    0.0 sec
Grid point re-assignment to atoms done       ...    0.0 sec
Grid point division into batches done        ...    0.0 sec
Reduced shell lists constructed in    0.0 sec

Total number of grid points                  ...    10030
Total number of batches                      ...      163
Average number of points per batch           ...       61
Average number of grid points per atom       ...     1003
Average number of shells per batch           ...    36.14 (92.67%)
Average number of basis functions per batch  ...    71.48 (92.83%)
Average number of large shells per batch     ...    33.64 (93.08%)
Average number of large basis fcns per batch ...    66.26 (92.70%)
Maximum spatial batch extension              ...  15.41, 15.16, 18.66 au
Average spatial batch extension              ...   0.56,  0.53,  0.65 au

Time for grid setup =    0.029 sec

------------------------------
INITIAL GUESS: MODEL POTENTIAL
------------------------------
Loading Hartree-Fock densities                     ... done
Calculating cut-offs                               ... done
Setting up the integral package                    ... done
Initializing the effective Hamiltonian             ... done
Starting the Coulomb interaction                   ... done (   0.0 sec)
Reading the grid                                   ... done
Mapping shells                                     ... done
Starting the XC term evaluation                    ... done (   0.0 sec)
  promolecular density results
     # of electrons  =     24.996909786
     EX              =    -17.384676598
     EC              =     -0.787156959
     EX+EC           =    -18.171833557
Transforming the Hamiltonian                       ... done (   0.0 sec)
Diagonalizing the Hamiltonian                      ... done (   0.0 sec)
Back transforming the eigenvectors                 ... done (   0.0 sec)
Now organizing SCF variables                       ... done
                      ------------------
                      INITIAL GUESS DONE (   0.1 sec)
                      ------------------

--------------------
CPCM SOLVATION MODEL
--------------------
CPCM parameters:
  Epsilon                                         ...      80.4000
  Refrac                                          ...       1.3300
  Rsolv                                           ...       1.3000
  Surface type                                    ... GAUSSIAN VDW
  Epsilon function type                           ...         CPCM
Radii:
 Radius for C  used is    3.8550 Bohr (=   2.0400 Ang.)
 Radius for H  used is    2.4944 Bohr (=   1.3200 Ang.)
Calculating surface                               ...        done! (  0.0s)
GEPOL surface points                              ...          600
GEPOL Volume                                      ...     530.6035
GEPOL Surface-area                                ...     348.6834
Calculating surface distance matrix               ...        done! (  0.0s)
Performing Cholesky decomposition & store         ...        done! (  0.0s)
Overall time for CPCM initialization              ...                 0.0s
--------------
SCF ITERATIONS
--------------
ITER       Energy         Delta-E        Max-DP      RMS-DP      [F,P]     Damp
               ***  Starting incremental Fock matrix formation  ***
  0   -118.0453343817   0.000000000000 0.05174849  0.00184614  0.1523499 0.7000
  1   -118.0940678752  -0.048733493454 0.03745015  0.00135785  0.0730082 0.7000
                               ***Turning on DIIS***
  2   -118.1117405835  -0.017672708367 0.05252372  0.00218484  0.0207528 0.0000
  3   -118.1353225690  -0.023581985440 0.02546653  0.00090801  0.0463433 0.0000
  4   -118.1443283097  -0.009005740700 0.00820187  0.00030732  0.0098642 0.0000
  5   -118.1448619439  -0.000533634220 0.00276794  0.00012014  0.0025960 0.0000
  6   -118.1449061520  -0.000044208122 0.00295660  0.00010196  0.0009583 0.0000
  7   -118.1449125951  -0.000006443035 0.00036887  0.00001043  0.0004845 0.0000
  8   -118.1449134237  -0.000000828659 0.00022118  0.00000557  0.0000697 0.0000
  9   -118.1449134880  -0.000000064310 0.00003633  0.00000115  0.0000126 0.0000
 10   -118.1449134929  -0.000000004828 0.00001257  0.00000045  0.0000111 0.0000
 11   -118.1449134945  -0.000000001654 0.00000562  0.00000018  0.0000018 0.0000
 12   -118.1449134943   0.000000000182 0.00000324  0.00000011  0.0000011 0.0000
                 **** Energy Check signals convergence ****

               *****************************************************
               *                     SUCCESS                       *
               *           SCF CONVERGED AFTER  13 CYCLES          *
               *****************************************************

Setting up the final grid:

General Integration Accuracy     IntAcc      ...  4.670
Radial Grid Type                 RadialGrid  ... Gauss-Chebyshev
Angular Grid (max. acc.)         AngularGrid ... Lebedev-302
Angular grid pruning method      GridPruning ... 3 (G Style)
Weight generation scheme         WeightScheme... Becke
Basis function cutoff            BFCut       ...    1.0000e-11
Integration weight cutoff        WCut        ...    1.0000e-14
Grids for H and He will be reduced by one unit

# of grid points (after initial pruning)     ...  42394 (   0.0 sec)
# of grid points (after weights+screening)   ...  39904 (   0.0 sec)
nearest neighbour list constructed           ...    0.0 sec
Grid point re-assignment to atoms done       ...    0.0 sec
Grid point division into batches done        ...    0.1 sec
Reduced shell lists constructed in    0.1 sec

Total number of grid points                  ...    39904
Total number of batches                      ...      628
Average number of points per batch           ...       63
Average number of grid points per atom       ...     3990
Average number of shells per batch           ...    35.10 (90.00%)
Average number of basis functions per batch  ...    69.30 (90.00%)
Average number of large shells per batch     ...    31.73 (90.41%)
Average number of large basis fcns per batch ...    61.96 (89.41%)
Maximum spatial batch extension              ...  13.97, 13.61, 18.01 au
Average spatial batch extension              ...   0.41,  0.40,  0.47 au

Final grid set up in    0.1 sec
Final integration                            ... done (   0.1 sec)
Change in XC energy                          ...     0.000497579
Integrated number of electrons               ...    24.999926285
Previous integrated no of electrons          ...    25.002232165

----------------
TOTAL SCF ENERGY
----------------

Total Energy       :         -118.14441591 Eh           -3214.87300 eV

Components:
Nuclear Repulsion  :           76.79322155 Eh            2089.64979 eV
Electronic Energy  :         -194.93763746 Eh           -5304.52279 eV
One Electron Energy:         -309.18065031 Eh           -8413.23322 eV
Two Electron Energy:          114.24301284 Eh            3108.71042 eV
CPCM Dielectric    :           -0.00233074 Eh              -0.06342 eV

Virial components:
Potential Energy   :         -234.94458315 Eh           -6393.16713 eV
Kinetic Energy     :          116.80016723 Eh            3178.29413 eV
Virial Ratio       :            2.01150896


DFT components:
N(Alpha)           :       12.999963479609 electrons
N(Beta)            :       11.999962805341 electrons
N(Total)           :       24.999926284950 electrons
E(X)               :      -17.848429594762 Eh       
E(C)               :       -0.798927350272 Eh       
E(XC)              :      -18.647356945033 Eh       
DFET-embed. en.    :        0.000000000000 Eh       
CPCM Solvation Model Properties:
Surface-charge          :           -0.01995802
Charge-correction       :            0.00000667 Eh               0.00018 eV
Free-energy (cav+disp)  :            0.00315763 Eh               0.08592 eV
Corrected G(solv)       :         -118.14125162 Eh           -3214.78689 eV

---------------
SCF CONVERGENCE
---------------

  Last Energy change         ...    4.0433e-10  Tolerance :   1.0000e-08
  Last MAX-Density change    ...    4.0343e-07  Tolerance :   1.0000e-07
  Last RMS-Density change    ...    1.4132e-08  Tolerance :   5.0000e-09
  Last DIIS Error            ...    1.2713e-07  Tolerance :   5.0000e-07

             **** THE GBW FILE WAS UPDATED (m-mfaV_2-6_hl1d_fbond_scan_9_orca.gbw) ****
             **** DENSITY FILE WAS UPDATED (m-mfaV_2-6_hl1d_fbond_scan_9_orca.scfp) ****
             **** ENERGY FILE WAS UPDATED (m-mfaV_2-6_hl1d_fbond_scan_9_orca.en.tmp) ****
----------------------
UHF SPIN CONTAMINATION
----------------------

Warning: in a DFT calculation there is little theoretical justification to 
         calculate <S**2> as in Hartree-Fock theory. We will do it anyways
         but you should keep in mind that the values have only limited relevance

Expectation value of <S**2>     :     0.753411
Ideal value S*(S+1) for S=0.5   :     0.750000
Deviation                       :     0.003411

             **** THE GBW FILE WAS UPDATED (m-mfaV_2-6_hl1d_fbond_scan_9_orca.gbw) ****
             **** DENSITY FILE WAS UPDATED (m-mfaV_2-6_hl1d_fbond_scan_9_orca.scfp) ****
----------------
ORBITAL ENERGIES
----------------
                 SPIN UP ORBITALS
  NO   OCC          E(Eh)            E(eV) 
   0   1.0000      -9.900878      -269.4166 
   1   1.0000      -9.893320      -269.2109 
   2   1.0000      -9.891052      -269.1492 
   3   1.0000      -0.746222       -20.3057 
   4   1.0000      -0.619856       -16.8671 
   5   1.0000      -0.494947       -13.4682 
   6   1.0000      -0.424615       -11.5544 
   7   1.0000      -0.393023       -10.6947 
   8   1.0000      -0.363795        -9.8994 
   9   1.0000      -0.331240        -9.0135 
  10   1.0000      -0.304610        -8.2889 
  11   1.0000      -0.284980        -7.7547 
  12   1.0000      -0.097702        -2.6586 
  13   0.0000       0.049416         1.3447 
  14   0.0000       0.078206         2.1281 
  15   0.0000       0.086208         2.3458 
  16   0.0000       0.098484         2.6799 
  17   0.0000       0.119942         3.2638 
  18   0.0000       0.131223         3.5707 
  19   0.0000       0.134369         3.6564 
  20   0.0000       0.205463         5.5909 
  21   0.0000       0.255219         6.9449 
  22   0.0000       0.343432         9.3453 
  23   0.0000       0.366129         9.9629 
  24   0.0000       0.385345        10.4858 
  25   0.0000       0.442992        12.0544 
  26   0.0000       0.473406        12.8820 
  27   0.0000       0.484195        13.1756 
  28   0.0000       0.549550        14.9540 
  29   0.0000       0.581401        15.8207 
  30   0.0000       0.590314        16.0633 
  31   0.0000       0.607190        16.5225 
  32   0.0000       0.609955        16.5977 
  33   0.0000       0.627075        17.0636 
  34   0.0000       0.642594        17.4859 
  35   0.0000       0.646837        17.6013 
  36   0.0000       0.657227        17.8840 
  37   0.0000       0.661891        18.0110 
  38   0.0000       0.697843        18.9893 
  39   0.0000       0.812554        22.1107 
  40   0.0000       0.915249        24.9052 
  41   0.0000       1.127012        30.6676 
  42   0.0000       1.132341        30.8126 
  43   0.0000       1.297015        35.2936 
  44   0.0000       1.362322        37.0707 
  45   0.0000       1.454813        39.5875 
  46   0.0000       1.469852        39.9967 
  47   0.0000       1.478499        40.2320 
  48   0.0000       1.513757        41.1914 
  49   0.0000       1.586786        43.1786 
  50   0.0000       1.648383        44.8548 
  51   0.0000       1.666130        45.3377 
  52   0.0000       1.677583        45.6494 
  53   0.0000       1.717356        46.7316 
  54   0.0000       1.724305        46.9207 
  55   0.0000       1.771618        48.2082 
  56   0.0000       1.786709        48.6188 
  57   0.0000       1.868191        50.8361 
  58   0.0000       1.902492        51.7694 
  59   0.0000       1.979602        53.8677 
  60   0.0000       2.037515        55.4436 
  61   0.0000       2.137638        58.1681 
  62   0.0000       2.178083        59.2687 
  63   0.0000       2.229416        60.6655 
  64   0.0000       2.275998        61.9331 
  65   0.0000       2.313053        62.9414 
  66   0.0000       2.389829        65.0305 
  67   0.0000       2.427432        66.0538 
  68   0.0000       2.436141        66.2908 
  69   0.0000       2.555923        69.5502 
  70   0.0000       2.677804        72.8668 
  71   0.0000       2.758832        75.0716 
  72   0.0000       2.818760        76.7023 
  73   0.0000       2.848280        77.5056 
  74   0.0000       2.869571        78.0850 
  75   0.0000       2.934520        79.8523 
  76   0.0000       3.052651        83.0668 

                 SPIN DOWN ORBITALS
  NO   OCC          E(Eh)            E(eV) 
   0   1.0000      -9.895759      -269.2773 
   1   1.0000      -9.891155      -269.1520 
   2   1.0000      -9.883920      -268.9551 
   3   1.0000      -0.732378       -19.9290 
   4   1.0000      -0.614155       -16.7120 
   5   1.0000      -0.480531       -13.0759 
   6   1.0000      -0.414562       -11.2808 
   7   1.0000      -0.384291       -10.4571 
   8   1.0000      -0.357873        -9.7382 
   9   1.0000      -0.327775        -8.9192 
  10   1.0000      -0.300583        -8.1793 
  11   1.0000      -0.268874        -7.3164 
  12   0.0000      -0.043626        -1.1871 
  13   0.0000       0.052875         1.4388 
  14   0.0000       0.080711         2.1963 
  15   0.0000       0.092332         2.5125 
  16   0.0000       0.109250         2.9729 
  17   0.0000       0.122447         3.3320 
  18   0.0000       0.134817         3.6686 
  19   0.0000       0.138344         3.7645 
  20   0.0000       0.211900         5.7661 
  21   0.0000       0.264095         7.1864 
  22   0.0000       0.352548         9.5933 
  23   0.0000       0.368853        10.0370 
  24   0.0000       0.388326        10.5669 
  25   0.0000       0.460736        12.5373 
  26   0.0000       0.481485        13.1019 
  27   0.0000       0.513141        13.9633 
  28   0.0000       0.563200        15.3254 
  29   0.0000       0.588737        16.0204 
  30   0.0000       0.599054        16.3011 
  31   0.0000       0.615806        16.7569 
  32   0.0000       0.618317        16.8253 
  33   0.0000       0.634184        17.2570 
  34   0.0000       0.649280        17.6678 
  35   0.0000       0.651168        17.7192 
  36   0.0000       0.663506        18.0549 
  37   0.0000       0.673349        18.3228 
  38   0.0000       0.707335        19.2476 
  39   0.0000       0.818984        22.2857 
  40   0.0000       0.923058        25.1177 
  41   0.0000       1.132110        30.8063 
  42   0.0000       1.145251        31.1639 
  43   0.0000       1.302973        35.4557 
  44   0.0000       1.374247        37.3952 
  45   0.0000       1.457709        39.6663 
  46   0.0000       1.474511        40.1235 
  47   0.0000       1.486068        40.4380 
  48   0.0000       1.521154        41.3927 
  49   0.0000       1.590667        43.2842 
  50   0.0000       1.661010        45.1984 
  51   0.0000       1.678522        45.6749 
  52   0.0000       1.688105        45.9357 
  53   0.0000       1.719934        46.8018 
  54   0.0000       1.729486        47.0617 
  55   0.0000       1.776420        48.3388 
  56   0.0000       1.792964        48.7890 
  57   0.0000       1.869862        50.8815 
  58   0.0000       1.916991        52.1640 
  59   0.0000       1.992537        54.2197 
  60   0.0000       2.049751        55.7765 
  61   0.0000       2.145361        58.3782 
  62   0.0000       2.195020        59.7295 
  63   0.0000       2.240093        60.9560 
  64   0.0000       2.294448        62.4351 
  65   0.0000       2.328114        63.3512 
  66   0.0000       2.399663        65.2981 
  67   0.0000       2.441923        66.4481 
  68   0.0000       2.445502        66.5455 
  69   0.0000       2.560792        69.6827 
  70   0.0000       2.682734        73.0009 
  71   0.0000       2.778689        75.6120 
  72   0.0000       2.828904        76.9784 
  73   0.0000       2.853220        77.6401 
  74   0.0000       2.873529        78.1927 
  75   0.0000       2.940966        80.0278 
  76   0.0000       3.059051        83.2410 

                    ********************************
                    * MULLIKEN POPULATION ANALYSIS *
                    ********************************

--------------------------------------------
MULLIKEN ATOMIC CHARGES AND SPIN POPULATIONS
--------------------------------------------
   0 C :   -0.013689   -0.026853
   1 C :   -0.134076    0.351004
   2 C :   -0.180599    0.736731
   3 H :    0.030229    0.003835
   4 H :    0.038788    0.001287
   5 H :    0.033965    0.038406
   6 H :    0.068561   -0.028011
   7 H :    0.051187   -0.009240
   8 H :    0.053468   -0.034108
   9 H :    0.052167   -0.033052
Sum of atomic charges         :    0.0000000
Sum of atomic spin populations:    1.0000000

-----------------------------------------------------
MULLIKEN REDUCED ORBITAL CHARGES AND SPIN POPULATIONS
-----------------------------------------------------
CHARGE
  0 C s       :     3.003640  s :     3.003640
      pz      :     1.015261  p :     2.984525
      px      :     0.966056
      py      :     1.003208
      dz2     :     0.004979  d :     0.025523
      dxz     :     0.006647
      dyz     :     0.003157
      dx2y2   :     0.005817
      dxy     :     0.004923
  1 C s       :     3.113206  s :     3.113206
      pz      :     1.083798  p :     2.981768
      px      :     0.908986
      py      :     0.988984
      dz2     :     0.004352  d :     0.039103
      dxz     :     0.011037
      dyz     :     0.003297
      dx2y2   :     0.010619
      dxy     :     0.009798
  2 C s       :     3.171440  s :     3.171440
      pz      :     1.108151  p :     2.981932
      px      :     0.933546
      py      :     0.940234
      dz2     :     0.004588  d :     0.027228
      dxz     :     0.004701
      dyz     :     0.003871
      dx2y2   :     0.007382
      dxy     :     0.006685
  3 H s       :     0.946645  s :     0.946645
      pz      :     0.006433  p :     0.023126
      px      :     0.004420
      py      :     0.012273
  4 H s       :     0.938446  s :     0.938446
      pz      :     0.007475  p :     0.022766
      px      :     0.007978
      py      :     0.007313
  5 H s       :     0.943053  s :     0.943053
      pz      :     0.012353  p :     0.022982
      px      :     0.005309
      py      :     0.005320
  6 H s       :     0.886341  s :     0.886341
      pz      :     0.018167  p :     0.045098
      px      :     0.015410
      py      :     0.011521
  7 H s       :     0.925862  s :     0.925862
      pz      :     0.006301  p :     0.022952
      px      :     0.003379
      py      :     0.013272
  8 H s       :     0.922056  s :     0.922056
      pz      :     0.006626  p :     0.024475
      px      :     0.004104
      py      :     0.013746
  9 H s       :     0.923474  s :     0.923474
      pz      :     0.006884  p :     0.024359
      px      :     0.011830
      py      :     0.005645

SPIN
  0 C s       :    -0.011690  s :    -0.011690
      pz      :    -0.008311  p :    -0.017893
      px      :    -0.007689
      py      :    -0.001893
      dz2     :     0.000395  d :     0.002730
      dxz     :     0.001805
      dyz     :     0.000491
      dx2y2   :     0.000027
      dxy     :     0.000013
  1 C s       :     0.054508  s :     0.054508
      pz      :     0.291826  p :     0.294374
      px      :     0.000316
      py      :     0.002233
      dz2     :     0.001800  d :     0.002122
      dxz     :    -0.000038
      dyz     :     0.000300
      dx2y2   :     0.000182
      dxy     :    -0.000121
  2 C s       :     0.045971  s :     0.045971
      pz      :     0.643227  p :     0.691450
      px      :     0.016086
      py      :     0.032137
      dz2     :    -0.001705  d :    -0.000690
      dxz     :     0.000850
      dyz     :     0.000218
      dx2y2   :     0.000102
      dxy     :    -0.000155
  3 H s       :     0.003916  s :     0.003916
      pz      :    -0.000011  p :    -0.000081
      px      :    -0.000036
      py      :    -0.000033
  4 H s       :     0.001377  s :     0.001377
      pz      :    -0.000023  p :    -0.000090
      px      :    -0.000046
      py      :    -0.000021
  5 H s       :     0.038474  s :     0.038474
      pz      :    -0.000209  p :    -0.000067
      px      :     0.000046
      py      :     0.000096
  6 H s       :    -0.040269  s :    -0.040269
      pz      :     0.000191  p :     0.012259
      px      :     0.008481
      py      :     0.003587
  7 H s       :    -0.011149  s :    -0.011149
      pz      :     0.001799  p :     0.001909
      px      :     0.000008
      py      :     0.000103
  8 H s       :    -0.038196  s :    -0.038196
      pz      :     0.003931  p :     0.004089
      px      :    -0.000077
      py      :     0.000234
  9 H s       :    -0.037086  s :    -0.037086
      pz      :     0.003983  p :     0.004034
      px      :     0.000086
      py      :    -0.000036


                     *******************************
                     * LOEWDIN POPULATION ANALYSIS *
                     *******************************

-------------------------------------------
LOEWDIN ATOMIC CHARGES AND SPIN POPULATIONS
-------------------------------------------
   0 C :   -0.073834    0.003801
   1 C :   -0.081241    0.291413
   2 C :   -0.121151    0.602014
   3 H :    0.035435    0.004772
   4 H :    0.033972    0.001500
   5 H :    0.029250    0.029241
   6 H :    0.079187    0.050433
   7 H :    0.037460    0.008553
   8 H :    0.029319    0.004027
   9 H :    0.031603    0.004246

----------------------------------------------------
LOEWDIN REDUCED ORBITAL CHARGES AND SPIN POPULATIONS
----------------------------------------------------
CHARGE
  0 C s       :     2.848264  s :     2.848264
      pz      :     1.068185  p :     3.154988
      px      :     1.023163
      py      :     1.063640
      dz2     :     0.014763  d :     0.070582
      dxz     :     0.016941
      dyz     :     0.008904
      dx2y2   :     0.016130
      dxy     :     0.013844
  1 C s       :     2.835112  s :     2.835112
      pz      :     1.110222  p :     3.146464
      px      :     0.986110
      py      :     1.050132
      dz2     :     0.009429  d :     0.099664
      dxz     :     0.026876
      dyz     :     0.008607
      dx2y2   :     0.029507
      dxy     :     0.025245
  2 C s       :     2.890206  s :     2.890206
      pz      :     1.095106  p :     3.156250
      px      :     1.028404
      py      :     1.032741
      dz2     :     0.010870  d :     0.074695
      dxz     :     0.012548
      dyz     :     0.010054
      dx2y2   :     0.021995
      dxy     :     0.019229
  3 H s       :     0.900659  s :     0.900659
      pz      :     0.015949  p :     0.063906
      px      :     0.011808
      py      :     0.036148
  4 H s       :     0.902479  s :     0.902479
      pz      :     0.019584  p :     0.063549
      px      :     0.023999
      py      :     0.019965
  5 H s       :     0.906181  s :     0.906181
      pz      :     0.037051  p :     0.064570
      px      :     0.015056
      py      :     0.012463
  6 H s       :     0.760037  s :     0.760037
      pz      :     0.062458  p :     0.160776
      px      :     0.062256
      py      :     0.036062
  7 H s       :     0.892302  s :     0.892302
      pz      :     0.020511  p :     0.070238
      px      :     0.010241
      py      :     0.039486
  8 H s       :     0.895114  s :     0.895114
      pz      :     0.023444  p :     0.075567
      px      :     0.010671
      py      :     0.041451
  9 H s       :     0.892598  s :     0.892598
      pz      :     0.023735  p :     0.075799
      px      :     0.035430
      py      :     0.016634

SPIN
  0 C s       :     0.000845  s :     0.000845
      pz      :    -0.003377  p :    -0.005003
      px      :    -0.001698
      py      :     0.000072
      dz2     :     0.001327  d :     0.007959
      dxz     :     0.004908
      dyz     :     0.001297
      dx2y2   :     0.000278
      dxy     :     0.000149
  1 C s       :     0.014563  s :     0.014563
      pz      :     0.263389  p :     0.269688
      px      :     0.003211
      py      :     0.003088
      dz2     :     0.003890  d :     0.007162
      dxz     :     0.001137
      dyz     :     0.001667
      dx2y2   :     0.000379
      dxy     :     0.000089
  2 C s       :     0.018081  s :     0.018081
      pz      :     0.551588  p :     0.580121
      px      :     0.013212
      py      :     0.015321
      dz2     :    -0.000992  d :     0.003811
      dxz     :     0.003713
      dyz     :     0.001933
      dx2y2   :    -0.000339
      dxy     :    -0.000503
  3 H s       :     0.005002  s :     0.005002
      pz      :    -0.000019  p :    -0.000230
      px      :    -0.000101
      py      :    -0.000111
  4 H s       :     0.001814  s :     0.001814
      pz      :    -0.000115  p :    -0.000315
      px      :    -0.000132
      py      :    -0.000067
  5 H s       :     0.028029  s :     0.028029
      pz      :     0.000075  p :     0.001213
      px      :     0.000766
      py      :     0.000371
  6 H s       :    -0.015518  s :    -0.015518
      pz      :     0.003970  p :     0.065951
      px      :     0.043060
      py      :     0.018921
  7 H s       :    -0.001817  s :    -0.001817
      pz      :     0.009291  p :     0.010371
      px      :     0.000276
      py      :     0.000803
  8 H s       :    -0.016253  s :    -0.016253
      pz      :     0.017727  p :     0.020280
      px      :     0.000207
      py      :     0.002345
  9 H s       :    -0.016098  s :    -0.016098
      pz      :     0.017925  p :     0.020345
      px      :     0.001577
      py      :     0.000843


                      *****************************
                      * MAYER POPULATION ANALYSIS *
                      *****************************

  NA   - Mulliken gross atomic population
  ZA   - Total nuclear charge
  QA   - Mulliken gross atomic charge
  VA   - Mayer's total valence
  BVA  - Mayer's bonded valence
  FA   - Mayer's free valence

  ATOM       NA         ZA         QA         VA         BVA        FA
  0 C      6.0137     6.0000    -0.0137     3.9792     3.9788     0.0005
  1 C      6.1341     6.0000    -0.1341     3.9624     3.8422     0.1202
  2 C      6.1806     6.0000    -0.1806     3.7530     3.3352     0.4178
  3 H      0.9698     1.0000     0.0302     0.9909     0.9909     0.0000
  4 H      0.9612     1.0000     0.0388     0.9855     0.9855     0.0000
  5 H      0.9660     1.0000     0.0340     0.9833     0.9817     0.0016
  6 H      0.9314     1.0000     0.0686     1.0426     1.0401     0.0025
  7 H      0.9488     1.0000     0.0512     0.9799     0.9797     0.0002
  8 H      0.9465     1.0000     0.0535     0.9941     0.9926     0.0015
  9 H      0.9478     1.0000     0.0522     0.9879     0.9865     0.0014

  Mayer bond orders larger than 0.100000
B(  0-C ,  1-C ) :   1.1101 B(  0-C ,  3-H ) :   0.9559 B(  0-C ,  4-H ) :   0.9622 
B(  0-C ,  5-H ) :   0.9512 B(  1-C ,  2-C ) :   1.0503 B(  1-C ,  6-H ) :   0.6815 
B(  1-C ,  7-H ) :   0.9466 B(  2-C ,  6-H ) :   0.3343 B(  2-C ,  8-H ) :   0.9641 
B(  2-C ,  9-H ) :   0.9617 


------------------
HIRSHFELD ANALYSIS
------------------

Total integrated alpha density =     13.002173262
Total integrated beta density  =     12.000058903

  ATOM     CHARGE      SPIN    
   0 C   -0.073798    0.029016
   1 C   -0.056242    0.272166
   2 C   -0.111654    0.505159
   3 H    0.032799    0.004720
   4 H    0.029183    0.003590
   5 H    0.023594    0.027442
   6 H    0.059303    0.059631
   7 H    0.036380    0.023629
   8 H    0.027340    0.038740
   9 H    0.030865    0.038021

  TOTAL  -0.002232    1.002114

-------
TIMINGS
-------

Total SCF time: 0 days 0 hours 0 min 3 sec 

Total time                  ....       3.659 sec
Sum of individual times     ....       3.568 sec  ( 97.5%)

Fock matrix formation       ....       3.276 sec  ( 89.5%)
  Split-RI-J                ....       0.932 sec  ( 28.4% of F)
  XC integration            ....       0.299 sec  (  9.1% of F)
    Basis function eval.    ....       0.088 sec  ( 29.4% of XC)
    Density eval.           ....       0.058 sec  ( 19.5% of XC)
    XC-Functional eval.     ....       0.028 sec  (  9.4% of XC)
    XC-Potential eval.      ....       0.098 sec  ( 32.8% of XC)
Diagonalization             ....       0.015 sec  (  0.4%)
Density matrix formation    ....       0.001 sec  (  0.0%)
Population analysis         ....       0.018 sec  (  0.5%)
Initial guess               ....       0.079 sec  (  2.2%)
Orbital Transformation      ....       0.000 sec  (  0.0%)
Orbital Orthonormalization  ....       0.000 sec  (  0.0%)
DIIS solution               ....       0.006 sec  (  0.2%)
Grid generation             ....       0.173 sec  (  4.7%)


-------------------------------------------------------------------------------
                          DFT DISPERSION CORRECTION                            
                                                                               
                              DFTD3 V3.1  Rev 1                                
                          USING Becke-Johnson damping                          
-------------------------------------------------------------------------------
The PBE functional is recognized
Active option DFTDOPT                   ...         4   

molecular C6(AA) [au] = 630.667197 


            DFT-D V3
 parameters
 s6 scaling factor         :     1.0000 
 a1 scaling factor         :     0.4289 
 s8 scaling factor         :     0.7875 
 a2 scaling factor         :     4.4407 
 ad hoc parameters k1-k3   :    16.0000     1.3333    -4.0000 

 Edisp/kcal,au: -3.222821268585  -0.005135892059 
 E6   /kcal   :  -2.347817311 
 E8   /kcal   :  -0.875003958 
 % E8         :  27.150247714 

-------------------------   ----------------
Dispersion correction           -0.005135892
-------------------------   ----------------


-------------------------   --------------------
FINAL SINGLE POINT ENERGY      -118.149551806699
-------------------------   --------------------

[1589382430.846586] [ty2019:11771:0]            sys.c:618  UCX  ERROR shmget(size=2097152 flags=0xfb0) for mm_recv_desc failed: Operation not permitted, please check shared memory limits by 'ipcs -l'
[1589382430.850903] [ty2019:11770:0]            sys.c:618  UCX  ERROR shmget(size=2097152 flags=0xfb0) for mm_recv_desc failed: Operation not permitted, please check shared memory limits by 'ipcs -l'
[1589382430.851801] [ty2019:11768:0]            sys.c:618  UCX  ERROR shmget(size=2097152 flags=0xfb0) for mm_recv_desc failed: Operation not permitted, please check shared memory limits by 'ipcs -l'
[1589382430.855988] [ty2019:11769:0]            sys.c:618  UCX  ERROR shmget(size=2097152 flags=0xfb0) for mm_recv_desc failed: Operation not permitted, please check shared memory limits by 'ipcs -l'
[1589382430.862096] [ty2019:11770:0]            sys.c:618  UCX  ERROR shmget(size=2097152 flags=0xb80) for ucp_am_bufs failed: Operation not permitted, please check shared memory limits by 'ipcs -l'
[1589382430.862110] [ty2019:11768:0]            sys.c:618  UCX  ERROR shmget(size=2097152 flags=0xb80) for ucp_am_bufs failed: Operation not permitted, please check shared memory limits by 'ipcs -l'


           ************************************************************
           *        Program running with 4 parallel MPI-processes     *
           *              working on a common directory               *
           ************************************************************
[1589382430.866055] [ty2019:11769:0]            sys.c:618  UCX  ERROR shmget(size=2097152 flags=0xb80) for ucp_am_bufs failed: Operation not permitted, please check shared memory limits by 'ipcs -l'
------------------------------------------------------------------------------
                         ORCA SCF GRADIENT CALCULATION
------------------------------------------------------------------------------

[1589382430.871119] [ty2019:11771:0]            sys.c:618  UCX  ERROR shmget(size=2097152 flags=0xb80) for ucp_am_bufs failed: Operation not permitted, please check shared memory limits by 'ipcs -l'
Gradient of the Kohn-Sham DFT energy:
Kohn-Sham wavefunction type      ... UKS
Hartree-Fock exchange scaling    ...    0.000
Number of operators              ...    2
Number of atoms                  ...   10
Basis set dimensions             ...   77
Integral neglect threshold       ... 2.5e-11
Integral primitive cutoff        ... 2.5e-12

Nuclear repulsion gradient       ... done
One Electron Gradient            ... done
Pre-screening matrix             ... done
RI-J gradient                    ... done
Exchange-correlation gradient    ... done
Dispersion correction            ... done

------------------
CARTESIAN GRADIENT
------------------

   1   C   :   -0.001508696   -0.000386132   -0.000826679
   2   C   :    0.037113347    0.023581150    0.013271327
   3   C   :   -0.039283456   -0.033449923    0.044699921
   4   H   :    0.000196393   -0.000324477   -0.000142326
   5   H   :   -0.000205592    0.000037838    0.000136408
   6   H   :    0.000205023   -0.000508926    0.000594984
   7   H   :    0.004303021    0.011676470   -0.059106836
   8   H   :   -0.000093818    0.000272539   -0.000852505
   9   H   :   -0.000863599    0.000007385    0.001082290
  10   H   :    0.000137377   -0.000905924    0.001143416

Difference to translation invariance:
           :    0.0000000000    0.0000000000    0.0000000000

Norm of the cartesian gradient     ...    0.1021132099
RMS gradient                       ...    0.0186432362
MAX gradient                       ...    0.0591068356

-------
TIMINGS
-------

Total SCF gradient time            ...        0.902 sec

One electron gradient       ....       0.009 sec  (  1.0%)
Prescreening matrices       ....       0.011 sec  (  1.2%)
RI-J Coulomb gradient       ....       0.107 sec  ( 11.8%)
XC gradient                 ....       0.462 sec  ( 51.2%)
CPCM gradient               ....       0.158 sec  ( 17.5%)
   A-Matrix (El+Nuc)        ....       0.025 sec  (  2.7%)
   Potential                ....       0.133 sec  ( 14.7%)
------------------------------------------------------------------------------
                         ORCA GEOMETRY RELAXATION STEP
------------------------------------------------------------------------------

Reading the OPT-File                    .... done
Getting information on internals        .... done
Copying old internal coords+grads       .... done
Making the new internal coordinates     .... (new redundants).... done
Validating the new internal coordinates .... (new redundants).... done
Calculating the B-matrix                .... done
Calculating the G,G- and P matrices     .... done
Transforming gradient to internals      .... done
Projecting the internal gradient        .... done
Number of atoms                         ....  10
Number of internal coordinates          ....  50
Current Energy                          ....  -118.149551807 Eh
Current gradient norm                   ....     0.102113210 Eh/bohr
Maximum allowed component of the step   ....  0.300
Current trust radius                    ....  0.300
Evaluating the initial hessian          ....  (Almloef) done
Projecting the Hessian                  .... done
Forming the augmented Hessian           .... done
Diagonalizing the augmented Hessian     .... done
Last element of RFO vector              ....  0.994434235
Lowest eigenvalues of augmented Hessian:
 -0.002834518  0.013147783  0.038370768  0.042144584  0.053952124
Length of the computed step             ....  0.105948841
The final length of the internal step   ....  0.105948841
Converting the step to cartesian space:
 Initial RMS(Int)=    0.0149834288
Transforming coordinates:
 Iter   0:  RMS(Cart)=    0.0148043860 RMS(Int)=    0.0149225474
 Iter   1:  RMS(Cart)=    0.0001073273 RMS(Int)=    0.0001341744
 Iter   2:  RMS(Cart)=    0.0000022305 RMS(Int)=    0.0000026336
 Iter   3:  RMS(Cart)=    0.0000000470 RMS(Int)=    0.0000000499
Imposing constraints:
 Iter   0:  RMS(Cart)=    0.0000574035 RMS(Int)=    0.0001797253
 Iter   1:  RMS(Cart)=    0.0000209191 RMS(Int)=    0.0000654957
 Iter   2:  RMS(Cart)=    0.0000076234 RMS(Int)=    0.0000238680
 Iter   3:  RMS(Cart)=    0.0000027781 RMS(Int)=    0.0000086980
 Iter   4:  RMS(Cart)=    0.0000010124 RMS(Int)=    0.0000031697
 Iter   5:  RMS(Cart)=    0.0000003689 RMS(Int)=    0.0000011551
 Iter   6:  RMS(Cart)=    0.0000001344 RMS(Int)=    0.0000004209
 Iter   7:  RMS(Cart)=    0.0000000490 RMS(Int)=    0.0000001534
 Iter   8:  RMS(Cart)=    0.0000000179 RMS(Int)=    0.0000000559
CONVERGED
done
Storing new coordinates                 .... done

                                .--------------------.
          ----------------------|Geometry convergence|-------------------------
          Item                value                   Tolerance       Converged
          ---------------------------------------------------------------------
          RMS gradient        0.0042316864            0.0005000000      NO
          MAX gradient        0.0180855396            0.0020000000      NO
          RMS step            0.0149834288            0.0070000000      NO
          MAX step            0.0638812996            0.0100000000      NO
          ........................................................
          Max(Bonds)      0.0338      Max(Angles)    1.39
          Max(Dihed)        1.50      Max(Improp)    0.00
          ---------------------------------------------------------------------

The optimization has not yet converged - more geometry cycles are needed


    ---------------------------------------------------------------------------
                         Redundant Internal Coordinates
                            (Angstroem and degrees)

        Definition                    Value    dE/dq     Step     New-Value
    ----------------------------------------------------------------------------
     1. B(C   1,C   0)                1.5065  0.000746 -0.0010    1.5055   
     2. B(C   2,C   1)                1.4453 -0.033416  0.0250    1.4702   
     3. B(H   3,C   0)                1.1095 -0.000351  0.0005    1.1101   
     4. B(H   4,C   0)                1.1087  0.000182 -0.0003    1.1084   
     5. B(H   5,C   0)                1.1146 -0.000657  0.0010    1.1157   
     6. B(H   6,C   1)                1.1335 -0.024873  0.0338    1.1673   
     7. B(H   6,C   2)                1.2872 -0.041016 -0.0000    1.2872 C 
     8. B(H   7,C   1)                1.1032 -0.000093  0.0001    1.1034   
     9. B(H   8,C   2)                1.1011  0.000186 -0.0003    1.1008   
    10. B(H   9,C   2)                1.0992  0.000407 -0.0006    1.0985   
    11. A(C   1,C   0,H   3)          111.09 -0.000252    0.04    111.13   
    12. A(H   3,C   0,H   4)          107.88  0.000017   -0.01    107.87   
    13. A(C   1,C   0,H   4)          112.15  0.000259   -0.04    112.11   
    14. A(H   3,C   0,H   5)          106.81  0.000309   -0.07    106.73   
    15. A(C   1,C   0,H   5)          111.07 -0.000247    0.05    111.12   
    16. A(H   4,C   0,H   5)          107.60 -0.000071    0.03    107.63   
    17. A(H   6,C   1,H   7)          111.66  0.000802    0.06    111.71   
    18. A(C   0,C   1,C   2)          121.43  0.003537   -0.10    121.33   
    19. A(C   0,C   1,H   6)          119.64  0.003336   -0.04    119.60   
    20. A(C   2,C   1,H   6)           58.40 -0.005684   -1.39     57.01   
    21. A(C   0,C   1,H   7)          117.10 -0.002482    0.33    117.43   
    22. A(C   2,C   1,H   7)          115.20 -0.000288    0.30    115.50   
    23. A(H   6,C   2,H   9)          104.41 -0.001578    0.26    104.68   
    24. A(C   1,C   2,H   6)           48.59  0.001989    0.96     49.56   
    25. A(C   1,C   2,H   8)          119.18 -0.000641    0.26    119.44   
    26. A(H   8,C   2,H   9)          119.03  0.000894   -0.05    118.99   
    27. A(H   6,C   2,H   8)          103.63 -0.001301    0.22    103.84   
    28. A(C   1,C   2,H   9)          120.10 -0.000414    0.17    120.26   
    29. A(C   1,H   6,C   2)           73.00  0.003696    0.43     73.43   
    30. D(H   6,C   1,C   0,H   3)     29.84 -0.002233   -1.09     28.75   
    31. D(H   7,C   1,C   0,H   3)    170.02  0.000486   -0.54    169.47   
    32. D(H   6,C   1,C   0,H   4)    -90.98 -0.002256   -1.08    -92.06   
    33. D(C   2,C   1,C   0,H   4)   -159.96  0.001958    0.69   -159.26   
    34. D(H   7,C   1,C   0,H   5)    -71.25  0.000548   -0.58    -71.83   
    35. D(H   6,C   1,C   0,H   5)    148.57 -0.002171   -1.13    147.45   
    36. D(H   7,C   1,C   0,H   4)     49.20  0.000462   -0.53     48.66   
    37. D(C   2,C   1,C   0,H   3)    -39.14  0.001982    0.68    -38.45   
    38. D(C   2,C   1,C   0,H   5)     79.60  0.002044    0.64     80.24   
    39. D(H   9,C   2,C   1,C   0)   -169.60 -0.000522    0.29   -169.31   
    40. D(H   6,C   2,C   1,H   7)   -100.91  0.000911    0.59   -100.32   
    41. D(H   8,C   2,C   1,C   0)     25.35  0.000041   -1.35     24.00   
    42. D(H   8,C   2,C   1,H   6)    -82.37 -0.000025   -0.73    -83.11   
    43. D(H   6,C   2,C   1,C   0)    107.73  0.000066   -0.62    107.10   
    44. D(H   8,C   2,C   1,H   7)    176.71  0.000886   -0.14    176.57   
    45. D(H   9,C   2,C   1,H   6)     82.68 -0.000588    0.91     83.59   
    46. D(H   9,C   2,C   1,H   7)    -18.24  0.000323    1.50    -16.73   
    47. D(C   2,H   6,C   1,C   0)   -110.75 -0.000751    0.63   -110.12   
    48. D(C   2,H   6,C   1,H   7)    107.08 -0.002049    0.01    107.09   
    49. D(C   1,H   6,C   2,H   8)    117.08 -0.000090   -0.01    117.07   
    50. D(C   1,H   6,C   2,H   9)   -117.62 -0.000461    0.17   -117.45   
    ----------------------------------------------------------------------------

         *************************************************************
         *                GEOMETRY OPTIMIZATION CYCLE   2            *
         *************************************************************
---------------------------------
CARTESIAN COORDINATES (ANGSTROEM)
---------------------------------
  C     -1.252839    0.089540   -0.012479
  C      0.121916   -0.521066    0.049747
  C      1.326127    0.278397   -0.220475
  H     -1.252166    1.119794    0.400859
  H     -1.998829   -0.503538    0.553424
  H     -1.611227    0.166456   -1.066205
  H      0.863630   -0.186809    0.887079
  H      0.209378   -1.599534   -0.166368
  H      1.293174    1.369966   -0.081943
  H      2.300735   -0.213306   -0.343639

----------------------------
CARTESIAN COORDINATES (A.U.)
----------------------------
  NO LB      ZA    FRAG     MASS         X           Y           Z
   0 C     6.0000    0    12.011   -2.367522    0.169207   -0.023581
   1 C     6.0000    0    12.011    0.230388   -0.984672    0.094009
   2 C     6.0000    0    12.011    2.506016    0.526094   -0.416638
   3 H     1.0000    0     1.008   -2.366250    2.116104    0.757513
   4 H     1.0000    0     1.008   -3.777239   -0.951550    1.045820
   5 H     1.0000    0     1.008   -3.044777    0.314556   -2.014835
   6 H     1.0000    0     1.008    1.632025   -0.353018    1.676336
   7 H     1.0000    0     1.008    0.395667   -3.022681   -0.314390
   8 H     1.0000    0     1.008    2.443744    2.588861   -0.154850
   9 H     1.0000    0     1.008    4.347758   -0.403091   -0.649383

--------------------------------
INTERNAL COORDINATES (ANGSTROEM)
--------------------------------
 C      0   0   0     0.000000000000     0.00000000     0.00000000
 C      1   0   0     1.505543889226     0.00000000     0.00000000
 C      2   1   0     1.470471182196   121.31150737     0.00000000
 H      1   2   3     1.110076681251   111.12875282   321.53583339
 H      1   2   3     1.108372560395   112.11463312   200.72595490
 H      1   2   3     1.115659565078   111.12019076    80.23022007
 H      2   1   3     1.167472577759   119.58076914    67.22763992
 H      2   1   3     1.103380088042   117.43234931   207.93727870
 H      3   2   1     1.100817726953   119.43724562    24.00300740
 H      3   2   1     1.098545385819   120.25122358   190.69553019

---------------------------
INTERNAL COORDINATES (A.U.)
---------------------------
 C      0   0   0     0.000000000000     0.00000000     0.00000000
 C      1   0   0     2.845065633237     0.00000000     0.00000000
 C      2   1   0     2.778787822174   121.31150737     0.00000000
 H      1   2   3     2.097740915217   111.12875282   321.53583339
 H      1   2   3     2.094520593499   112.11463312   200.72595490
 H      1   2   3     2.108291036688   111.12019076    80.23022007
 H      2   1   3     2.206203440827   119.58076914    67.22763992
 H      2   1   3     2.085086188021   117.43234931   207.93727870
 H      3   2   1     2.080244027307   119.43724562    24.00300740
 H      3   2   1     2.075949924881   120.25122358   190.69553019

[1589382432.725081] [ty2019:11794:0]            sys.c:618  UCX  ERROR shmget(size=2097152 flags=0xfb0) for mm_recv_desc failed: Operation not permitted, please check shared memory limits by 'ipcs -l'
[1589382432.726870] [ty2019:11791:0]            sys.c:618  UCX  ERROR shmget(size=2097152 flags=0xfb0) for mm_recv_desc failed: Operation not permitted, please check shared memory limits by 'ipcs -l'
[1589382432.727057] [ty2019:11792:0]            sys.c:618  UCX  ERROR shmget(size=2097152 flags=0xfb0) for mm_recv_desc failed: Operation not permitted, please check shared memory limits by 'ipcs -l'
[1589382432.728395] [ty2019:11793:0]            sys.c:618  UCX  ERROR shmget(size=2097152 flags=0xfb0) for mm_recv_desc failed: Operation not permitted, please check shared memory limits by 'ipcs -l'
[1589382432.735070] [ty2019:11791:0]            sys.c:618  UCX  ERROR shmget(size=2097152 flags=0xb80) for ucp_am_bufs failed: Operation not permitted, please check shared memory limits by 'ipcs -l'
[1589382432.735109] [ty2019:11793:0]            sys.c:618  UCX  ERROR shmget(size=2097152 flags=0xb80) for ucp_am_bufs failed: Operation not permitted, please check shared memory limits by 'ipcs -l'
[1589382432.735850] [ty2019:11794:0]            sys.c:618  UCX  ERROR shmget(size=2097152 flags=0xb80) for ucp_am_bufs failed: Operation not permitted, please check shared memory limits by 'ipcs -l'


           ************************************************************
           *        Program running with 4 parallel MPI-processes     *
           *              working on a common directory               *
           ************************************************************
[1589382432.737053] [ty2019:11792:0]            sys.c:618  UCX  ERROR shmget(size=2097152 flags=0xb80) for ucp_am_bufs failed: Operation not permitted, please check shared memory limits by 'ipcs -l'
 One Electron integrals                  ... done
 Pre-screening matrix                    ... done
[1589382433.696885] [ty2019:11814:0]            sys.c:618  UCX  ERROR shmget(size=2097152 flags=0xfb0) for mm_recv_desc failed: Operation not permitted, please check shared memory limits by 'ipcs -l'
[1589382433.696952] [ty2019:11813:0]            sys.c:618  UCX  ERROR shmget(size=2097152 flags=0xfb0) for mm_recv_desc failed: Operation not permitted, please check shared memory limits by 'ipcs -l'
[1589382433.698634] [ty2019:11815:0]            sys.c:618  UCX  ERROR shmget(size=2097152 flags=0xfb0) for mm_recv_desc failed: Operation not permitted, please check shared memory limits by 'ipcs -l'
[1589382433.704133] [ty2019:11816:0]            sys.c:618  UCX  ERROR shmget(size=2097152 flags=0xfb0) for mm_recv_desc failed: Operation not permitted, please check shared memory limits by 'ipcs -l'
[1589382433.709742] [ty2019:11813:0]            sys.c:618  UCX  ERROR shmget(size=2097152 flags=0xb80) for ucp_am_bufs failed: Operation not permitted, please check shared memory limits by 'ipcs -l'
[1589382433.710193] [ty2019:11815:0]            sys.c:618  UCX  ERROR shmget(size=2097152 flags=0xb80) for ucp_am_bufs failed: Operation not permitted, please check shared memory limits by 'ipcs -l'


           ************************************************************
           *        Program running with 4 parallel MPI-processes     *
           *              working on a common directory               *
           ************************************************************
[1589382433.712040] [ty2019:11814:0]            sys.c:618  UCX  ERROR shmget(size=2097152 flags=0xb80) for ucp_am_bufs failed: Operation not permitted, please check shared memory limits by 'ipcs -l'
[1589382433.712465] [ty2019:11816:0]            sys.c:618  UCX  ERROR shmget(size=2097152 flags=0xb80) for ucp_am_bufs failed: Operation not permitted, please check shared memory limits by 'ipcs -l'

Diagonalization of the overlap matrix:
Smallest eigenvalue                        ... 3.438e-03
Time for diagonalization                   ...    0.001 sec
Threshold for overlap eigenvalues          ... 1.000e-08
Number of eigenvalues below threshold      ... 0
Time for construction of square roots      ...    0.001 sec
Total time needed                          ...    0.002 sec

-------------------
DFT GRID GENERATION
-------------------

General Integration Accuracy     IntAcc      ...  4.340
Radial Grid Type                 RadialGrid  ... Gauss-Chebyshev
Angular Grid (max. acc.)         AngularGrid ... Lebedev-110
Angular grid pruning method      GridPruning ... 3 (G Style)
Weight generation scheme         WeightScheme... Becke
Basis function cutoff            BFCut       ...    1.0000e-11
Integration weight cutoff        WCut        ...    1.0000e-14
Grids for H and He will be reduced by one unit

# of grid points (after initial pruning)     ...  10526 (   0.0 sec)
# of grid points (after weights+screening)   ...  10030 (   0.0 sec)
nearest neighbour list constructed           ...    0.0 sec
Grid point re-assignment to atoms done       ...    0.0 sec
Grid point division into batches done        ...    0.0 sec
Reduced shell lists constructed in    0.0 sec

Total number of grid points                  ...    10030
Total number of batches                      ...      163
Average number of points per batch           ...       61
Average number of grid points per atom       ...     1003
Average number of shells per batch           ...    36.10 (92.55%)
Average number of basis functions per batch  ...    71.33 (92.64%)
Average number of large shells per batch     ...    33.57 (93.01%)
Average number of large basis fcns per batch ...    66.14 (92.72%)
Maximum spatial batch extension              ...  15.40, 15.16, 18.65 au
Average spatial batch extension              ...   0.53,  0.54,  0.65 au

Time for grid setup =    0.029 sec


--------------------
CPCM SOLVATION MODEL
--------------------
CPCM parameters:
[...]
  34   0.0000       0.633693        17.2437 
  35   0.0000       0.640239        17.4218 
  36   0.0000       0.653696        17.7880 
  37   0.0000       0.671228        18.2650 
  38   0.0000       0.700620        19.0648 
  39   0.0000       0.806927        21.9576 
  40   0.0000       0.910252        24.7692 
  41   0.0000       1.095693        29.8153 
  42   0.0000       1.122200        30.5366 
  43   0.0000       1.222072        33.2543 
  44   0.0000       1.371210        37.3125 
  45   0.0000       1.449905        39.4539 
  46   0.0000       1.462381        39.7934 
  47   0.0000       1.477753        40.2117 
  48   0.0000       1.515684        41.2439 
  49   0.0000       1.581857        43.0445 
  50   0.0000       1.630266        44.3618 
  51   0.0000       1.647186        44.8222 
  52   0.0000       1.699288        46.2400 
  53   0.0000       1.717333        46.7310 
  54   0.0000       1.750682        47.6385 
  55   0.0000       1.757090        47.8129 
  56   0.0000       1.789998        48.7083 
  57   0.0000       1.824029        49.6344 
  58   0.0000       1.834728        49.9255 
  59   0.0000       1.933981        52.6263 
  60   0.0000       2.021307        55.0026 
  61   0.0000       2.099426        57.1283 
  62   0.0000       2.117704        57.6257 
  63   0.0000       2.140288        58.2402 
  64   0.0000       2.248783        61.1925 
  65   0.0000       2.270273        61.7773 
  66   0.0000       2.371342        64.5275 
  67   0.0000       2.420653        65.8693 
  68   0.0000       2.448797        66.6352 
  69   0.0000       2.482045        67.5399 
  70   0.0000       2.622504        71.3620 
  71   0.0000       2.724849        74.1469 
  72   0.0000       2.777827        75.5885 
  73   0.0000       2.829582        76.9969 
  74   0.0000       2.838012        77.2262 
  75   0.0000       2.910083        79.1874 
  76   0.0000       3.023816        82.2822 

                    ********************************
                    * MULLIKEN POPULATION ANALYSIS *
                    ********************************

--------------------------------------------
MULLIKEN ATOMIC CHARGES AND SPIN POPULATIONS
--------------------------------------------
   0 C :   -0.031245   -0.079569
   1 C :   -0.192154    0.970090
   2 C :   -0.072935   -0.105966
   3 H :    0.043554    0.069968
   4 H :    0.041503    0.010488
   5 H :    0.038800    0.018004
   6 H :    0.037788    0.133217
   7 H :    0.039273   -0.043641
   8 H :    0.047005    0.018214
   9 H :    0.048412    0.009196
Sum of atomic charges         :   -0.0000000
Sum of atomic spin populations:    1.0000000

-----------------------------------------------------
MULLIKEN REDUCED ORBITAL CHARGES AND SPIN POPULATIONS
-----------------------------------------------------
CHARGE
  0 C s       :     3.013961  s :     3.013961
      pz      :     1.015790  p :     2.991756
      px      :     0.977371
      py      :     0.998596
      dz2     :     0.004296  d :     0.025528
      dxz     :     0.004496
      dyz     :     0.005717
      dx2y2   :     0.004689
      dxy     :     0.006330
  1 C s       :     3.218395  s :     3.218395
      pz      :     1.016413  p :     2.944310
      px      :     0.959528
      py      :     0.968369
      dz2     :     0.002522  d :     0.029449
      dxz     :     0.004998
      dyz     :     0.002769
      dx2y2   :     0.010571
      dxy     :     0.008588
  2 C s       :     3.077008  s :     3.077008
      pz      :     1.001870  p :     2.971126
      px      :     0.979310
      py      :     0.989946
      dz2     :     0.003302  d :     0.024801
      dxz     :     0.003966
      dyz     :     0.005890
      dx2y2   :     0.005189
      dxy     :     0.006453
  3 H s       :     0.933116  s :     0.933116
      pz      :     0.011900  p :     0.023330
      px      :     0.005175
      py      :     0.006255
  4 H s       :     0.935682  s :     0.935682
      pz      :     0.005925  p :     0.022815
      px      :     0.008956
      py      :     0.007933
  5 H s       :     0.938319  s :     0.938319
      pz      :     0.008400  p :     0.022880
      px      :     0.004337
      py      :     0.010143
  6 H s       :     0.945714  s :     0.945714
      pz      :     0.009051  p :     0.016498
      px      :     0.003176
      py      :     0.004271
  7 H s       :     0.938690  s :     0.938690
      pz      :     0.005827  p :     0.022037
      px      :     0.003313
      py      :     0.012897
  8 H s       :     0.930276  s :     0.930276
      pz      :     0.007923  p :     0.022719
      px      :     0.004332
      py      :     0.010464
  9 H s       :     0.929013  s :     0.929013
      pz      :     0.005440  p :     0.022575
      px      :     0.010059
      py      :     0.007076

SPIN
  0 C s       :    -0.024987  s :    -0.024987
      pz      :    -0.019392  p :    -0.061168
      px      :    -0.028435
      py      :    -0.013341
      dz2     :     0.000424  d :     0.006586
      dxz     :     0.003765
      dyz     :     0.002128
      dx2y2   :     0.000015
      dxy     :     0.000255
  1 C s       :     0.106774  s :     0.106774
      pz      :     0.780963  p :     0.865228
      px      :     0.030026
      py      :     0.054240
      dz2     :    -0.001964  d :    -0.001913
      dxz     :     0.000244
      dyz     :    -0.000215
      dx2y2   :     0.000137
      dxy     :    -0.000114
  2 C s       :    -0.029137  s :    -0.029137
      pz      :    -0.038844  p :    -0.083702
      px      :    -0.026793
      py      :    -0.018065
      dz2     :     0.000370  d :     0.006872
      dxz     :     0.003382
      dyz     :     0.002820
      dx2y2   :     0.000042
      dxy     :     0.000258
  3 H s       :     0.070206  s :     0.070206
      pz      :    -0.000224  p :    -0.000238
      px      :     0.000010
      py      :    -0.000024
  4 H s       :     0.010644  s :     0.010644
      pz      :    -0.000010  p :    -0.000157
      px      :    -0.000136
      py      :    -0.000011
  5 H s       :     0.018229  s :     0.018229
      pz      :    -0.000064  p :    -0.000225
      px      :    -0.000048
      py      :    -0.000112
  6 H s       :     0.133811  s :     0.133811
      pz      :    -0.000509  p :    -0.000594
      px      :     0.000031
      py      :    -0.000116
  7 H s       :    -0.048328  s :    -0.048328
      pz      :     0.004384  p :     0.004687
      px      :    -0.000171
      py      :     0.000475
  8 H s       :     0.018505  s :     0.018505
      pz      :    -0.000108  p :    -0.000291
      px      :    -0.000029
      py      :    -0.000154
  9 H s       :     0.009417  s :     0.009417
      pz      :    -0.000072  p :    -0.000221
      px      :    -0.000126
      py      :    -0.000022


                     *******************************
                     * LOEWDIN POPULATION ANALYSIS *
                     *******************************

-------------------------------------------
LOEWDIN ATOMIC CHARGES AND SPIN POPULATIONS
-------------------------------------------
   0 C :   -0.089206   -0.010688
   1 C :   -0.058688    0.816929
   2 C :   -0.099023   -0.027471
   3 H :    0.040135    0.059420
   4 H :    0.037944    0.009048
   5 H :    0.035967    0.015561
   6 H :    0.042987    0.112973
   7 H :    0.020096    0.000298
   8 H :    0.034257    0.016076
   9 H :    0.035532    0.007854

----------------------------------------------------
LOEWDIN REDUCED ORBITAL CHARGES AND SPIN POPULATIONS
----------------------------------------------------
CHARGE
  0 C s       :     2.850347  s :     2.850347
      pz      :     1.063133  p :     3.166989
      px      :     1.042145
      py      :     1.061711
      dz2     :     0.012913  d :     0.071870
      dxz     :     0.011244
      dyz     :     0.016553
      dx2y2   :     0.012543
      dxy     :     0.018617
  1 C s       :     2.915329  s :     2.915329
      pz      :     0.989554  p :     3.070540
      px      :     1.031376
      py      :     1.049610
      dz2     :     0.005222  d :     0.072819
      dxz     :     0.009188
      dyz     :     0.005171
      dx2y2   :     0.028362
      dxy     :     0.024876
  2 C s       :     2.883077  s :     2.883077
      pz      :     1.037387  p :     3.146602
      px      :     1.050134
      py      :     1.059081
      dz2     :     0.010253  d :     0.069344
      dxz     :     0.009651
      dyz     :     0.016634
      dx2y2   :     0.013542
      dxy     :     0.019265
  3 H s       :     0.895704  s :     0.895704
      pz      :     0.034647  p :     0.064162
      px      :     0.014054
      py      :     0.015461
  4 H s       :     0.898381  s :     0.898381
      pz      :     0.014399  p :     0.063675
      px      :     0.026985
      py      :     0.022290
  5 H s       :     0.900507  s :     0.900507
      pz      :     0.022147  p :     0.063525
      px      :     0.011582
      py      :     0.029796
  6 H s       :     0.915673  s :     0.915673
      pz      :     0.024714  p :     0.041341
      px      :     0.007068
      py      :     0.009559
  7 H s       :     0.908053  s :     0.908053
      pz      :     0.021475  p :     0.071851
      px      :     0.010698
      py      :     0.039678
  8 H s       :     0.901205  s :     0.901205
      pz      :     0.022091  p :     0.064538
      px      :     0.011407
      py      :     0.031040
  9 H s       :     0.899745  s :     0.899745
      pz      :     0.013851  p :     0.064723
      px      :     0.030549
      py      :     0.020323

SPIN
  0 C s       :    -0.004772  s :    -0.004772
      pz      :    -0.005937  p :    -0.023557
      px      :    -0.012290
      py      :    -0.005331
      dz2     :     0.001571  d :     0.017642
      dxz     :     0.009059
      dyz     :     0.005555
      dx2y2   :     0.000343
      dxy     :     0.001113
  1 C s       :     0.033144  s :     0.033144
      pz      :     0.736208  p :     0.786892
      px      :     0.015315
      py      :     0.035369
      dz2     :    -0.001558  d :    -0.003106
      dxz     :     0.000035
      dyz     :    -0.000154
      dx2y2   :    -0.000653
      dxy     :    -0.000776
  2 C s       :    -0.005268  s :    -0.005268
      pz      :    -0.021320  p :    -0.040924
      px      :    -0.011531
      py      :    -0.008073
      dz2     :     0.001505  d :     0.018722
      dxz     :     0.008189
      dyz     :     0.007458
      dx2y2   :     0.000369
      dxy     :     0.001201
  3 H s       :     0.059912  s :     0.059912
      pz      :    -0.000663  p :    -0.000492
      px      :     0.000152
      py      :     0.000018
  4 H s       :     0.009754  s :     0.009754
      pz      :    -0.000111  p :    -0.000707
      px      :    -0.000404
      py      :    -0.000192
  5 H s       :     0.016273  s :     0.016273
      pz      :    -0.000083  p :    -0.000712
      px      :    -0.000234
      py      :    -0.000396
  6 H s       :     0.113849  s :     0.113849
      pz      :    -0.001080  p :    -0.000876
      px      :     0.000226
      py      :    -0.000022
  7 H s       :    -0.020788  s :    -0.020788
      pz      :     0.017674  p :     0.021086
      px      :     0.000264
      py      :     0.003148
  8 H s       :     0.017223  s :     0.017223
      pz      :    -0.000406  p :    -0.001147
      px      :    -0.000207
      py      :    -0.000534
  9 H s       :     0.008955  s :     0.008955
      pz      :    -0.000463  p :    -0.001101
      px      :    -0.000414
      py      :    -0.000224


                      *****************************
                      * MAYER POPULATION ANALYSIS *
                      *****************************

  NA   - Mulliken gross atomic population
  ZA   - Total nuclear charge
  QA   - Mulliken gross atomic charge
  VA   - Mayer's total valence
  BVA  - Mayer's bonded valence
  FA   - Mayer's free valence

  ATOM       NA         ZA         QA         VA         BVA        FA
  0 C      6.0312     6.0000    -0.0312     3.9598     3.9568     0.0030
  1 C      6.1922     6.0000    -0.1922     4.0702     3.3917     0.6785
  2 C      6.0729     6.0000    -0.0729     3.9543     3.9499     0.0044
  3 H      0.9564     1.0000     0.0436     0.9818     0.9767     0.0051
  4 H      0.9585     1.0000     0.0415     0.9834     0.9833     0.0001
  5 H      0.9612     1.0000     0.0388     0.9907     0.9903     0.0003
  6 H      0.9622     1.0000     0.0378     0.9734     0.9551     0.0184
  7 H      0.9607     1.0000     0.0393     0.9789     0.9765     0.0024
  8 H      0.9530     1.0000     0.0470     0.9865     0.9862     0.0004
  9 H      0.9516     1.0000     0.0484     0.9796     0.9795     0.0001

  Mayer bond orders larger than 0.100000
B(  0-C ,  1-C ) :   1.1197 B(  0-C ,  3-H ) :   0.9353 B(  0-C ,  4-H ) :   0.9578 
B(  0-C ,  5-H ) :   0.9574 B(  1-C ,  2-C ) :   1.1548 B(  1-C ,  7-H ) :   0.9604 
B(  2-C ,  6-H ) :   0.8939 B(  2-C ,  8-H ) :   0.9562 B(  2-C ,  9-H ) :   0.9580 



------------------
HIRSHFELD ANALYSIS
------------------

Total integrated alpha density =     13.001127648
Total integrated beta density  =     11.999323808

  ATOM     CHARGE      SPIN    
   0 C   -0.081851    0.050410
   1 C   -0.033063    0.658269
   2 C   -0.076514    0.043810
   3 H    0.030679    0.054177
   4 H    0.031810    0.011300
   5 H    0.030269    0.016323
   6 H    0.017709    0.100519
   7 H    0.021301    0.040876
   8 H    0.028857    0.016408
   9 H    0.030351    0.009713

  TOTAL  -0.000451    1.001804

-------
TIMINGS
-------

Total SCF time: 0 days 0 hours 0 min 2 sec 

Total time                  ....       2.675 sec
Sum of individual times     ....       2.416 sec  ( 90.3%)

Fock matrix formation       ....       2.132 sec  ( 79.7%)
  Split-RI-J                ....       0.554 sec  ( 26.0% of F)
  XC integration            ....       0.280 sec  ( 13.1% of F)
    Basis function eval.    ....       0.080 sec  ( 28.8% of XC)
    Density eval.           ....       0.053 sec  ( 18.9% of XC)
    XC-Functional eval.     ....       0.024 sec  (  8.6% of XC)
    XC-Potential eval.      ....       0.093 sec  ( 33.2% of XC)
Diagonalization             ....       0.009 sec  (  0.3%)
Density matrix formation    ....       0.001 sec  (  0.0%)
Population analysis         ....       0.028 sec  (  1.1%)
Initial guess               ....       0.003 sec  (  0.1%)
Orbital Transformation      ....       0.000 sec  (  0.0%)
Orbital Orthonormalization  ....       0.001 sec  (  0.0%)
DIIS solution               ....       0.003 sec  (  0.1%)
Grid generation             ....       0.241 sec  (  9.0%)


-------------------------------------------------------------------------------
                          DFT DISPERSION CORRECTION                            
                                                                               
                              DFTD3 V3.1  Rev 1                                
                          USING Becke-Johnson damping                          
-------------------------------------------------------------------------------
The PBE functional is recognized
Active option DFTDOPT                   ...         4   

molecular C6(AA) [au] = 673.713549 


            DFT-D V3
 parameters
 s6 scaling factor         :     1.0000 
 a1 scaling factor         :     0.4289 
 s8 scaling factor         :     0.7875 
 a2 scaling factor         :     4.4407 
 ad hoc parameters k1-k3   :    16.0000     1.3333    -4.0000 

 Edisp/kcal,au: -3.318750092741  -0.005288764355 
 E6   /kcal   :  -2.410308928 
 E8   /kcal   :  -0.908441164 
 % E8         :  27.372991004 

-------------------------   ----------------
Dispersion correction           -0.005288764
-------------------------   ----------------


-------------------------   --------------------
FINAL SINGLE POINT ENERGY      -118.207761894324
-------------------------   --------------------

                                *** OPTIMIZATION RUN DONE ***

                            ***************************************
                            *     ORCA property calculations      *
                            ***************************************

                                    ---------------------
                                    Active property flags
                                    ---------------------
   (+) Dipole Moment


------------------------------------------------------------------------------
                       ORCA ELECTRIC PROPERTIES CALCULATION
------------------------------------------------------------------------------

Dipole Moment Calculation                       ... on
Quadrupole Moment Calculation                   ... off
Polarizability Calculation                      ... off
GBWName                                         ... m-mfaV_2-6_hl1d_fbond_scan_9_orca.gbw
Electron density file                           ... m-mfaV_2-6_hl1d_fbond_scan_9_orca.scfp
The origin for moment calculation is the CENTER OF MASS  = (-0.000667, -0.183078 -0.082609)

-------------
DIPOLE MOMENT
-------------
                                X             Y             Z
Electronic contribution:     -0.05908      -0.93051      -0.39700
Nuclear contribution   :      0.00351       0.99208       0.44769
                        -----------------------------------------
Total Dipole Moment    :     -0.05557       0.06156       0.05070
                        -----------------------------------------
Magnitude (a.u.)       :      0.09720
Magnitude (Debye)      :      0.24706



--------------------
Rotational spectrum 
--------------------
 
Rotational constants in cm-1:     1.211102     0.274441     0.246592 
Rotational constants in MHz : 36307.932898  8227.527815  7392.628448 

 Dipole components along the rotational axes: 
x,y,z [a.u.] :    -0.053053     0.062217     0.052558 
x,y,z [Debye]:    -0.134850     0.158144     0.133591 

 
[1589382934.313475] [ty2019:17028:0]            sys.c:618  UCX  ERROR shmget(size=2097152 flags=0xfb0) for mm_recv_desc failed: Operation not permitted, please check shared memory limits by 'ipcs -l'
[1589382934.315089] [ty2019:17030:0]            sys.c:618  UCX  ERROR shmget(size=2097152 flags=0xfb0) for mm_recv_desc failed: Operation not permitted, please check shared memory limits by 'ipcs -l'
[1589382934.315332] [ty2019:17029:0]            sys.c:618  UCX  ERROR shmget(size=2097152 flags=0xfb0) for mm_recv_desc failed: Operation not permitted, please check shared memory limits by 'ipcs -l'
[1589382934.318340] [ty2019:17027:0]            sys.c:618  UCX  ERROR shmget(size=2097152 flags=0xfb0) for mm_recv_desc failed: Operation not permitted, please check shared memory limits by 'ipcs -l'
[1589382934.325091] [ty2019:17027:0]            sys.c:618  UCX  ERROR shmget(size=2097152 flags=0xb80) for ucp_am_bufs failed: Operation not permitted, please check shared memory limits by 'ipcs -l'
[1589382934.325489] [ty2019:17029:0]            sys.c:618  UCX  ERROR shmget(size=2097152 flags=0xb80) for ucp_am_bufs failed: Operation not permitted, please check shared memory limits by 'ipcs -l'
[1589382934.330150] [ty2019:17028:0]            sys.c:618  UCX  ERROR shmget(size=2097152 flags=0xb80) for ucp_am_bufs failed: Operation not permitted, please check shared memory limits by 'ipcs -l'

Timings for individual modules:

Sum of individual times         ...      501.194 sec (=   8.353 min)
GTO integral calculation        ...       73.148 sec (=   1.219 min)  14.6 %
SCF iterations                  ...      306.209 sec (=   5.103 min)  61.1 %
SCF Gradient evaluation         ...      117.646 sec (=   1.961 min)  23.5 %
Geometry relaxation             ...        4.191 sec (=   0.070 min)   0.8 %
                             ****ORCA TERMINATED NORMALLY****
TOTAL RUN TIME: 0 days 0 hours 8 minutes 29 seconds 984 msec
