
                                 *****************
                                 * O   R   C   A *
                                 *****************

           --- An Ab Initio, DFT and Semiempirical electronic structure package ---

                  #######################################################
                  #                        -***-                        #
                  #          Department of theory and spectroscopy      #
                  #               Directorship: Frank Neese             #
                  #        Max Planck Institute fuer Kohlenforschung    #
                  #                Kaiser Wilhelm Platz 1               #
                  #                 D-45470 Muelheim/Ruhr               #
                  #                      Germany                        #
                  #                                                     #
                  #                  All rights reserved                #
                  #                        -***-                        #
                  #######################################################


                         Program Version 4.2.1 -  RELEASE  -


 With contributions from (in alphabetic order):
   Daniel Aravena         : Magnetic Suceptibility
   Michael Atanasov       : Ab Initio Ligand Field Theory (pilot matlab implementation)
   Alexander A. Auer      : GIAO ZORA, VPT2
   Ute Becker             : Parallelization
   Giovanni Bistoni       : ED, misc. LED, open-shell LED, HFLD
   Martin Brehm           : Molecular dynamics
   Dmytro Bykov           : SCF Hessian
   Vijay G. Chilkuri      : MRCI spin determinant printing, contributions to CSF-ICE
   Dipayan Datta          : RHF DLPNO-CCSD density
   Achintya Kumar Dutta   : EOM-CC, STEOM-CC
   Dmitry Ganyushin       : Spin-Orbit,Spin-Spin,Magnetic field MRCI
   Miquel Garcia          : C-PCM Hessian, Gaussian charge scheme
   Yang Guo               : DLPNO-NEVPT2, CIM, IAO-localization
   Andreas Hansen         : Spin unrestricted coupled pair/coupled cluster methods
   Benjamin Helmich-Paris : CASSCF linear response (MC-RPA)
   Lee Huntington         : MR-EOM, pCC
   Robert Izsak           : Overlap fitted RIJCOSX, COSX-SCS-MP3, EOM
   Christian Kollmar      : KDIIS, OOCD, Brueckner-CCSD(T), CCSD density
   Simone Kossmann        : Meta GGA functionals, TD-DFT gradient, OOMP2, MP2 Hessian
   Martin Krupicka        : AUTO-CI
   Lucas Lang             : DCDCAS
   Dagmar Lenk            : GEPOL surface, SMD
   Dimitrios Liakos       : Extrapolation schemes; Compound Job, initial MDCI parallelization
   Dimitrios Manganas     : Further ROCIS development; embedding schemes
   Dimitrios Pantazis     : SARC Basis sets
   Taras Petrenko         : DFT Hessian,TD-DFT gradient, ASA, ECA, R-Raman, ABS, FL, XAS/XES, NRVS
   Peter Pinski           : DLPNO-MP2, DLPNO-MP2 Gradient
   Christoph Reimann      : Effective Core Potentials
   Marius Retegan         : Local ZFS, SOC
   Christoph Riplinger    : Optimizer, TS searches, QM/MM, DLPNO-CCSD(T), (RO)-DLPNO pert. Triples
   Tobias Risthaus        : Range-separated hybrids, TD-DFT gradient, RPA, STAB
   Michael Roemelt        : Original ROCIS implementation
   Masaaki Saitow         : Open-shell DLPNO-CCSD energy and density
   Barbara Sandhoefer     : DKH picture change effects
   Avijit Sen             : IP-ROCIS
   Kantharuban Sivalingam : CASSCF convergence, NEVPT2, FIC-MRCI
   Bernardo de Souza      : ESD, SOC TD-DFT
   Georgi Stoychev        : AutoAux, RI-MP2 NMR
   Willem Van den Heuvel  : Paramagnetic NMR
   Boris Wezisla          : Elementary symmetry handling
   Frank Wennmohs         : Technical directorship


 We gratefully acknowledge several colleagues who have allowed us to
 interface, adapt or use parts of their codes:
   Stefan Grimme, W. Hujo, H. Kruse,             : VdW corrections, initial TS optimization,
                  C. Bannwarth                     DFT functionals, gCP, sTDA/sTD-DF
   Ed Valeev, F. Pavosevic, A. Kumar             : LibInt (2-el integral package), F12 methods
   Garnet Chan, S. Sharma, J. Yang, R. Olivares  : DMRG
   Ulf Ekstrom                                   : XCFun DFT Library
   Mihaly Kallay                                 : mrcc  (arbitrary order and MRCC methods)
   Andreas Klamt, Michael Diedenhofen            : otool_cosmo (COSMO solvation model)
   Jiri Pittner, Ondrej Demel                    : Mk-CCSD
   Frank Weinhold                                : gennbo (NPA and NBO analysis)
   Christopher J. Cramer and Donald G. Truhlar   : smd solvation model
   Lars Goerigk                                  : TD-DFT with DH, B97 family of functionals
   V. Asgeirsson, H. Jonsson                     : NEB implementation
   FAccTs GmbH                                   : IRC, NEB, NEB-TS, Multilevel, MM, QM/MM, CI optimization
   S Lehtola, MJT Oliveira, MAL Marques          : LibXC Library


 Your calculation uses the libint2 library for the computation of 2-el integrals
 For citations please refer to: http://libint.valeyev.net

 Your ORCA version has been built with support for libXC version: 4.2.3
 For citations please refer to: https://tddft.org/programs/libxc/

 This ORCA versions uses:
   CBLAS   interface :  Fast vector & matrix operations
   LAPACKE interface :  Fast linear algebra routines
   SCALAPACK package :  Parallel linear algebra routines


Your calculation utilizes the atom-pairwise dispersion correction
with the Becke-Johnson damping scheme (D3BJ)
Cite in your paper:
S.Grimme, S.Ehrlich, L.Goerigk, J Comput Chem, (2011), 32, 1456–1465 
S.Grimme, J.Antony, S.Ehrlich and H.Krieg, J.Chem.Phys., 132, (2010), 154104 
   

----- Orbital basis set information -----
Your calculation utilizes the basis: def2-SVP
   F. Weigend and R. Ahlrichs, Phys. Chem. Chem. Phys. 7, 3297 (2005).

----- AuxJ basis set information -----
Your calculation utilizes the auxiliary basis: def2/J
   F. Weigend, Phys. Chem. Chem. Phys. 8, 1057 (2006).

================================================================================
                                        WARNINGS
                       Please study these warnings very carefully!
================================================================================


WARNING: Geometry Optimization
  ===> : Switching off AutoStart
         For restart on a previous wavefunction, please use MOREAD

INFO   : the flag for use of LIBINT has been found!

================================================================================
                                       INPUT FILE
================================================================================
NAME = TS_3ixBtq_ll_neb_0-2_1-2_optts_orca.inp
|  1> ! OptTS Freq PBE0 RIJCOSX D3BJ def2-SVP def2/J CPCM(Water)
|  2> %geom
|  3> modify_internal
|  4> { B 0 2 A } end
|  5> end
|  6> %geom
|  7> modify_internal
|  8> { B 1 2 A } end
|  9> end
| 10> %output 
| 11> xyzfile=True 
| 12> end 
| 13> %scf 
| 14> maxiter 250 
| 15> end
| 16> %output
| 17> Print[P_Hirshfeld] = 1
| 18> end
| 19> % maxcore
| 20> 4000
| 21> %geom
| 22> Calc_Hess true
| 23> Recalc_Hess 30
| 24> Trust -0.1
| 25> MaxIter 150
| 26> end
| 27> %pal nprocs 4
| 28> end
| 29> *xyz -1 1
| 30> F   -2.61105282  -0.05139898   0.03667110 
| 31> Cl   1.59995105   0.04003220  -0.01619042 
| 32> C   -0.54459601  -0.00798850   0.00529222 
| 33> H   -0.66422917  -0.64285215  -0.84972851 
| 34> H   -0.64483493  -0.43621679   0.98185867 
| 35> H   -0.69090883   1.04632351  -0.11363306 
| 36> *
| 37> 
| 38>                          ****END OF INPUT****
================================================================================

                       *****************************
                       * Geometry Optimization Run *
                       *****************************

Geometry optimization settings:
Update method            Update   .... Bofill
Choice of coordinates    CoordSys .... Z-matrix Internals
Initial Hessian          InHess   .... Almoef's Model

Convergence Tolerances:
Energy Change            TolE     ....  5.0000e-06 Eh
Max. Gradient            TolMAXG  ....  3.0000e-04 Eh/bohr
RMS Gradient             TolRMSG  ....  1.0000e-04 Eh/bohr
Max. Displacement        TolMAXD  ....  4.0000e-03 bohr
RMS Displacement         TolRMSD  ....  2.0000e-03 bohr
Strict Convergence                ....  False
------------------------------------------------------------------------------
                        ORCA OPTIMIZATION COORDINATE SETUP
------------------------------------------------------------------------------

The optimization will be done in new redundant internal coordinates
Making redundant internal coordinates   ...  (new redundants) Bond   2,  0 is already included
Bond   2,  1 is already included
done
Following TS mode number                ...     0
Evaluating the initial hessian          ...  (Is done on the fly) done
Evaluating the coordinates              ...  done
Calculating the B-matrix                .... done
Calculating the G-matrix                .... done
Diagonalizing the G-matrix              .... done
The first mode is                       ....    5
The number of degrees of freedom        ....   12

    -----------------------------------------------------------------
                    Redundant Internal Coordinates


    -----------------------------------------------------------------
         Definition                    Initial Value    d2E/dq (diagonal element)
    -----------------------------------------------------------------
      1. B(C   2,F   0)                  2.0672         0.000000   
      2. B(C   2,Cl  1)                  2.1452         0.000000   
      3. B(H   3,F   0)                  2.2194         0.000000   
      4. B(H   3,C   2)                  1.0716         0.000000   
      5. B(H   4,C   2)                  1.0710         0.000000   
      6. B(H   4,F   0)                  2.2153         0.000000   
      7. B(H   5,F   0)                  2.2169         0.000000   
      8. B(H   5,C   2)                  1.0710         0.000000   
      9. A(Cl  1,C   2,H   4)           96.4101         0.000000   
     10. A(H   3,C   2,H   4)          118.6967         0.000000   
     11. A(Cl  1,C   2,H   5)           96.5125         0.000000   
     12. A(H   3,C   2,H   5)          118.6413         0.000000   
     13. A(H   4,C   2,H   5)          118.8188         0.000000   
     14. A(F   0,C   2,H   3)           83.5736         0.000000   
     15. A(F   0,C   2,H   4)           83.3504         0.000000   
     16. A(F   0,C   2,H   5)           83.4422         0.000000   
     17. A(Cl  1,C   2,H   3)           96.7117         0.000000   
    -----------------------------------------------------------------

Number of atoms                         .... 6
Number of degrees of freedom            .... 17

         *************************************************************
         *                GEOMETRY OPTIMIZATION CYCLE   1            *
         *************************************************************
---------------------------------
CARTESIAN COORDINATES (ANGSTROEM)
---------------------------------
  F     -2.611053   -0.051399    0.036671
  Cl     1.599951    0.040032   -0.016190
  C     -0.544596   -0.007989    0.005292
  H     -0.664229   -0.642852   -0.849729
  H     -0.644835   -0.436217    0.981859
  H     -0.690909    1.046324   -0.113633

----------------------------
CARTESIAN COORDINATES (A.U.)
----------------------------
  NO LB      ZA    FRAG     MASS         X           Y           Z
   0 F     9.0000    0    18.998   -4.934175   -0.097130    0.069298
   1 Cl   17.0000    0    35.453    3.023469    0.075650   -0.030595
   2 C     6.0000    0    12.011   -1.029137   -0.015096    0.010001
   3 H     1.0000    0     1.008   -1.255211   -1.214815   -1.605754
   4 H     1.0000    0     1.008   -1.218561   -0.824330    1.855444
   5 H     1.0000    0     1.008   -1.305628    1.977265   -0.214735

--------------------------------
INTERNAL COORDINATES (ANGSTROEM)
--------------------------------
 F      0   0   0     0.000000000000     0.00000000     0.00000000
 Cl     1   0   0     4.212328049206     0.00000000     0.00000000
 C      1   2   0     2.067150901961     0.15604915     0.00000000
 H      3   1   2     1.071645648427    83.57358291   158.58071536
 H      3   1   4     1.071031904616    83.35040869   240.02562916
 H      3   1   5     1.071038971256    83.44224244   239.87391405

---------------------------
INTERNAL COORDINATES (A.U.)
---------------------------
 F      0   0   0     0.000000000000     0.00000000     0.00000000
 Cl     1   0   0     7.960146399234     0.00000000     0.00000000
 C      1   2   0     3.906349082195     0.15604915     0.00000000
 H      3   1   2     2.025116788136    83.57358291   158.58071536
 H      3   1   4     2.023956980416    83.35040869   240.02562916
 H      3   1   5     2.023970334431    83.44224244   239.87391405

---------------------
BASIS SET INFORMATION
---------------------
There are 4 groups of distinct atoms

 Group   1 Type F   : 7s4p1d contracted to 3s2p1d pattern {511/31/1}
 Group   2 Type Cl  : 10s7p1d contracted to 4s3p1d pattern {5311/511/1}
 Group   3 Type C   : 7s4p1d contracted to 3s2p1d pattern {511/31/1}
 Group   4 Type H   : 4s1p contracted to 2s1p pattern {31/1}

Atom   0F    basis set group =>   1
Atom   1Cl   basis set group =>   2
Atom   2C    basis set group =>   3
Atom   3H    basis set group =>   4
Atom   4H    basis set group =>   4
Atom   5H    basis set group =>   4
---------------------------------
AUXILIARY/J BASIS SET INFORMATION
---------------------------------
There are 4 groups of distinct atoms

 Group   1 Type F   : 12s5p4d2f1g contracted to 6s4p3d1f1g pattern {711111/2111/211/2/1}
 Group   2 Type Cl  : 14s5p5d2f1g contracted to 8s4p3d1f1g pattern {71111111/2111/311/2/1}
 Group   3 Type C   : 12s5p4d2f1g contracted to 6s4p3d1f1g pattern {711111/2111/211/2/1}
 Group   4 Type H   : 5s2p1d contracted to 3s1p1d pattern {311/2/1}

Atom   0F    basis set group =>   1
Atom   1Cl   basis set group =>   2
Atom   2C    basis set group =>   3
Atom   3H    basis set group =>   4
Atom   4H    basis set group =>   4
Atom   5H    basis set group =>   4
[1597942007.507620] [comp0810:60093:0]            sys.c:618  UCX  ERROR shmget(size=2097152 flags=0xfb0) for mm_recv_desc failed: Operation not permitted, please check shared memory limits by 'ipcs -l'
[1597942007.507690] [comp0810:60094:0]            sys.c:618  UCX  ERROR shmget(size=2097152 flags=0xfb0) for mm_recv_desc failed: Operation not permitted, please check shared memory limits by 'ipcs -l'
[1597942007.508257] [comp0810:60096:0]            sys.c:618  UCX  ERROR shmget(size=2097152 flags=0xfb0) for mm_recv_desc failed: Operation not permitted, please check shared memory limits by 'ipcs -l'
[1597942007.512781] [comp0810:60095:0]            sys.c:618  UCX  ERROR shmget(size=2097152 flags=0xfb0) for mm_recv_desc failed: Operation not permitted, please check shared memory limits by 'ipcs -l'
[1597942007.521065] [comp0810:60093:0]            sys.c:618  UCX  ERROR shmget(size=2097152 flags=0xb80) for ucp_am_bufs failed: Operation not permitted, please check shared memory limits by 'ipcs -l'
[1597942007.523862] [comp0810:60095:0]            sys.c:618  UCX  ERROR shmget(size=2097152 flags=0xb80) for ucp_am_bufs failed: Operation not permitted, please check shared memory limits by 'ipcs -l'
[1597942007.523541] [comp0810:60096:0]            sys.c:618  UCX  ERROR shmget(size=2097152 flags=0xb80) for ucp_am_bufs failed: Operation not permitted, please check shared memory limits by 'ipcs -l'
[1597942007.523413] [comp0810:60094:0]            sys.c:618  UCX  ERROR shmget(size=2097152 flags=0xb80) for ucp_am_bufs failed: Operation not permitted, please check shared memory limits by 'ipcs -l'


           ************************************************************
           *        Program running with 4 parallel MPI-processes     *
           *              working on a common directory               *
           ************************************************************
------------------------------------------------------------------------------
                           ORCA GTO INTEGRAL CALCULATION
                           -- RI-GTO INTEGRALS CHOSEN --
------------------------------------------------------------------------------

                         BASIS SET STATISTICS AND STARTUP INFO

Gaussian basis set:
 # of primitive gaussian shells          ...   57
 # of primitive gaussian functions       ...  105
 # of contracted shells                  ...   29
 # of contracted basis functions         ...   61
 Highest angular momentum                ...    2
 Maximum contraction depth               ...    5
Auxiliary gaussian basis set:
 # of primitive gaussian shells          ...   99
 # of primitive gaussian functions       ...  265
 # of contracted shells                  ...   62
 # of contracted aux-basis functions     ...  182
 Highest angular momentum                ...    4
 Maximum contraction depth               ...    7
Ratio of auxiliary to basis functions    ...  2.98
Integral package used                  ... LIBINT
 One Electron integrals                  ... done
 Ordering auxiliary basis shells         ... done
 Integral threshhold             Thresh  ...  2.500e-11
 Primitive cut-off               TCut    ...  2.500e-12
 Pre-screening matrix                    ... done
 Shell pair data                         ... 
 Ordering of the shell pairs             ... done (   0.000 sec) 418 of 435 pairs
 Determination of significant pairs      ... done (   0.000 sec)
 Creation of shell pair data             ... done (   0.000 sec)
 Storage of shell pair data              ... done (   0.005 sec)
 Shell pair data done in (   0.005 sec)
 Computing two index integrals           ... done
 Cholesky decomposition of the V-matrix  ... done


Timings:
 Total evaluation time                   ...   0.122 sec (  0.002 min)
 One electron matrix time                ...   0.005 sec (  0.000 min) =  4.1%
 Schwartz matrix evaluation time         ...   0.094 sec (  0.002 min) = 76.5%
 Two index repulsion integral time       ...   0.001 sec (  0.000 min) =  0.7%
 Cholesky decomposition of V             ...   0.001 sec (  0.000 min) =  0.8%
 Three index repulsion integral time     ...   0.000 sec (  0.000 min) =  0.0%

[1597942008.427856] [comp0810:60115:0]            sys.c:618  UCX  ERROR shmget(size=2097152 flags=0xfb0) for mm_recv_desc failed: Operation not permitted, please check shared memory limits by 'ipcs -l'
[1597942008.433264] [comp0810:60116:0]            sys.c:618  UCX  ERROR shmget(size=2097152 flags=0xfb0) for mm_recv_desc failed: Operation not permitted, please check shared memory limits by 'ipcs -l'
[1597942008.433098] [comp0810:60117:0]            sys.c:618  UCX  ERROR shmget(size=2097152 flags=0xfb0) for mm_recv_desc failed: Operation not permitted, please check shared memory limits by 'ipcs -l'
[1597942008.435825] [comp0810:60118:0]            sys.c:618  UCX  ERROR shmget(size=2097152 flags=0xfb0) for mm_recv_desc failed: Operation not permitted, please check shared memory limits by 'ipcs -l'
[1597942008.444120] [comp0810:60115:0]            sys.c:618  UCX  ERROR shmget(size=2097152 flags=0xb80) for ucp_am_bufs failed: Operation not permitted, please check shared memory limits by 'ipcs -l'


           ************************************************************
           *        Program running with 4 parallel MPI-processes     *
           *              working on a common directory               *
           ************************************************************
-------------------------------------------------------------------------------
                                 ORCA SCF
-------------------------------------------------------------------------------

------------
SCF SETTINGS
------------
Hamiltonian:
 Density Functional     Method          .... DFT(GTOs)
 Exchange Functional    Exchange        .... PBE
   PBE kappa parameter   XKappa         ....  0.804000
   PBE mue parameter    XMuePBE         ....  0.219520
 Correlation Functional Correlation     .... PBE
   PBE beta parameter  CBetaPBE         ....  0.066725
 LDA part of GGA corr.  LDAOpt          .... PW91-LDA
 Gradients option       PostSCFGGA      .... off
 Hybrid DFT is turned on
   Fraction HF Exchange ScalHFX         ....  0.250000
   Scaling of DF-GGA-X  ScalDFX         ....  0.750000
   Scaling of DF-GGA-C  ScalDFC         ....  1.000000
   Scaling of DF-LDA-C  ScalLDAC        ....  1.000000
   Perturbative correction              ....  0.000000
   Density functional embedding theory  .... OFF
   NL short-range parameter             ....  6.900000
 RI-approximation to the Coulomb term is turned on
   Number of auxiliary basis functions  .... 182
   RIJ-COSX (HFX calculated with COS-X)).... on


General Settings:
 Integral files         IntName         .... TS_3ixBtq_ll_neb_0-2_1-2_optts_orca
 Hartree-Fock type      HFTyp           .... RHF
 Total Charge           Charge          ....   -1
 Multiplicity           Mult            ....    1
 Number of Electrons    NEL             ....   36
 Basis Dimension        Dim             ....   61
 Nuclear Repulsion      ENuc            ....     85.1781226274 Eh

Convergence Acceleration:
 DIIS                   CNVDIIS         .... on
   Start iteration      DIISMaxIt       ....    12
   Startup error        DIISStart       ....  0.200000
   # of expansion vecs  DIISMaxEq       ....     5
   Bias factor          DIISBfac        ....   1.050
   Max. coefficient     DIISMaxC        ....  10.000
 Newton-Raphson         CNVNR           .... off
 SOSCF                  CNVSOSCF        .... on
   Start iteration      SOSCFMaxIt      ....   150
   Startup grad/error   SOSCFStart      ....  0.003300
 Level Shifting         CNVShift        .... on
   Level shift para.    LevelShift      ....    0.2500
   Turn off err/grad.   ShiftErr        ....    0.0010
 Zerner damping         CNVZerner       .... off
 Static damping         CNVDamp         .... on
   Fraction old density DampFac         ....    0.7000
   Max. Damping (<1)    DampMax         ....    0.9800
   Min. Damping (>=0)   DampMin         ....    0.0000
   Turn off err/grad.   DampErr         ....    0.1000
 Fernandez-Rico         CNVRico         .... off

SCF Procedure:
 Maximum # iterations   MaxIter         ....   250
 SCF integral mode      SCFMode         .... Direct
   Integral package                     .... LIBINT
 Reset frequency        DirectResetFreq ....    20
 Integral Threshold     Thresh          ....  2.500e-11 Eh
 Primitive CutOff       TCut            ....  2.500e-12 Eh

Convergence Tolerance:
 Convergence Check Mode ConvCheckMode   .... Total+1el-Energy
 Convergence forced     ConvForced      .... 0
 Energy Change          TolE            ....  1.000e-08 Eh
 1-El. energy change                    ....  1.000e-05 Eh
 Orbital Gradient       TolG            ....  1.000e-05
 Orbital Rotation angle TolX            ....  1.000e-05
 DIIS Error             TolErr          ....  5.000e-07


Diagonalization of the overlap matrix:
Smallest eigenvalue                        ... 1.265e-02
Time for diagonalization              [1597942008.444903] [comp0810:60116:0]            sys.c:618  UCX  ERROR shmget(size=2097152 flags=0xb80) for ucp_am_bufs failed: Operation not permitted, please check shared memory limits by 'ipcs -l'
[1597942008.444477] [comp0810:60117:0]            sys.c:618  UCX  ERROR shmget(size=2097152 flags=0xb80) for ucp_am_bufs failed: Operation not permitted, please check shared memory limits by 'ipcs -l'
[1597942008.444903] [comp0810:60118:0]            sys.c:618  UCX  ERROR shmget(size=2097152 flags=0xb80) for ucp_am_bufs failed: Operation not permitted, please check shared memory limits by 'ipcs -l'
     ...    0.001 sec
Threshold for overlap eigenvalues          ... 1.000e-08
Number of eigenvalues below threshold      ... 0
Time for construction of square roots      ...    0.000 sec
Total time needed                          ...    0.002 sec

-------------------
DFT GRID GENERATION
-------------------

General Integration Accuracy     IntAcc      ...  4.340
Radial Grid Type                 RadialGrid  ... Gauss-Chebyshev
Angular Grid (max. acc.)         AngularGrid ... Lebedev-110
Angular grid pruning method      GridPruning ... 3 (G Style)
Weight generation scheme         WeightScheme... Becke
Basis function cutoff            BFCut       ...    1.0000e-11
Integration weight cutoff        WCut        ...    1.0000e-14
Grids for H and He will be reduced by one unit

# of grid points (after initial pruning)     ...   7622 (   0.0 sec)
# of grid points (after weights+screening)   ...   7438 (   0.0 sec)
nearest neighbour list constructed           ...    0.0 sec
Grid point re-assignment to atoms done       ...    0.0 sec
Grid point division into batches done        ...    0.0 sec
Reduced shell lists constructed in    0.0 sec

Total number of grid points                  ...     7438
Total number of batches                      ...      119
Average number of points per batch           ...       62
Average number of grid points per atom       ...     1240
Average number of shells per batch           ...    19.87 (68.52%)
Average number of basis functions per batch  ...    40.90 (67.05%)
Average number of large shells per batch     ...    17.42 (87.66%)
Average number of large basis fcns per batch ...    35.35 (86.44%)
Maximum spatial batch extension              ...  12.89, 25.60, 19.31 au
Average spatial batch extension              ...   1.14,  1.64,  1.45 au

Time for grid setup =    0.017 sec

------------------------------
INITIAL GUESS: MODEL POTENTIAL
------------------------------
Loading Hartree-Fock densities                     ... done
Calculating cut-offs                               ... done
Setting up the integral package                    ... done
Initializing the effective Hamiltonian             ... done
Starting the Coulomb interaction                   ... done (   0.0 sec)
Reading the grid                                   ... done
Mapping shells                                     ... done
Starting the XC term evaluation                    ... done (   0.0 sec)
  promolecular density results
     # of electrons  =     35.001374684
     EX              =    -43.250219992
     EC              =     -1.236891017
     EX+EC           =    -44.487111009
Transforming the Hamiltonian                       ... done (   0.0 sec)
Diagonalizing the Hamiltonian                      ... done (   0.0 sec)
Back transforming the eigenvectors                 ... done (   0.0 sec)
Now organizing SCF variables                       ... done
                      ------------------
                      INITIAL GUESS DONE (   0.1 sec)
                      ------------------
--------------------
COSX GRID GENERATION
--------------------

General Integration Accuracy     IntAcc      ...  3.340
Radial Grid Type                 RadialGrid  ... Gauss-Chebyshev
Angular Grid (max. acc.)         AngularGrid ... Lebedev-50
Angular grid pruning method      GridPruning ... 3 (G Style)
Weight generation scheme         WeightScheme... Becke
Basis function cutoff            BFCut       ...    1.0000e-11
Integration weight cutoff        WCut        ...    1.0000e-14
Grids for H and He will be reduced by one unit

# of grid points (after initial pruning)     ...   2826 (   0.0 sec)
# of grid points (after weights+screening)   ...   2763 (   0.0 sec)
nearest neighbour list constructed           ...    0.0 sec
Grid point re-assignment to atoms done       ...    0.0 sec
Grid point division into batches done        ...    0.0 sec
Reduced shell lists constructed in    0.0 sec

Total number of grid points                  ...     2763
Total number of batches                      ...       46
Average number of points per batch           ...       60
Average number of grid points per atom       ...      460
Average number of shells per batch           ...    21.08 (72.68%)
Average number of basis functions per batch  ...    43.54 (71.37%)
Average number of large shells per batch     ...    17.92 (85.04%)
Average number of large basis fcns per batch ...    37.31 (85.69%)
Maximum spatial batch extension              ...  15.38, 25.19, 25.19 au
Average spatial batch extension              ...   1.86,  2.50,  2.59 au

Overlap Fitting                  UseSFitting ... on
Constructing numerical overlap ... done (      0.0 sec)
Inverting numerical overlap    ... done (      0.0 sec)
Obtaining analytic overlap     ... done (      0.0 sec)
Final contraction and storage  ... done (      0.0 sec)


General Integration Accuracy     IntAcc      ...  3.670
Radial Grid Type                 RadialGrid  ... Gauss-Chebyshev
Angular Grid (max. acc.)         AngularGrid ... Lebedev-50
Angular grid pruning method      GridPruning ... 3 (G Style)
Weight generation scheme         WeightScheme... Becke
Basis function cutoff            BFCut       ...    1.0000e-11
Integration weight cutoff        WCut        ...    1.0000e-14
Grids for H and He will be reduced by one unit

# of grid points (after initial pruning)     ...   3566 (   0.0 sec)
# of grid points (after weights+screening)   ...   3483 (   0.0 sec)
nearest neighbour list constructed           ...    0.0 sec
Grid point re-assignment to atoms done       ...    0.0 sec
Grid point division into batches done        ...    0.0 sec
Reduced shell lists constructed in    0.0 sec

Total number of grid points                  ...     3483
Total number of batches                      ...       57
Average number of points per batch           ...       61
Average number of grid points per atom       ...      580
Average number of shells per batch           ...    21.19 (73.06%)
Average number of basis functions per batch  ...    43.81 (71.82%)
Average number of large shells per batch     ...    17.94 (84.66%)
Average number of large basis fcns per batch ...    37.56 (85.73%)
Maximum spatial batch extension              ...  16.45, 27.26, 27.31 au
Average spatial batch extension              ...   1.91,  2.46,  2.57 au

Overlap Fitting                  UseSFitting ... on
Constructing numerical overlap ... done (      0.0 sec)
Inverting numerical overlap    ... done (      0.0 sec)
Obtaining analytic overlap     ... done (      0.0 sec)
Final contraction and storage  ... done (      0.0 sec)


General Integration Accuracy     IntAcc      ...  4.010
Radial Grid Type                 RadialGrid  ... Gauss-Chebyshev
Angular Grid (max. acc.)         AngularGrid ... Lebedev-110
Angular grid pruning method      GridPruning ... 3 (G Style)
Weight generation scheme         WeightScheme... Becke
Basis function cutoff            BFCut       ...    1.0000e-11
Integration weight cutoff        WCut        ...    1.0000e-14
Grids for H and He will be reduced by one unit

# of grid points (after initial pruning)     ...   6574 (   0.0 sec)
# of grid points (after weights+screening)   ...   6420 (   0.0 sec)
nearest neighbour list constructed           ...    0.0 sec
Grid point re-assignment to atoms done       ...    0.0 sec
Grid point division into batches done        ...    0.0 sec
Reduced shell lists constructed in    0.0 sec

Total number of grid points                  ...     6420
Total number of batches                      ...      103
Average number of points per batch           ...       62
Average number of grid points per atom       ...     1070
Average number of shells per batch           ...    20.52 (70.75%)
Average number of basis functions per batch  ...    42.52 (69.70%)
Average number of large shells per batch     ...    17.22 (83.94%)
Average number of large basis fcns per batch ...    35.07 (82.49%)
Maximum spatial batch extension              ...  12.33, 24.23, 18.42 au
Average spatial batch extension              ...   1.26,  1.74,  1.53 au

Overlap Fitting                  UseSFitting ... on
Constructing numerical overlap ... done (      0.0 sec)
Inverting numerical overlap    ... done (      0.0 sec)
Obtaining analytic overlap     ... done (      0.0 sec)
Final contraction and storage  ... done (      0.0 sec)

Time for X-Grid setup             =    0.101 sec

--------------------
CPCM SOLVATION MODEL
--------------------
CPCM parameters:
  Epsilon                                         ...      80.4000
  Refrac                                          ...       1.3300
  Rsolv                                           ...       1.3000
  Surface type                                    ...    GEPOL SES
  Epsilon function type                           ...         CPCM
Radii:
 Radius for F  used is    3.2503 Bohr (=   1.7200 Ang.)
 Radius for Cl used is    3.8739 Bohr (=   2.0500 Ang.)
 Radius for C  used is    3.7795 Bohr (=   2.0000 Ang.)
 Radius for H  used is    2.4566 Bohr (=   1.3000 Ang.)
Calculating surface                               ...        done! (  0.0s)
GEPOL surface points                              ...          262
GEPOL Volume                                      ...     529.1033
GEPOL Surface-area                                ...     355.8301
Calculating surface distance matrix               ...        done! (  0.0s)
Performing Cholesky decomposition & store         ...        done! (  0.0s)
Overall time for CPCM initialization              ...                 0.0s
--------------
SCF ITERATIONS
--------------
ITER       Energy         Delta-E        Max-DP      RMS-DP      [F,P]     Damp
               ***  Starting incremental Fock matrix formation  ***
  0   -599.3721998207   0.000000000000 0.08801272  0.00428898  0.3197071 0.7000
  1   -599.4240053508  -0.051805530070 0.05209599  0.00280038  0.1315051 0.7000
                               ***Turning on DIIS***
  2   -599.4445776934  -0.020572342610 0.10439603  0.00479831  0.0380266 0.0000
  3   -599.4792103826  -0.034632689128 0.03632395  0.00177024  0.0747292 0.0000
  4   -599.4851826849  -0.005972302385 0.01031080  0.00050668  0.0110043 0.0000
  5   -599.4854506496  -0.000267964709 0.00260325  0.00017166  0.0049855 0.0000
                      *** Initiating the SOSCF procedure ***
                           *** Shutting down DIIS ***
                      *** Re-Reading the Fockian *** 
                      *** Removing any level shift *** 
ITER      Energy       Delta-E        Grad      Rot      Max-DP    RMS-DP
  6   -599.48548407  -0.0000334193  0.000458  0.000458  0.001293  0.000098
               *** Restarting incremental Fock matrix formation ***
  7   -599.48548974  -0.0000056723  0.000215  0.000821  0.001066  0.000049
  8   -599.48548908   0.0000006654  0.000335  0.000519  0.000540  0.000026
  9   -599.48549012  -0.0000010468  0.000037  0.000091  0.000233  0.000008
 10   -599.48549011   0.0000000104  0.000047  0.000063  0.000109  0.000004
 11   -599.48549013  -0.0000000181  0.000005  0.000007  0.000025  0.000001
 12   -599.48549014  -0.0000000058  0.000005  0.000003  0.000012  0.000001
                 **** Energy Check signals convergence ****
              ***Rediagonalizing the Fockian in SOSCF/NRSCF***

               *****************************************************
               *                     SUCCESS                       *
               *           SCF CONVERGED AFTER  13 CYCLES          *
               *****************************************************

Setting up the final grid:

General Integration Accuracy     IntAcc      ...  4.670
Radial Grid Type                 RadialGrid  ... Gauss-Chebyshev
Angular Grid (max. acc.)         AngularGrid ... Lebedev-302
Angular grid pruning method      GridPruning ... 3 (G Style)
Weight generation scheme         WeightScheme... Becke
Basis function cutoff            BFCut       ...    1.0000e-11
Integration weight cutoff        WCut        ...    1.0000e-14
Grids for H and He will be reduced by one unit

# of grid points (after initial pruning)     ...  29404 (   0.0 sec)
# of grid points (after weights+screening)   ...  28549 (   0.0 sec)
nearest neighbour list constructed           ...    0.0 sec
Grid point re-assignment to atoms done       ...    0.0 sec
Grid point division into batches done        ...    0.1 sec
Reduced shell lists constructed in    0.1 sec

Total number of grid points                  ...    28549
Total number of batches                      ...      450
Average number of points per batch           ...       63
Average number of grid points per atom       ...     4758
Average number of shells per batch           ...    17.09 (58.92%)
Average number of basis functions per batch  ...    34.96 (57.32%)
Average number of large shells per batch     ...    14.64 (85.68%)
Average number of large basis fcns per batch ...    29.64 (84.77%)
Maximum spatial batch extension              ...  16.09, 19.98, 20.64 au
Average spatial batch extension              ...   1.00,  1.18,  1.20 au

Final grid set up in    0.1 sec
Final integration                            ... done (   0.0 sec)
Change in XC energy                          ...     0.000780755
Integrated number of electrons               ...    35.999984148
Previous integrated no of electrons          ...    36.002316845
Old exchange energy                            =    -11.023073795 Eh
New exchange energy                            =    -11.022517705 Eh
Exchange energy change after final integration =      0.000556090 Eh
Total energy after final integration           =   -599.484153288 Eh
Final COS-X integration done in                =     0.109 sec

----------------
TOTAL SCF ENERGY
----------------

Total Energy       :         -599.48415329 Eh          -16312.79314 eV

Components:
Nuclear Repulsion  :           85.17812263 Eh            2317.81455 eV
Electronic Energy  :         -684.66227592 Eh          -18630.60769 eV
One Electron Energy:        -1007.07201613 Eh          -27403.82274 eV
Two Electron Energy:          322.40974021 Eh            8773.21505 eV
CPCM Dielectric    :           -0.10423306 Eh              -2.83633 eV

Virial components:
Potential Energy   :        -1197.19419167 Eh          -32577.31015 eV
Kinetic Energy     :          597.71003838 Eh           16264.51702 eV
Virial Ratio       :            2.00296819


DFT components:
N(Alpha)           :       17.999992073979 electrons
N(Beta)            :       17.999992073979 electrons
N(Total)           :       35.999984147958 electrons
E(X)               :      -32.921846944327 Eh       
E(C)               :       -1.290728320763 Eh       
E(XC)              :      -34.212575265090 Eh       
DFET-embed. en.    :        0.000000000000 Eh       
CPCM Solvation Model Properties:
Surface-charge          :            0.99131235
Charge-correction       :           -0.00150219 Eh              -0.04088 eV
Free-energy (cav+disp)  :            0.00317920 Eh               0.08651 eV
Corrected G(solv)       :         -599.48247628 Eh          -16312.74750 eV

---------------
SCF CONVERGENCE
---------------

  Last Energy change         ...    3.1947e-09  Tolerance :   1.0000e-08
  Last MAX-Density change    ...    2.2204e-15  Tolerance :   1.0000e-07
  Last RMS-Density change    ...    1.0487e-16  Tolerance :   5.0000e-09
  Last Orbital Gradient      ...    1.2584e-07  Tolerance :   1.0000e-05
  Last Orbital Rotation      ...    1.4182e-07  Tolerance :   1.0000e-05

             **** THE GBW FILE WAS UPDATED (TS_3ixBtq_ll_neb_0-2_1-2_optts_orca.gbw) ****
             **** DENSITY FILE WAS UPDATED (TS_3ixBtq_ll_neb_0-2_1-2_optts_orca.scfp) ****
             **** ENERGY FILE WAS UPDATED (TS_3ixBtq_ll_neb_0-2_1-2_optts_orca.en.tmp) ****
             **** THE GBW FILE WAS UPDATED (TS_3ixBtq_ll_neb_0-2_1-2_optts_orca.gbw) ****
             **** DENSITY FILE WAS UPDATED (TS_3ixBtq_ll_neb_0-2_1-2_optts_orca.scfp) ****
----------------
ORBITAL ENERGIES
----------------

  NO   OCC          E(Eh)            E(eV) 
   0   2.0000    -101.593760     -2764.5068 
   1   2.0000     -24.561752      -668.3592 
   2   2.0000     -10.271486      -279.5013 
   3   2.0000      -9.442509      -256.9437 
   4   2.0000      -7.181655      -195.4228 
   5   2.0000      -7.175969      -195.2680 
   6   2.0000      -7.175963      -195.2679 
   7   2.0000      -0.953306       -25.9408 
   8   2.0000      -0.765649       -20.8344 
   9   2.0000      -0.661409       -17.9979 
  10   2.0000      -0.431820       -11.7504 
  11   2.0000      -0.431515       -11.7421 
  12   2.0000      -0.333512        -9.0753 
  13   2.0000      -0.264979        -7.2105 
  14   2.0000      -0.264948        -7.2096 
  15   2.0000      -0.236396        -6.4327 
  16   2.0000      -0.236210        -6.4276 
  17   2.0000      -0.226371        -6.1599 
  18   0.0000       0.035622         0.9693 
  19   0.0000       0.107137         2.9154 
  20   0.0000       0.168310         4.5800 
  21   0.0000       0.168734         4.5915 
  22   0.0000       0.464371        12.6362 
  23   0.0000       0.464772        12.6471 
  24   0.0000       0.541896        14.7457 
  25   0.0000       0.621985        16.9251 
  26   0.0000       0.706282        19.2189 
  27   0.0000       0.706840        19.2341 
  28   0.0000       0.725876        19.7521 
  29   0.0000       0.738708        20.1013 
  30   0.0000       0.858977        23.3739 
  31   0.0000       0.859178        23.3794 
  32   0.0000       0.875123        23.8133 
  33   0.0000       0.875388        23.8205 
  34   0.0000       0.924545        25.1581 
  35   0.0000       0.940291        25.5866 
  36   0.0000       0.940664        25.5968 
  37   0.0000       1.205538        32.8043 
  38   0.0000       1.205693        32.8086 
  39   0.0000       1.256135        34.1812 
  40   0.0000       1.269116        34.5344 
  41   0.0000       1.382335        37.6153 
  42   0.0000       1.382894        37.6304 
  43   0.0000       1.507818        41.0298 
  44   0.0000       1.674536        45.5665 
  45   0.0000       1.718893        46.7735 
  46   0.0000       1.719417        46.7877 
  47   0.0000       1.965936        53.4958 
  48   0.0000       2.165860        58.9360 
  49   0.0000       2.167027        58.9678 
  50   0.0000       2.247292        61.1519 
  51   0.0000       2.371783        64.5395 
  52   0.0000       2.372944        64.5711 
  53   0.0000       2.909729        79.1778 
  54   0.0000       2.954440        80.3944 
  55   0.0000       2.954939        80.4080 
  56   0.0000       3.274711        89.1094 
  57   0.0000       3.275865        89.1408 
  58   0.0000       3.280459        89.2658 
  59   0.0000       3.280994        89.2804 
  60   0.0000       3.358027        91.3766 

                    ********************************
                    * MULLIKEN POPULATION ANALYSIS *
                    ********************************

-----------------------
MULLIKEN ATOMIC CHARGES
-----------------------
   0 F :   -0.717732
   1 Cl:   -0.560615
   2 C :    0.022790
   3 H :    0.085746
   4 H :    0.084959
   5 H :    0.084852
Sum of atomic charges:   -1.0000000

--------------------------------
MULLIKEN REDUCED ORBITAL CHARGES
--------------------------------
  0 F s       :     3.975508  s :     3.975508
      pz      :     1.985352  p :     5.741796
      px      :     1.771210
      py      :     1.985234
      dz2     :     0.000069  d :     0.000428
      dxz     :     0.000077
      dyz     :     0.000001
      dx2y2   :     0.000205
      dxy     :     0.000076
  1 Cls       :     5.975801  s :     5.975801
      pz      :     3.992269  p :    11.575780
      px      :     3.591455
      py      :     3.992057
      dz2     :     0.001500  d :     0.009034
      dxz     :     0.001521
      dyz     :     0.000017
      dx2y2   :     0.004458
      dxy     :     0.001539
  2 C s       :     3.188621  s :     3.188621
      pz      :     1.060882  p :     2.761536
      px      :     0.637240
      py      :     1.063414
      dz2     :     0.007614  d :     0.027054
      dxz     :     0.001310
      dyz     :     0.006195
      dx2y2   :     0.010518
      dxy     :     0.001417
  3 H s       :     0.888788  s :     0.888788
      pz      :     0.011684  p :     0.025466
      px      :     0.005147
      py      :     0.008635
  4 H s       :     0.889601  s :     0.889601
      pz      :     0.013824  p :     0.025440
      px      :     0.005147
      py      :     0.006469
  5 H s       :     0.889652  s :     0.889652
      pz      :     0.004884  p :     0.025496
      px      :     0.005281
      py      :     0.015331


                     *******************************
                     * LOEWDIN POPULATION ANALYSIS *
                     *******************************

----------------------
LOEWDIN ATOMIC CHARGES
----------------------
   0 F :   -0.682937
   1 Cl:   -0.415527
   2 C :    0.032677
   3 H :    0.022263
   4 H :    0.021751
   5 H :    0.021772

-------------------------------
LOEWDIN REDUCED ORBITAL CHARGES
-------------------------------
  0 F s       :     3.938465  s :     3.938465
      pz      :     1.984618  p :     5.744003
      px      :     1.774881
      py      :     1.984504
      dz2     :     0.000081  d :     0.000468
      dxz     :     0.000074
      dyz     :     0.000001
      dx2y2   :     0.000240
      dxy     :     0.000072
  1 Cls       :     5.898857  s :     5.898857
      pz      :     3.981263  p :    11.507777
      px      :     3.545459
      py      :     3.981055
      dz2     :     0.001601  d :     0.008893
      dxz     :     0.001248
      dyz     :     0.000016
      dx2y2   :     0.004762
      dxy     :     0.001266
  2 C s       :     2.957867  s :     2.957867
      pz      :     1.110048  p :     2.946530
      px      :     0.725765
      py      :     1.110717
      dz2     :     0.018140  d :     0.062925
      dxz     :     0.002668
      dyz     :     0.015446
      dx2y2   :     0.023672
      dxy     :     0.003000
  3 H s       :     0.902848  s :     0.902848
      pz      :     0.035638  p :     0.074890
      px      :     0.013855
      py      :     0.025396
  4 H s       :     0.903192  s :     0.903192
      pz      :     0.042786  p :     0.075057
      px      :     0.013762
      py      :     0.018509
  5 H s       :     0.903186  s :     0.903186
      pz      :     0.013162  p :     0.075042
      px      :     0.014285
      py      :     0.047594


                      *****************************
                      * MAYER POPULATION ANALYSIS *
                      *****************************

  NA   - Mulliken gross atomic population
  ZA   - Total nuclear charge
  QA   - Mulliken gross atomic charge
  VA   - Mayer's total valence
  BVA  - Mayer's bonded valence
  FA   - Mayer's free valence

  ATOM       NA         ZA         QA         VA         BVA        FA
  0 F      9.7177     9.0000    -0.7177     0.4941     0.4941    -0.0000
  1 Cl    17.5606    17.0000    -0.5606     0.6829     0.6829    -0.0000
  2 C      5.9772     6.0000     0.0228     3.8715     3.8715    -0.0000
  3 H      0.9143     1.0000     0.0857     1.0098     1.0098    -0.0000
  4 H      0.9150     1.0000     0.0850     1.0102     1.0102    -0.0000
  5 H      0.9151     1.0000     0.0849     1.0109     1.0109    -0.0000

  Mayer bond orders larger than 0.100000
B(  0-F ,  2-C ) :   0.3478 B(  1-Cl,  2-C ) :   0.5797 B(  2-C ,  3-H ) :   0.9812 
B(  2-C ,  4-H ) :   0.9815 B(  2-C ,  5-H ) :   0.9813 


------------------
HIRSHFELD ANALYSIS
------------------

Total integrated alpha density =     18.001158422
Total integrated beta density  =     18.001158422

  ATOM     CHARGE      SPIN    
   0 F   -0.655912    0.000000
   1 Cl  -0.473081    0.000000
   2 C    0.007834    0.000000
   3 H    0.039963    0.000000
   4 H    0.039507    0.000000
   5 H    0.039371    0.000000

  TOTAL  -1.002317    0.000000

-------
TIMINGS
-------

Total SCF time: 0 days 0 hours 0 min 5 sec 

Total time                  ....       5.140 sec
Sum of individual times     ....       4.965 sec  ( 96.6%)

Fock matrix formation       ....       4.605 sec  ( 89.6%)
  Split-RI-J                ....       1.155 sec  ( 25.1% of F)
  Chain of spheres X        ....       1.026 sec  ( 22.3% of F)
  COS-X 1 center corr.      ....       0.000 sec  (  0.0% of F)
  XC integration            ....       0.165 sec  (  3.6% of F)
    Basis function eval.    ....       0.062 sec  ( 37.4% of XC)
    Density eval.           ....       0.024 sec  ( 14.7% of XC)
    XC-Functional eval.     ....       0.027 sec  ( 16.6% of XC)
    XC-Potential eval.      ....       0.027 sec  ( 16.6% of XC)
Diagonalization             ....       0.004 sec  (  0.1%)
Density matrix formation    ....       0.001 sec  (  0.0%)
Population analysis         ....       0.009 sec  (  0.2%)
Initial guess               ....       0.091 sec  (  1.8%)
Orbital Transformation      ....       0.000 sec  (  0.0%)
Orbital Orthonormalization  ....       0.000 sec  (  0.0%)
DIIS solution               ....       0.002 sec  (  0.0%)
SOSCF solution              ....       0.002 sec  (  0.0%)
Grid generation             ....       0.251 sec  (  4.9%)


-------------------------------------------------------------------------------
                          DFT DISPERSION CORRECTION                            
                                                                               
                              DFTD3 V3.1  Rev 1                                
                          USING Becke-Johnson damping                          
-------------------------------------------------------------------------------
The PBE0 functional is recognized
Active option DFTDOPT                   ...         4   

molecular C6(AA) [au] = 486.142875 


            DFT-D V3
 parameters
 s6 scaling factor         :     1.0000 
 a1 scaling factor         :     0.4145 
 s8 scaling factor         :     1.2177 
 a2 scaling factor         :     4.8593 
 ad hoc parameters k1-k3   :    16.0000     1.3333    -4.0000 

 Edisp/kcal,au: -1.503658412669  -0.002396231953 
 E6   /kcal   :  -0.950285831 
 E8   /kcal   :  -0.553372582 
 % E8         :  36.801748124 

-------------------------   ----------------
Dispersion correction           -0.002396232
-------------------------   ----------------


-------------------------   --------------------
FINAL SINGLE POINT ENERGY      -599.486549519889
-------------------------   --------------------

[1597942014.409786] [comp0810:60142:0]            sys.c:618  UCX  ERROR shmget(size=2097152 flags=0xfb0) for mm_recv_desc failed: Operation not permitted, please check shared memory limits by 'ipcs -l'
[1597942014.409836] [comp0810:60143:0]            sys.c:618  UCX  ERROR shmget(size=2097152 flags=0xfb0) for mm_recv_desc failed: Operation not permitted, please check shared memory limits by 'ipcs -l'
[1597942014.416654] [comp0810:60140:0]            sys.c:618  UCX  ERROR shmget(size=2097152 flags=0xfb0) for mm_recv_desc failed: Operation not permitted, please check shared memory limits by 'ipcs -l'
[1597942014.416821] [comp0810:60141:0]            sys.c:618  UCX  ERROR shmget(size=2097152 flags=0xfb0) for mm_recv_desc failed: Operation not permitted, please check shared memory limits by 'ipcs -l'
[1597942014.426271] [comp0810:60143:0]            sys.c:618  UCX  ERROR shmget(size=2097152 flags=0xb80) for ucp_am_bufs failed: Operation not permitted, please check shared memory limits by 'ipcs -l'
[1597942014.425958] [comp0810:60140:0]            sys.c:618  UCX  ERROR shmget(size=2097152 flags=0xb80) for ucp_am_bufs failed: Operation not permitted, please check shared memory limits by 'ipcs -l'


           ************************************************************
           *        Program running with 4 parallel MPI-processes     *
           *              working on a common directory               *
           ************************************************************
------------------------------------------------------------------------------
                         ORCA SCF GRADIENT CALCULATION
------------------------------------------------------------------------------

[1597942014.425975] [comp0810:60142:0]            sys.c:618  UCX  ERROR shmget(size=2097152 flags=0xb80) for ucp_am_bufs failed: Operation not permitted, please check shared memory limits by 'ipcs -l'
[1597942014.428908] [comp0810:60141:0]            sys.c:618  UCX  ERROR shmget(size=2097152 flags=0xb80) for ucp_am_bufs failed: Operation not permitted, please check shared memory limits by 'ipcs -l'
Gradient of the Kohn-Sham DFT energy:
Kohn-Sham wavefunction type      ... RKS
Hartree-Fock exchange scaling    ...    0.250
Number of operators              ...    1
Number of atoms                  ...    6
Basis set dimensions             ...   61
Integral neglect threshold       ... 2.5e-11
Integral primitive cutoff        ... 2.5e-12

Nuclear repulsion gradient       ... done
One Electron Gradient            ... done
Pre-screening matrix             ... done
RI-J gradient                    ... done
COSX-gradient                    ... done
Exchange-correlation gradient    ... done
Dispersion correction            ... done

------------------
CARTESIAN GRADIENT
------------------

   1   F   :   -0.004671948   -0.003871659   -0.000575361
   2   Cl  :    0.004982549    0.000897982    0.000329780
   3   C   :   -0.001508868    0.000121431    0.001029957
   4   H   :    0.001077039    0.005406852    0.007046419
   5   H   :    0.001069979    0.003887711   -0.008459286
   6   H   :    0.001222693   -0.009117095    0.001407697

Difference to translation invariance:
           :    0.0021714439   -0.0026747787    0.0007792055

Norm of the cartesian gradient     ...    0.0179082048
RMS gradient                       ...    0.0042210044
MAX gradient                       ...    0.0091170953

-------
TIMINGS
-------

Total SCF gradient time            ...        0.568 sec

One electron gradient       ....       0.003 sec  (  0.6%)
Prescreening matrices       ....       0.007 sec  (  1.3%)
RI-J Coulomb gradient       ....       0.075 sec  ( 13.2%)
COSX gradient               ....       0.110 sec  ( 19.4%)
XC gradient                 ....       0.107 sec  ( 18.8%)
CPCM gradient               ....       0.076 sec  ( 13.3%)
   A-Matrix (El+Nuc)        ....       0.001 sec  (  0.2%)
   Potential                ....       0.074 sec  ( 13.1%)
[1597942015.801922] [comp0810:60163:0]            sys.c:618  UCX  ERROR shmget(size=2097152 flags=0xfb0) for mm_recv_desc failed: Operation not permitted, please check shared memory limits by 'ipcs -l'
[1597942015.807202] [comp0810:60161:0]            sys.c:618  UCX  ERROR shmget(size=2097152 flags=0xfb0) for mm_recv_desc failed: Operation not permitted, please check shared memory limits by 'ipcs -l'
[1597942015.807341] [comp0810:60164:0]            sys.c:618  UCX  ERROR shmget(size=2097152 flags=0xfb0) for mm_recv_desc failed: Operation not permitted, please check shared memory limits by 'ipcs -l'
[1597942015.809257] [comp0810:60162:0]            sys.c:618  UCX  ERROR shmget(size=2097152 flags=0xfb0) for mm_recv_desc failed: Operation not permitted, please check shared memory limits by 'ipcs -l'
[1597942015.818607] [comp0810:60164:0]            sys.c:618  UCX  ERROR shmget(size=2097152 flags=0xb80) for ucp_am_bufs failed: Operation not permitted, please check shared memory limits by 'ipcs -l'
[1597942015.818197] [comp0810:60161:0]            sys.c:618  UCX  ERROR shmget(size=2097152 flags=0xb80) for ucp_am_bufs failed: Operation not permitted, please check shared memory limits by 'ipcs -l'


           ************************************************************
           *        Program running with 4 parallel MPI-processes     *
           *              working on a common directory               *
           ************************************************************
[1597942015.818640] [comp0810:60162:0]            sys.c:618  UCX  ERROR shmget(size=2097152 flags=0xb80) for ucp_am_bufs failed: Operation not permitted, please check shared memory limits by 'ipcs -l'
[1597942015.833338] [comp0810:60163:0]            sys.c:618  UCX  ERROR shmget(size=2097152 flags=0xb80) for ucp_am_bufs failed: Operation not permitted, please check shared memory limits by 'ipcs -l'

-------------------------------------------------------------------------------
                               ORCA SCF HESSIAN
-------------------------------------------------------------------------------

Hessian of the Kohn-Sham DFT energy:
Kohn-Sham wavefunction type                      ... RKS
Hartree-Fock exchange scaling                    ...    0.250
Number of operators                              ...    1
Number of atoms                                  ...    6
Basis set dimensions                             ...   61
Integral neglect threshold                       ... 2.5e-11
Integral primitive cutoff                        ... 2.5e-12

Setting up DFT Hessian calculations              ... 
Electron density on the grid                     ... found on disk
Electron density on the final grid               ... found on disk
Building xc-kernel on the grid                   ... done   (      0.0 sec)
Building xc-kernel on the final grid             ... done   (      0.0 sec)
                                                     done   (      0.0 sec)

Nuclear repulsion Hessian                        ... done   (      0.0 sec)

----------------------------------------------
Forming right-hand sides of CP-SCF equations     ...
----------------------------------------------
One electron integral derivatives                ... done   (      0.6 sec)
Transforming the overlap derivative matrices     ... done   (      0.0 sec)
Adding tr(S(x)F(y) C-PCM term to the hessian     ... done   (      0.2 sec)
Making the Q(x) pseudodensities                  ... done   (      0.0 sec)
Adding the E*S(x)*S(y) terms to the Hessian      ... done   (      0.0 sec)
Calculating energy weighted overlap derivatives  ... done   (      0.0 sec)
Two electron integral derivatives (RI)           ... done   (      0.3 sec)
Exchange-correlation integral derivatives        ... done   (      0.6 sec)
tr(F(y)Q(x)) contribution to the Hessian         ... done   (      0.0 sec)
Response fock operator R(S(x)) (RIJCOSX)         ... done   (      0.4 sec)
XC Response fock operator R(S(x))                ... done   (      0.2 sec)
tr(F(y)S(x)) contribution to the Hessian         ... done   (      0.0 sec)
Transforming and finalizing RHSs                 ... done   (      0.0 sec)

----------------------------------------------
Solving the CP-SCF equations (RIJCOSX)           ...
----------------------------------------------
     CP-SCF ITERATION   0: 
     CP-SCF ITERATION   1:      0.000472520950
     CP-SCF ITERATION   2:      0.000083955701
     CP-SCF ITERATION   3:      0.000006025503
     CP-SCF ITERATION   4:      0.000000179902
     CP-SCF ITERATION   5:      0.000000007390

                                                 ... done   (      2.6 sec)
Forming perturbed density Hessian contributions  ... done   (      0.0 sec)
Calculating [Q*(d^2 A/dXdY)*Q  ] C-PCM term      ... done   (      0.0 sec)
Calculating [d^2(V_N)/(dXdY)*Q ] C-PCM term      ... done   (      0.0 sec)
Calculating [d^2(V_el)/(dXdY)*Q] C-PCM term      ... done   (      0.1 sec)
Calculating C-PCM term that depends on dQ/dX     ... done   (      0.0 sec)
2nd integral derivative contribs (RI)            ... done   (      1.0 sec)
Exchange-correlation Hessian                     ... done   (      0.8 sec)
Dispersion correction in the Hessian             ... done   (      0.3 sec)
Dipol derivatives                                ... done   (      0.1 sec)

Total SCF Hessian time: 0 days 0 hours 0 min 7 sec 

Writing the Hessian file to the disk             ... done


Maximum memory used throughout the entire calculation: 132.3 MB

-----------------------
VIBRATIONAL FREQUENCIES
-----------------------

Scaling factor for frequencies =  1.000000000  (already applied!)

   0:         0.00 cm**-1
   1:         0.00 cm**-1
   2:         0.00 cm**-1
   3:         0.00 cm**-1
   4:         0.00 cm**-1
   5:         0.00 cm**-1
   6:      -523.91 cm**-1 ***imaginary mode***
   7:       214.74 cm**-1
   8:       222.52 cm**-1
   9:       269.50 cm**-1
  10:       825.54 cm**-1
  11:       826.20 cm**-1
  12:       977.46 cm**-1
  13:      1306.43 cm**-1
  14:      1308.68 cm**-1
  15:      3292.21 cm**-1
  16:      3515.48 cm**-1
  17:      3519.72 cm**-1


------------
NORMAL MODES
------------

These modes are the Cartesian displacements weighted by the diagonal matrix
M(i,i)=1/sqrt(m[i]) where m[i] is the mass of the displaced atom
Thus, these vectors are normalized but *not* orthogonal

                  0          1          2          3          4          5    
      0       0.000000   0.000000   0.000000   0.000000   0.000000   0.000000
      1       0.000000   0.000000   0.000000   0.000000   0.000000   0.000000
      2       0.000000   0.000000   0.000000   0.000000   0.000000   0.000000
      3       0.000000   0.000000   0.000000   0.000000   0.000000   0.000000
      4       0.000000   0.000000   0.000000   0.000000   0.000000   0.000000
      5       0.000000   0.000000   0.000000   0.000000   0.000000   0.000000
      6       0.000000   0.000000   0.000000   0.000000   0.000000   0.000000
      7       0.000000   0.000000   0.000000   0.000000   0.000000   0.000000
      8       0.000000   0.000000   0.000000   0.000000   0.000000   0.000000
      9       0.000000   0.000000   0.000000   0.000000   0.000000   0.000000
     10       0.000000   0.000000   0.000000   0.000000   0.000000   0.000000
     11       0.000000   0.000000   0.000000   0.000000   0.000000   0.000000
     12       0.000000   0.000000   0.000000   0.000000   0.000000   0.000000
     13       0.000000   0.000000   0.000000   0.000000   0.000000   0.000000
     14       0.000000   0.000000   0.000000   0.000000   0.000000   0.000000
     15       0.000000   0.000000   0.000000   0.000000   0.000000   0.000000
     16       0.000000   0.000000   0.000000   0.000000   0.000000   0.000000
     17       0.000000   0.000000   0.000000   0.000000   0.000000   0.000000
                  6          7          8          9         10         11    
      0      -0.257537  -0.008059   0.004472   0.835642   0.000310  -0.000184
      1      -0.005200   0.081884  -0.172623   0.022431   0.003956   0.004630
      2       0.005416  -0.172560  -0.082119  -0.013047   0.004474  -0.004040
      3      -0.142774  -0.000171  -0.000244  -0.505806   0.000370   0.000374
      4      -0.003238   0.039926  -0.083972  -0.008973  -0.009410  -0.010756
      5       0.001900  -0.083943  -0.039871   0.004938  -0.010835   0.009378
      6       0.876333   0.010910  -0.004719   0.149826  -0.001633  -0.000852
      7       0.018969  -0.194999   0.410392  -0.006651   0.031088   0.035401
      8      -0.013882   0.410042   0.195068   0.004660   0.035791  -0.030922
      9      -0.173734  -0.067704  -0.149659   0.087138   0.808501  -0.064842
     10       0.060899  -0.204123   0.428157  -0.001528  -0.014101  -0.057260
     11       0.087965   0.435016   0.215335   0.015600  -0.042096   0.046726
     12      -0.201159   0.169690  -0.000414   0.088007  -0.346997   0.732601
     13       0.040289  -0.210852   0.448773  -0.004839  -0.058726  -0.027272
     14      -0.103773   0.433862   0.212167  -0.006022  -0.038208   0.015188
     15      -0.191746  -0.074086   0.130593   0.080067  -0.460880  -0.667288
     16      -0.115332  -0.209022   0.439858  -0.021568  -0.041210  -0.046237
     17       0.012322   0.449864   0.198176   0.007115  -0.049386   0.052845
                 12         13         14         15         16         17    
      0       0.040385   0.000030  -0.000031   0.000435  -0.000000  -0.000008
      1       0.000799   0.000415   0.000734  -0.000016   0.000317   0.000586
      2      -0.000646   0.000825  -0.000440   0.000002   0.000569  -0.000374
      3       0.027595  -0.000024  -0.000014  -0.000170  -0.000013  -0.000012
      4       0.000634  -0.000062  -0.000090  -0.000015   0.000173   0.000317
      5      -0.000296  -0.000043   0.000055   0.000008   0.000307  -0.000202
      6      -0.001004  -0.000139   0.002327   0.015159   0.000187   0.002645
      7      -0.000137  -0.047370  -0.076152   0.001203  -0.053741  -0.087653
      8      -0.000056  -0.076440   0.047318   0.000226  -0.087597   0.053942
      9      -0.573562   0.108708  -0.011060  -0.060475   0.088298   0.007451
     10       0.023919  -0.105836   0.637200  -0.346196   0.477005   0.033469
     11       0.056388  -0.040663  -0.480042  -0.466392   0.641285   0.056861
     12      -0.576004  -0.070810   0.082517  -0.049150  -0.042927   0.060902
     13       0.012912   0.624675   0.386662  -0.230236  -0.192628   0.261476
     14      -0.048219   0.214077   0.253058   0.526398   0.425884  -0.606521
     15      -0.570188  -0.035971  -0.098109  -0.073233  -0.047136  -0.099289
     16      -0.072566   0.039976  -0.127134   0.562922   0.343941   0.727290
     17       0.015083   0.723385  -0.330494  -0.063045  -0.044920  -0.078963


-----------
IR SPECTRUM
-----------

 Mode    freq (cm**-1)   T**2         TX         TY         TZ
-------------------------------------------------------------------
   7:       214.74   27.156455  (  0.242078  -2.221730   4.707629)
   8:       222.52   27.740460  ( -0.027823   4.745031   2.285687)
   9:       269.50    1.660247  ( -1.284821  -0.082473   0.051775)
  10:       825.54    1.203676  ( -0.101874  -0.738401  -0.805023)
  11:       826.20    1.270768  (  0.043733  -0.857830   0.730057)
  12:       977.46    5.658755  (  2.378124   0.049708  -0.028512)
  13:      1306.43   10.629388  ( -0.043650   1.764236   2.741341)
  14:      1308.68   10.525577  ( -0.046740   2.793324  -1.649465)
  15:      3292.21    0.325236  (  0.569266   0.034209   0.001612)
  16:      3515.48    0.765698  ( -0.026946   0.467086   0.739462)
  17:      3519.72    0.862768  (  0.024978   0.797607  -0.475359)

The first frequency considered to be a vibration is 7
The total number of vibrations considered is 11


--------------------------
THERMOCHEMISTRY AT 298.15K
--------------------------

Temperature         ... 298.15 K
Pressure            ... 1.00 atm
Total Mass          ... 69.49 AMU

Throughout the following assumptions are being made:
  (1) The electronic state is orbitally nondegenerate
  (2) There are no thermally accessible electronically excited states
  (3) Hindered rotations indicated by low frequency modes are not
      treated as such but are treated as vibrations and this may
      cause some error
  (4) All equations used are the standard statistical mechanics
      equations for an ideal gas
  (5) All vibrations are strictly harmonic

freq.     214.74  E(vib)   ...       0.34 
freq.     222.52  E(vib)   ...       0.33 
freq.     269.50  E(vib)   ...       0.29 
freq.     825.54  E(vib)   ...       0.04 
freq.     826.20  E(vib)   ...       0.04 
freq.     977.46  E(vib)   ...       0.03 
freq.    1306.43  E(vib)   ...       0.01 
freq.    1308.68  E(vib)   ...       0.01 
freq.    3292.21  E(vib)   ...       0.00 
freq.    3515.48  E(vib)   ...       0.00 
freq.    3519.72  E(vib)   ...       0.00 

------------
INNER ENERGY
------------

The inner energy is: U= E(el) + E(ZPE) + E(vib) + E(rot) + E(trans)
    E(el)   - is the total energy from the electronic structure calculation
              = E(kin-el) + E(nuc-el) + E(el-el) + E(nuc-nuc)
    E(ZPE)  - the the zero temperature vibrational energy from the frequency calculation
    E(vib)  - the the finite temperature correction to E(ZPE) due to population
              of excited vibrational states
    E(rot)  - is the rotational thermal energy
    E(trans)- is the translational thermal energy

Summary of contributions to the inner energy U:
Electronic energy                ...   -599.48654952 Eh
Zero point energy                ...      0.03708515 Eh      23.27 kcal/mol
Thermal vibrational correction   ...      0.00172845 Eh       1.08 kcal/mol
Thermal rotational correction    ...      0.00141627 Eh       0.89 kcal/mol
Thermal translational correction ...      0.00141627 Eh       0.89 kcal/mol
-----------------------------------------------------------------------
Total thermal energy                   -599.44490337 Eh


Summary of corrections to the electronic energy:
(perhaps to be used in another calculation)
Total thermal correction                  0.00456100 Eh       2.86 kcal/mol
Non-thermal (ZPE) correction              0.03708515 Eh      23.27 kcal/mol
-----------------------------------------------------------------------
Total correction                          0.04164615 Eh      26.13 kcal/mol


--------
ENTHALPY
--------

The enthalpy is H = U + kB*T
                kB is Boltzmann's constant
Total free energy                 ...   -599.44490337 Eh 
Thermal Enthalpy correction       ...      0.00094421 Eh       0.59 kcal/mol
-----------------------------------------------------------------------
Total Enthalpy                    ...   -599.44395916 Eh


Note: Only C1 symmetry has been detected, increase convergence thresholds 
      if your molecule has a higher symmetry. Symmetry factor of 1.0 is   
      used for the rotational entropy correction. 
 

Note: Rotational entropy computed according to Herzberg 
Infrared and Raman Spectra, Chapter V,1, Van Nostrand Reinhold, 1945 
Point Group:  C1, Symmetry Number:   1  
Rotational constants in cm-1:     4.921223     0.074261     0.074261 

Vibrational entropy computed according to the QRRHO of S. Grimme
Chem.Eur.J. 2012 18 9955


-------
ENTROPY
-------

The entropy contributions are T*S = T*(S(el)+S(vib)+S(rot)+S(trans))
     S(el)   - electronic entropy
     S(vib)  - vibrational entropy
     S(rot)  - rotational entropy
     S(trans)- translational entropy
The entropies will be listed as mutliplied by the temperature to get
units of energy

Electronic entropy                ...      0.00000000 Eh      0.00 kcal/mol
Vibrational entropy               ...      0.00289128 Eh      1.81 kcal/mol
Rotational entropy                ...      0.01121354 Eh      7.04 kcal/mol
Translational entropy             ...      0.01835566 Eh     11.52 kcal/mol
-----------------------------------------------------------------------
Final entropy term                ...      0.03246047 Eh     20.37 kcal/mol

In case the symmetry of your molecule has not been determined correctly
or in case you have a reason to use a different symmetry number we print 
out the resulting rotational entropy values for sn=1,12 :
 --------------------------------------------------------
|  sn= 1 | S(rot)=       0.01121354 Eh      7.04 kcal/mol|
|  sn= 2 | S(rot)=       0.01055908 Eh      6.63 kcal/mol|
|  sn= 3 | S(rot)=       0.01017625 Eh      6.39 kcal/mol|
|  sn= 4 | S(rot)=       0.00990462 Eh      6.22 kcal/mol|
|  sn= 5 | S(rot)=       0.00969394 Eh      6.08 kcal/mol|
|  sn= 6 | S(rot)=       0.00952179 Eh      5.98 kcal/mol|
|  sn= 7 | S(rot)=       0.00937624 Eh      5.88 kcal/mol|
|  sn= 8 | S(rot)=       0.00925017 Eh      5.80 kcal/mol|
|  sn= 9 | S(rot)=       0.00913896 Eh      5.73 kcal/mol|
|  sn=10 | S(rot)=       0.00903948 Eh      5.67 kcal/mol|
|  sn=11 | S(rot)=       0.00894949 Eh      5.62 kcal/mol|
|  sn=12 | S(rot)=       0.00886733 Eh      5.56 kcal/mol|
 --------------------------------------------------------


-------------------
GIBBS FREE ENERGY
-------------------

The Gibbs free energy is G = H - T*S

Total enthalpy                    ...   -599.44395916 Eh 
Total entropy correction          ...     -0.03246047 Eh    -20.37 kcal/mol
-----------------------------------------------------------------------
Final Gibbs free energy         ...   -599.47641964 Eh

For completeness - the Gibbs free energy minus the electronic energy
G-E(el)                           ...      0.01012988 Eh      6.36 kcal/mol

[1597942024.297062] [comp0810:60182:0]            sys.c:618  UCX  ERROR shmget(size=2097152 flags=0xfb0) for mm_recv_desc failed: Operation not permitted, please check shared memory limits by 'ipcs -l'
[1597942024.296834] [comp0810:60183:0]            sys.c:618  UCX  ERROR shmget(size=2097152 flags=0xfb0) for mm_recv_desc failed: Operation not permitted, please check shared memory limits by 'ipcs -l'
[1597942024.306460] [comp0810:60184:0]            sys.c:618  UCX  ERROR shmget(size=2097152 flags=0xfb0) for mm_recv_desc failed: Operation not permitted, please check shared memory limits by 'ipcs -l'
[1597942024.318116] [comp0810:60185:0]            sys.c:618  UCX  ERROR shmget(size=2097152 flags=0xfb0) for mm_recv_desc failed: Operation not permitted, please check shared memory limits by 'ipcs -l'
[1597942024.324581] [comp0810:60182:0]            sys.c:618  UCX  ERROR shmget(size=2097152 flags=0xb80) for ucp_am_bufs failed: Operation not permitted, please check shared memory limits by 'ipcs -l'
[1597942024.324574] [comp0810:60184:0]            sys.c:618  UCX  ERROR shmget(size=2097152 flags=0xb80) for ucp_am_bufs failed: Operation not permitted, please check shared memory limits by 'ipcs -l'
[1597942024.482351] [comp0810:60183:0]            sys.c:618  UCX  ERROR shmget(size=2097152 flags=0xb80) for ucp_am_bufs failed: Operation not permitted, please check shared memory limits by 'ipcs -l'
Actual Hessian File stored as TS_3ixBtq_ll_neb_0-2_1-2_optts_orca.001.hess
------------------------------------------------------------------------------
                         ORCA GEOMETRY RELAXATION STEP
------------------------------------------------------------------------------

Reading the OPT-File                    .... done
Getting information on internals        .... done
Copying old internal coords+grads       .... done
Making the new internal coordinates     .... (new redundants).... done
Validating the new internal coordinates .... (new redundants).... done
Calculating the B-matrix                .... done
Calculating the G,G- and P matrices     .... done
Transforming gradient to internals      .... done
Projecting the internal gradient        .... done
Number of atoms                         ....   6
Number of internal coordinates          ....  17
Current Energy                          ....  -599.486549520 Eh
Current gradient norm                   ....     0.017908205 Eh/bohr
Maximum allowed component of the step   ....  0.300
Current trust radius                    ....  0.100
Evaluating the initial hessian          ....  (read) 
(Reading Exact Hessian)...  
InHessName: TS_3ixBtq_ll_neb_0-2_1-2_optts_orca.hess	The file <TS_3ixBtq_ll_neb_0-2_1-2_optts_orca.hess> is opened as a .hess file
done
done
Diagonalizing the Hessian               .... done
Dimension of the hessian                .... 17
Lowest eigenvalues of the non projected Hessian:
 -0.031053119 -0.000051432 -0.000016416 -0.000000387  0.000013095
done
Projecting the Hessian                  .... done
Diagonalizing the Hessian               .... done
Dimension of the hessian                ....  17
Lowest eigenvalues of the Hessian:
 -0.031040610  0.010477522  0.011131951  0.016302281  0.081787157
Hessian has   1 negative eigenvalues
Taking P-RFO step
Searching for lambda that maximizes along the lowest mode
TS mode is mode number   0 with eigenvalue  -0.03104061 and components:
   1.    0.56656269
   2.   -0.57946431
   3.    0.08112490
   4.    0.00122519
   5.    0.00100699
   6.    0.07211424
   7.    0.07479166
   8.    0.00111236
   9.    0.22489320
  10.   -0.08735796
  11.    0.22565232
  12.   -0.08653505
  13.   -0.08729189
  14.   -0.22216694
  15.   -0.22667491
  16.   -0.22543000
  17.    0.22372906

Lambda that maximizes along the TS mode:       0.00000904
Searching for lambda that minimizes along all other modes
In cycle   1: lambdaN =  -0.00156656   step =   0.00156656
In cycle   2: lambdaN =  -0.00157404   step =   0.00000748
In cycle   3: lambdaN =  -0.00157404   step =   0.00000000
Lambda that minimizes along all other modes:  -0.00157404
Calculated stepsize too large (   0.2021 >    0.1000). Scaled with    0.4948.
The final length of the internal step   ....       0.1000
Converting the step to cartesian space:
 Initial RMS(Int)=    0.0242535625
Transforming coordinates:
 Iter   0:  RMS(Cart)=    0.0212669854 RMS(Int)=    0.0241875825
 Iter   1:  RMS(Cart)=    0.0002372389 RMS(Int)=    0.0003142295
 Iter   2:  RMS(Cart)=    0.0000036664 RMS(Int)=    0.0000049755
 Iter   3:  RMS(Cart)=    0.0000000335 RMS(Int)=    0.0000000440
done
Storing new coordinates                 .... done

                                .--------------------.
          ----------------------|Geometry convergence|-------------------------
          Item                value                   Tolerance       Converged
          ---------------------------------------------------------------------
          RMS gradient        0.0042908665            0.0001000000      NO
          MAX gradient        0.0095543114            0.0003000000      NO
          RMS step            0.0242535625            0.0020000000      NO
          MAX step            0.0753775037            0.0040000000      NO
          ........................................................
          Max(Bonds)      0.0399      Max(Angles)    1.75
          Max(Dihed)        0.00      Max(Improp)    0.00
          ---------------------------------------------------------------------

The optimization has not yet converged - more geometry cycles are needed


    ---------------------------------------------------------------------------
                         Redundant Internal Coordinates
                            (Angstroem and degrees)

        Definition                    Value    dE/dq     Step     New-Value  comp.(TS mode)
    ----------------------------------------------------------------------------
     1. B(C   2,F   0)                2.0672  0.004819 -0.0131    2.0540          0.57
     2. B(C   2,Cl  1)                2.1452  0.004647 -0.0205    2.1247          0.58
     3. B(H   3,F   0)                2.2194 -0.001163  0.0088    2.2282   
     4. B(H   3,C   2)                1.0716 -0.008592  0.0060    1.0777   
     5. B(H   4,C   2)                1.0710 -0.009554  0.0061    1.0772   
     6. B(H   4,F   0)                2.2153 -0.000179 -0.0080    2.2073   
     7. B(H   5,F   0)                2.2169  0.001656 -0.0399    2.1770   
     8. B(H   5,C   2)                1.0710 -0.009461  0.0050    1.0760   
     9. A(Cl  1,C   2,H   4)           96.41 -0.000009    0.23     96.64   
    10. A(H   3,C   2,H   4)          118.70  0.000703   -0.35    118.35   
    11. A(Cl  1,C   2,H   5)           96.51  0.002247    0.26     96.78   
    12. A(H   3,C   2,H   5)          118.64 -0.000346   -0.01    118.63   
    13. A(H   4,C   2,H   5)          118.82 -0.000762    0.11    118.93   
    14. A(F   0,C   2,H   3)           83.57 -0.001141    1.04     84.62   
    15. A(F   0,C   2,H   4)           83.35 -0.000437    0.07     83.42   
    16. A(F   0,C   2,H   5)           83.44  0.000529   -1.75     81.70   
    17. A(Cl  1,C   2,H   3)           96.71 -0.001194    0.15     96.86   
    ----------------------------------------------------------------------------

         *************************************************************
         *                GEOMETRY OPTIMIZATION CYCLE   2            *
         *************************************************************
---------------------------------
CARTESIAN COORDINATES (ANGSTROEM)
[...]
x,y,z [Debye]:    -3.858384     0.129575    -0.032184 

 
[1597942049.543048] [comp0810:60438:0]            sys.c:618  UCX  ERROR shmget(size=2097152 flags=0xfb0) for mm_recv_desc failed: Operation not permitted, please check shared memory limits by 'ipcs -l'
[1597942049.545456] [comp0810:60440:0]            sys.c:618  UCX  ERROR shmget(size=2097152 flags=0xfb0) for mm_recv_desc failed: Operation not permitted, please check shared memory limits by 'ipcs -l'
[1597942049.549860] [comp0810:60439:0]            sys.c:618  UCX  ERROR shmget(size=2097152 flags=0xfb0) for mm_recv_desc failed: Operation not permitted, please check shared memory limits by 'ipcs -l'
[1597942049.550339] [comp0810:60441:0]            sys.c:618  UCX  ERROR shmget(size=2097152 flags=0xfb0) for mm_recv_desc failed: Operation not permitted, please check shared memory limits by 'ipcs -l'
[1597942049.558123] [comp0810:60438:0]            sys.c:618  UCX  ERROR shmget(size=2097152 flags=0xb80) for ucp_am_bufs failed: Operation not permitted, please check shared memory limits by 'ipcs -l'


           ************************************************************
           *        Program running with 4 parallel MPI-processes     *
           *              working on a common directory               *
           ************************************************************
[1597942049.558506] [comp0810:60439:0]            sys.c:618  UCX  ERROR shmget(size=2097152 flags=0xb80) for ucp_am_bufs failed: Operation not permitted, please check shared memory limits by 'ipcs -l'
[1597942049.558503] [comp0810:60441:0]            sys.c:618  UCX  ERROR shmget(size=2097152 flags=0xb80) for ucp_am_bufs failed: Operation not permitted, please check shared memory limits by 'ipcs -l'
[1597942049.558846] [comp0810:60440:0]            sys.c:618  UCX  ERROR shmget(size=2097152 flags=0xb80) for ucp_am_bufs failed: Operation not permitted, please check shared memory limits by 'ipcs -l'

-------------------------------------------------------------------------------
                               ORCA SCF HESSIAN
-------------------------------------------------------------------------------

Hessian of the Kohn-Sham DFT energy:
Kohn-Sham wavefunction type                      ... RKS
Hartree-Fock exchange scaling                    ...    0.250
Number of operators                              ...    1
Number of atoms                                  ...    6
Basis set dimensions                             ...   61
Integral neglect threshold                       ... 2.5e-11
Integral primitive cutoff                        ... 2.5e-12

Setting up DFT Hessian calculations              ... 
Electron density on the grid                     ... found on disk
Electron density on the final grid               ... found on disk
Building xc-kernel on the grid                   ... done   (      0.0 sec)
Building xc-kernel on the final grid             ... done   (      0.0 sec)
                                                     done   (      0.0 sec)

Nuclear repulsion Hessian                        ... done   (      0.0 sec)

----------------------------------------------
Forming right-hand sides of CP-SCF equations     ...
----------------------------------------------
One electron integral derivatives                ... done   (      0.6 sec)
Transforming the overlap derivative matrices     ... done   (      0.0 sec)
Adding tr(S(x)F(y) C-PCM term to the hessian     ... done   (      0.2 sec)
Making the Q(x) pseudodensities                  ... done   (      0.0 sec)
Adding the E*S(x)*S(y) terms to the Hessian      ... done   (      0.0 sec)
Calculating energy weighted overlap derivatives  ... done   (      0.0 sec)
Two electron integral derivatives (RI)           ... done   (      0.3 sec)
Exchange-correlation integral derivatives        ... done   (      0.6 sec)
tr(F(y)Q(x)) contribution to the Hessian         ... done   (      0.0 sec)
Response fock operator R(S(x)) (RIJCOSX)         ... done   (      0.4 sec)
XC Response fock operator R(S(x))                ... done   (      0.2 sec)
tr(F(y)S(x)) contribution to the Hessian         ... done   (      0.0 sec)
Transforming and finalizing RHSs                 ... done   (      0.0 sec)

----------------------------------------------
Solving the CP-SCF equations (RIJCOSX)           ...
----------------------------------------------
     CP-SCF ITERATION   0: 
     CP-SCF ITERATION   1:      0.000471490749
     CP-SCF ITERATION   2:      0.000078993005
     CP-SCF ITERATION   3:      0.000005887345
     CP-SCF ITERATION   4:      0.000000163933
     CP-SCF ITERATION   5:      0.000000004296

                                                 ... done   (      2.5 sec)
Forming perturbed density Hessian contributions  ... done   (      0.0 sec)
Calculating [Q*(d^2 A/dXdY)*Q  ] C-PCM term      ... done   (      0.0 sec)
Calculating [d^2(V_N)/(dXdY)*Q ] C-PCM term      ... done   (      0.0 sec)
Calculating [d^2(V_el)/(dXdY)*Q] C-PCM term      ... done   (      0.1 sec)
Calculating C-PCM term that depends on dQ/dX     ... done   (      0.0 sec)
2nd integral derivative contribs (RI)            ... done   (      1.0 sec)
Exchange-correlation Hessian                     ... done   (      0.8 sec)
Dispersion correction in the Hessian             ... done   (      0.3 sec)
Dipol derivatives                                ... done   (      0.1 sec)

Total SCF Hessian time: 0 days 0 hours 0 min 7 sec 

Writing the Hessian file to the disk             ... done


Maximum memory used throughout the entire calculation: 132.3 MB

-----------------------
VIBRATIONAL FREQUENCIES
-----------------------

Scaling factor for frequencies =  1.000000000  (already applied!)

   0:         0.00 cm**-1
   1:         0.00 cm**-1
   2:         0.00 cm**-1
   3:         0.00 cm**-1
   4:         0.00 cm**-1
   5:         0.00 cm**-1
   6:      -496.49 cm**-1 ***imaginary mode***
   7:       214.21 cm**-1
   8:       223.01 cm**-1
   9:       289.31 cm**-1
  10:       914.40 cm**-1
  11:       917.02 cm**-1
  12:      1044.76 cm**-1
  13:      1325.98 cm**-1
  14:      1337.53 cm**-1
  15:      3178.72 cm**-1
  16:      3386.23 cm**-1
  17:      3402.43 cm**-1


------------
NORMAL MODES
------------

These modes are the Cartesian displacements weighted by the diagonal matrix
M(i,i)=1/sqrt(m[i]) where m[i] is the mass of the displaced atom
Thus, these vectors are normalized but *not* orthogonal

                  0          1          2          3          4          5    
      0       0.000000   0.000000   0.000000   0.000000   0.000000   0.000000
      1       0.000000   0.000000   0.000000   0.000000   0.000000   0.000000
      2       0.000000   0.000000   0.000000   0.000000   0.000000   0.000000
      3       0.000000   0.000000   0.000000   0.000000   0.000000   0.000000
      4       0.000000   0.000000   0.000000   0.000000   0.000000   0.000000
      5       0.000000   0.000000   0.000000   0.000000   0.000000   0.000000
      6       0.000000   0.000000   0.000000   0.000000   0.000000   0.000000
      7       0.000000   0.000000   0.000000   0.000000   0.000000   0.000000
      8       0.000000   0.000000   0.000000   0.000000   0.000000   0.000000
      9       0.000000   0.000000   0.000000   0.000000   0.000000   0.000000
     10       0.000000   0.000000   0.000000   0.000000   0.000000   0.000000
     11       0.000000   0.000000   0.000000   0.000000   0.000000   0.000000
     12       0.000000   0.000000   0.000000   0.000000   0.000000   0.000000
     13       0.000000   0.000000   0.000000   0.000000   0.000000   0.000000
     14       0.000000   0.000000   0.000000   0.000000   0.000000   0.000000
     15       0.000000   0.000000   0.000000   0.000000   0.000000   0.000000
     16       0.000000   0.000000   0.000000   0.000000   0.000000   0.000000
     17       0.000000   0.000000   0.000000   0.000000   0.000000   0.000000
                  6          7          8          9         10         11    
      0      -0.269130  -0.004424   0.005755  -0.829416   0.003495  -0.002240
      1       0.011045   0.010021  -0.190511  -0.024584   0.005386  -0.005587
      2       0.010349  -0.188390  -0.010540   0.010713   0.005329   0.005314
      3      -0.145019  -0.002343  -0.005944   0.505698   0.000473  -0.000930
      4      -0.002097   0.004852  -0.093690   0.004344  -0.009646   0.010077
      5       0.002028  -0.092262  -0.005141  -0.007327  -0.010144  -0.009734
      6       0.888712   0.012496   0.011187  -0.156682  -0.007466   0.004486
      7      -0.000564  -0.023715   0.455278   0.020056   0.031950  -0.033768
      8      -0.019238   0.449079   0.025313   0.003737   0.033518   0.032433
      9      -0.065290  -0.105519  -0.097824  -0.073827   0.804415   0.110900
     10       0.027256   0.044852   0.455833   0.016142  -0.013365   0.067937
     11       0.071489   0.425803   0.049622  -0.007017  -0.037954  -0.057176
     12      -0.137104   0.138873  -0.060155  -0.095086  -0.308741  -0.739133
     13       0.011526  -0.104794   0.521249   0.023712  -0.073478   0.026219
     14      -0.115693   0.441389   0.040672   0.015650  -0.045776  -0.021849
     15      -0.214309  -0.016483   0.125263  -0.118143  -0.489233   0.649705
     16      -0.166471  -0.016999   0.483780   0.031741  -0.056107   0.059079
     17       0.007047   0.577365  -0.012451   0.002640  -0.059322  -0.065226
                 12         13         14         15         16         17    
      0      -0.038943   0.000320   0.000377   0.000358   0.000028   0.000056
      1       0.000263   0.000182   0.001168  -0.000049   0.000109   0.000749
      2       0.000804   0.001076  -0.000315  -0.000014   0.000729  -0.000188
      3      -0.025821  -0.000130  -0.000122  -0.000109  -0.000013  -0.000035
      4      -0.001215  -0.000042  -0.000187  -0.000005   0.000053   0.000403
      5       0.000250  -0.000064   0.000088   0.000009   0.000378  -0.000101
      6      -0.006334  -0.000924   0.001967   0.016111   0.000124   0.004557
      7      -0.000732  -0.025320  -0.085361   0.004415  -0.019349  -0.101276
      8      -0.000628  -0.086120   0.025126  -0.000403  -0.101021   0.019653
      9       0.571746   0.123823   0.020725  -0.057545   0.075316   0.034095
     10      -0.023213  -0.269656   0.583403  -0.352354   0.437150   0.189962
     11      -0.054051   0.086587  -0.474431  -0.472888   0.579981   0.263572
     12       0.587256  -0.103447   0.065616  -0.054618  -0.066397   0.043515
     13      -0.015096   0.497705   0.535806  -0.237148  -0.274753   0.172141
     14       0.053360   0.138196   0.304005   0.538028   0.609887  -0.398472
     15       0.558600  -0.010832  -0.112592  -0.082735  -0.010455  -0.131729
     16       0.084806   0.071706  -0.117489   0.538001   0.064240   0.816368
     17      -0.015770   0.783344  -0.126139  -0.060378  -0.013158  -0.092204


-----------
IR SPECTRUM
-----------

 Mode    freq (cm**-1)   T**2         TX         TY         TZ
-------------------------------------------------------------------
   7:       214.21   26.605495  (  0.410214  -0.270747   5.134580)
   8:       223.01   28.347661  (  0.945320   5.232396   0.275793)
   9:       289.31    1.213536  (  1.096015   0.109156  -0.019274)
  10:       914.40    2.001938  ( -0.859060  -0.871264  -0.710531)
  11:       917.02    1.916691  (  0.393357   1.025585  -0.842696)
  12:      1044.76    8.155809  ( -2.854841  -0.045418   0.060247)
  13:      1325.98    9.223876  ( -0.145670   0.899564   2.897144)
  14:      1337.53    9.930869  ( -0.220570   3.033962  -0.822977)
  15:      3178.72    1.151770  (  1.054024   0.200647   0.023357)
  16:      3386.23    0.023037  ( -0.099201   0.008876   0.114531)
  17:      3402.43    0.183130  ( -0.157770   0.387983  -0.087797)

The first frequency considered to be a vibration is 7
The total number of vibrations considered is 11


--------------------------
THERMOCHEMISTRY AT 298.15K
--------------------------

Temperature         ... 298.15 K
Pressure            ... 1.00 atm
Total Mass          ... 69.49 AMU

Throughout the following assumptions are being made:
  (1) The electronic state is orbitally nondegenerate
  (2) There are no thermally accessible electronically excited states
  (3) Hindered rotations indicated by low frequency modes are not
      treated as such but are treated as vibrations and this may
      cause some error
  (4) All equations used are the standard statistical mechanics
      equations for an ideal gas
  (5) All vibrations are strictly harmonic

freq.     214.21  E(vib)   ...       0.34 
freq.     223.01  E(vib)   ...       0.33 
freq.     289.31  E(vib)   ...       0.27 
freq.     914.40  E(vib)   ...       0.03 
freq.     917.02  E(vib)   ...       0.03 
freq.    1044.76  E(vib)   ...       0.02 
freq.    1325.98  E(vib)   ...       0.01 
freq.    1337.53  E(vib)   ...       0.01 
freq.    3178.72  E(vib)   ...       0.00 
freq.    3386.23  E(vib)   ...       0.00 
freq.    3402.43  E(vib)   ...       0.00 

------------
INNER ENERGY
------------

The inner energy is: U= E(el) + E(ZPE) + E(vib) + E(rot) + E(trans)
    E(el)   - is the total energy from the electronic structure calculation
              = E(kin-el) + E(nuc-el) + E(el-el) + E(nuc-nuc)
    E(ZPE)  - the the zero temperature vibrational energy from the frequency calculation
    E(vib)  - the the finite temperature correction to E(ZPE) due to population
              of excited vibrational states
    E(rot)  - is the rotational thermal energy
    E(trans)- is the translational thermal energy

Summary of contributions to the inner energy U:
Electronic energy                ...   -599.48713729 Eh
Zero point energy                ...      0.03698286 Eh      23.21 kcal/mol
Thermal vibrational correction   ...      0.00165050 Eh       1.04 kcal/mol
Thermal rotational correction    ...      0.00141627 Eh       0.89 kcal/mol
Thermal translational correction ...      0.00141627 Eh       0.89 kcal/mol
-----------------------------------------------------------------------
Total thermal energy                   -599.44567138 Eh


Summary of corrections to the electronic energy:
(perhaps to be used in another calculation)
Total thermal correction                  0.00448305 Eh       2.81 kcal/mol
Non-thermal (ZPE) correction              0.03698286 Eh      23.21 kcal/mol
-----------------------------------------------------------------------
Total correction                          0.04146591 Eh      26.02 kcal/mol


--------
ENTHALPY
--------

The enthalpy is H = U + kB*T
                kB is Boltzmann's constant
Total free energy                 ...   -599.44567138 Eh 
Thermal Enthalpy correction       ...      0.00094421 Eh       0.59 kcal/mol
-----------------------------------------------------------------------
Total Enthalpy                    ...   -599.44472717 Eh


Note: Only C1 symmetry has been detected, increase convergence thresholds 
      if your molecule has a higher symmetry. Symmetry factor of 1.0 is   
      used for the rotational entropy correction. 
 

Note: Rotational entropy computed according to Herzberg 
Infrared and Raman Spectra, Chapter V,1, Van Nostrand Reinhold, 1945 
Point Group:  C1, Symmetry Number:   1  
Rotational constants in cm-1:     4.788422     0.076682     0.076673 

Vibrational entropy computed according to the QRRHO of S. Grimme
Chem.Eur.J. 2012 18 9955


-------
ENTROPY
-------

The entropy contributions are T*S = T*(S(el)+S(vib)+S(rot)+S(trans))
     S(el)   - electronic entropy
     S(vib)  - vibrational entropy
     S(rot)  - rotational entropy
     S(trans)- translational entropy
The entropies will be listed as mutliplied by the temperature to get
units of energy

Electronic entropy                ...      0.00000000 Eh      0.00 kcal/mol
Vibrational entropy               ...      0.00276623 Eh      1.74 kcal/mol
Rotational entropy                ...      0.01119622 Eh      7.03 kcal/mol
Translational entropy             ...      0.01835566 Eh     11.52 kcal/mol
-----------------------------------------------------------------------
Final entropy term                ...      0.03231811 Eh     20.28 kcal/mol

In case the symmetry of your molecule has not been determined correctly
or in case you have a reason to use a different symmetry number we print 
out the resulting rotational entropy values for sn=1,12 :
 --------------------------------------------------------
|  sn= 1 | S(rot)=       0.01119622 Eh      7.03 kcal/mol|
|  sn= 2 | S(rot)=       0.01054176 Eh      6.62 kcal/mol|
|  sn= 3 | S(rot)=       0.01015893 Eh      6.37 kcal/mol|
|  sn= 4 | S(rot)=       0.00988731 Eh      6.20 kcal/mol|
|  sn= 5 | S(rot)=       0.00967662 Eh      6.07 kcal/mol|
|  sn= 6 | S(rot)=       0.00950447 Eh      5.96 kcal/mol|
|  sn= 7 | S(rot)=       0.00935893 Eh      5.87 kcal/mol|
|  sn= 8 | S(rot)=       0.00923285 Eh      5.79 kcal/mol|
|  sn= 9 | S(rot)=       0.00912164 Eh      5.72 kcal/mol|
|  sn=10 | S(rot)=       0.00902216 Eh      5.66 kcal/mol|
|  sn=11 | S(rot)=       0.00893217 Eh      5.61 kcal/mol|
|  sn=12 | S(rot)=       0.00885002 Eh      5.55 kcal/mol|
 --------------------------------------------------------


-------------------
GIBBS FREE ENERGY
-------------------

The Gibbs free energy is G = H - T*S

Total enthalpy                    ...   -599.44472717 Eh 
Total entropy correction          ...     -0.03231811 Eh    -20.28 kcal/mol
-----------------------------------------------------------------------
Final Gibbs free energy         ...   -599.47704528 Eh

For completeness - the Gibbs free energy minus the electronic energy
G-E(el)                           ...      0.01009201 Eh      6.33 kcal/mol

[1597942057.883583] [comp0810:60459:0]            sys.c:618  UCX  ERROR shmget(size=2097152 flags=0xfb0) for mm_recv_desc failed: Operation not permitted, please check shared memory limits by 'ipcs -l'
[1597942057.883657] [comp0810:60460:0]            sys.c:618  UCX  ERROR shmget(size=2097152 flags=0xfb0) for mm_recv_desc failed: Operation not permitted, please check shared memory limits by 'ipcs -l'
[1597942057.884065] [comp0810:60461:0]            sys.c:618  UCX  ERROR shmget(size=2097152 flags=0xfb0) for mm_recv_desc failed: Operation not permitted, please check shared memory limits by 'ipcs -l'
[1597942057.891791] [comp0810:60462:0]            sys.c:618  UCX  ERROR shmget(size=2097152 flags=0xfb0) for mm_recv_desc failed: Operation not permitted, please check shared memory limits by 'ipcs -l'
[1597942057.898270] [comp0810:60462:0]            sys.c:618  UCX  ERROR shmget(size=2097152 flags=0xb80) for ucp_am_bufs failed: Operation not permitted, please check shared memory limits by 'ipcs -l'
[1597942057.898685] [comp0810:60459:0]            sys.c:618  UCX  ERROR shmget(size=2097152 flags=0xb80) for ucp_am_bufs failed: Operation not permitted, please check shared memory limits by 'ipcs -l'
[1597942057.898663] [comp0810:60461:0]            sys.c:618  UCX  ERROR shmget(size=2097152 flags=0xb80) for ucp_am_bufs failed: Operation not permitted, please check shared memory limits by 'ipcs -l'
[1597942057.902630] [comp0810:60460:0]            sys.c:618  UCX  ERROR shmget(size=2097152 flags=0xb80) for ucp_am_bufs failed: Operation not permitted, please check shared memory limits by 'ipcs -l'

Timings for individual modules:

Sum of individual times         ...       49.038 sec (=   0.817 min)
GTO integral calculation        ...        4.534 sec (=   0.076 min)   9.2 %
SCF iterations                  ...       21.955 sec (=   0.366 min)  44.8 %
SCF Gradient evaluation         ...        5.482 sec (=   0.091 min)  11.2 %
Geometry relaxation             ...        0.277 sec (=   0.005 min)   0.6 %
Analytical frequency calculation...       16.790 sec (=   0.280 min)  34.2 %
                             ****ORCA TERMINATED NORMALLY****
TOTAL RUN TIME: 0 days 0 hours 0 minutes 51 seconds 218 msec
