
                                 *****************
                                 * O   R   C   A *
                                 *****************

           --- An Ab Initio, DFT and Semiempirical electronic structure package ---

                  #######################################################
                  #                        -***-                        #
                  #          Department of theory and spectroscopy      #
                  #               Directorship: Frank Neese             #
                  #        Max Planck Institute fuer Kohlenforschung    #
                  #                Kaiser Wilhelm Platz 1               #
                  #                 D-45470 Muelheim/Ruhr               #
                  #                      Germany                        #
                  #                                                     #
                  #                  All rights reserved                #
                  #                        -***-                        #
                  #######################################################


                         Program Version 4.2.1 -  RELEASE  -


 With contributions from (in alphabetic order):
   Daniel Aravena         : Magnetic Suceptibility
   Michael Atanasov       : Ab Initio Ligand Field Theory (pilot matlab implementation)
   Alexander A. Auer      : GIAO ZORA, VPT2
   Ute Becker             : Parallelization
   Giovanni Bistoni       : ED, misc. LED, open-shell LED, HFLD
   Martin Brehm           : Molecular dynamics
   Dmytro Bykov           : SCF Hessian
   Vijay G. Chilkuri      : MRCI spin determinant printing, contributions to CSF-ICE
   Dipayan Datta          : RHF DLPNO-CCSD density
   Achintya Kumar Dutta   : EOM-CC, STEOM-CC
   Dmitry Ganyushin       : Spin-Orbit,Spin-Spin,Magnetic field MRCI
   Miquel Garcia          : C-PCM Hessian, Gaussian charge scheme
   Yang Guo               : DLPNO-NEVPT2, CIM, IAO-localization
   Andreas Hansen         : Spin unrestricted coupled pair/coupled cluster methods
   Benjamin Helmich-Paris : CASSCF linear response (MC-RPA)
   Lee Huntington         : MR-EOM, pCC
   Robert Izsak           : Overlap fitted RIJCOSX, COSX-SCS-MP3, EOM
   Christian Kollmar      : KDIIS, OOCD, Brueckner-CCSD(T), CCSD density
   Simone Kossmann        : Meta GGA functionals, TD-DFT gradient, OOMP2, MP2 Hessian
   Martin Krupicka        : AUTO-CI
   Lucas Lang             : DCDCAS
   Dagmar Lenk            : GEPOL surface, SMD
   Dimitrios Liakos       : Extrapolation schemes; Compound Job, initial MDCI parallelization
   Dimitrios Manganas     : Further ROCIS development; embedding schemes
   Dimitrios Pantazis     : SARC Basis sets
   Taras Petrenko         : DFT Hessian,TD-DFT gradient, ASA, ECA, R-Raman, ABS, FL, XAS/XES, NRVS
   Peter Pinski           : DLPNO-MP2, DLPNO-MP2 Gradient
   Christoph Reimann      : Effective Core Potentials
   Marius Retegan         : Local ZFS, SOC
   Christoph Riplinger    : Optimizer, TS searches, QM/MM, DLPNO-CCSD(T), (RO)-DLPNO pert. Triples
   Tobias Risthaus        : Range-separated hybrids, TD-DFT gradient, RPA, STAB
   Michael Roemelt        : Original ROCIS implementation
   Masaaki Saitow         : Open-shell DLPNO-CCSD energy and density
   Barbara Sandhoefer     : DKH picture change effects
   Avijit Sen             : IP-ROCIS
   Kantharuban Sivalingam : CASSCF convergence, NEVPT2, FIC-MRCI
   Bernardo de Souza      : ESD, SOC TD-DFT
   Georgi Stoychev        : AutoAux, RI-MP2 NMR
   Willem Van den Heuvel  : Paramagnetic NMR
   Boris Wezisla          : Elementary symmetry handling
   Frank Wennmohs         : Technical directorship


 We gratefully acknowledge several colleagues who have allowed us to
 interface, adapt or use parts of their codes:
   Stefan Grimme, W. Hujo, H. Kruse,             : VdW corrections, initial TS optimization,
                  C. Bannwarth                     DFT functionals, gCP, sTDA/sTD-DF
   Ed Valeev, F. Pavosevic, A. Kumar             : LibInt (2-el integral package), F12 methods
   Garnet Chan, S. Sharma, J. Yang, R. Olivares  : DMRG
   Ulf Ekstrom                                   : XCFun DFT Library
   Mihaly Kallay                                 : mrcc  (arbitrary order and MRCC methods)
   Andreas Klamt, Michael Diedenhofen            : otool_cosmo (COSMO solvation model)
   Jiri Pittner, Ondrej Demel                    : Mk-CCSD
   Frank Weinhold                                : gennbo (NPA and NBO analysis)
   Christopher J. Cramer and Donald G. Truhlar   : smd solvation model
   Lars Goerigk                                  : TD-DFT with DH, B97 family of functionals
   V. Asgeirsson, H. Jonsson                     : NEB implementation
   FAccTs GmbH                                   : IRC, NEB, NEB-TS, Multilevel, MM, QM/MM, CI optimization
   S Lehtola, MJT Oliveira, MAL Marques          : LibXC Library


 Your calculation uses the libint2 library for the computation of 2-el integrals
 For citations please refer to: http://libint.valeyev.net

 Your ORCA version has been built with support for libXC version: 4.2.3
 For citations please refer to: https://tddft.org/programs/libxc/

 This ORCA versions uses:
   CBLAS   interface :  Fast vector & matrix operations
   LAPACKE interface :  Fast linear algebra routines
   SCALAPACK package :  Parallel linear algebra routines


Your calculation utilizes the atom-pairwise dispersion correction
with the Becke-Johnson damping scheme (D3BJ)
Cite in your paper:
S.Grimme, S.Ehrlich, L.Goerigk, J Comput Chem, (2011), 32, 1456–1465 
S.Grimme, J.Antony, S.Ehrlich and H.Krieg, J.Chem.Phys., 132, (2010), 154104 
   

----- Orbital basis set information -----
Your calculation utilizes the basis: def2-SVP
   F. Weigend and R. Ahlrichs, Phys. Chem. Chem. Phys. 7, 3297 (2005).

----- AuxJ basis set information -----
Your calculation utilizes the auxiliary basis: def2/J
   F. Weigend, Phys. Chem. Chem. Phys. 8, 1057 (2006).

================================================================================
                                        WARNINGS
                       Please study these warnings very carefully!
================================================================================


WARNING: your system is open-shell and RHF/RKS was chosen
  ===> : WILL SWITCH to UHF/UKS


WARNING: Geometry Optimization
  ===> : Switching off AutoStart
         For restart on a previous wavefunction, please use MOREAD

INFO   : the flag for use of LIBINT has been found!

================================================================================
                                       INPUT FILE
================================================================================
NAME = TS_m-mfaV_2-6_hl1d_fbond_optts_orca.inp
|  1> ! OptTS Freq PBE0 RIJCOSX D3BJ def2-SVP def2/J CPCM(Water)
|  2> %geom
|  3> Calc_Hess true
|  4> Recalc_Hess 30
|  5> Trust -0.1
|  6> MaxIter 150
|  7> end
|  8> %geom
|  9> modify_internal
| 10> { B 2 6 A } end
| 11> end
| 12> %geom
| 13> modify_internal
| 14> { B 1 6 A } end
| 15> end
| 16> %pal nprocs 4
| 17> end
| 18> %output 
| 19> xyzfile=True 
| 20> end 
| 21> %scf 
| 22> maxiter 250 
| 23> end
| 24> %output
| 25> Print[P_Hirshfeld] = 1
| 26> end
| 27> % maxcore
| 28> 4000
| 29> *xyz 0 2
| 30> C   -1.24380179   0.09254959  -0.00966501 
| 31> C    0.12662310  -0.52860393   0.06281618 
| 32> C    1.32594108   0.28682815  -0.24627833 
| 33> H   -1.23918456   1.12004966   0.40880401 
| 34> H   -2.00018380  -0.49760064   0.54569941 
| 35> H   -1.59039962   0.17613738  -1.06558376 
| 36> H    0.81057384  -0.22486795   0.93567249 
| 37> H    0.22265152  -1.60459875  -0.16096709 
| 38> H    1.28242363   1.37808221  -0.10648726 
| 39> H    2.30525660  -0.19807573  -0.36401066 
| 40> *
| 41> 
| 42>                          ****END OF INPUT****
================================================================================

                       *****************************
                       * Geometry Optimization Run *
                       *****************************

Geometry optimization settings:
Update method            Update   .... Bofill
Choice of coordinates    CoordSys .... Z-matrix Internals
Initial Hessian          InHess   .... Almoef's Model

Convergence Tolerances:
Energy Change            TolE     ....  5.0000e-06 Eh
Max. Gradient            TolMAXG  ....  3.0000e-04 Eh/bohr
RMS Gradient             TolRMSG  ....  1.0000e-04 Eh/bohr
Max. Displacement        TolMAXD  ....  4.0000e-03 bohr
RMS Displacement         TolRMSD  ....  2.0000e-03 bohr
Strict Convergence                ....  False
------------------------------------------------------------------------------
                        ORCA OPTIMIZATION COORDINATE SETUP
------------------------------------------------------------------------------

The optimization will be done in new redundant internal coordinates
Making redundant internal coordinates   ...  (new redundants) Bond   6,  2 is already included
Bond   6,  1 is already included
done
Following TS mode number                ...     0
Evaluating the initial hessian          ...  (Is done on the fly) done
Evaluating the coordinates              ...  done
Calculating the B-matrix                .... done
Calculating the G-matrix                .... done
Diagonalizing the G-matrix              .... done
The first mode is                       ....   26
The number of degrees of freedom        ....   24

    -----------------------------------------------------------------
                    Redundant Internal Coordinates


    -----------------------------------------------------------------
         Definition                    Initial Value    d2E/dq (diagonal element)
    -----------------------------------------------------------------
      1. B(C   1,C   0)                  1.5064         0.000000   
      2. B(C   2,C   1)                  1.4828         0.000000   
      3. B(H   3,C   0)                  1.1095         0.000000   
      4. B(H   4,C   0)                  1.1085         0.000000   
      5. B(H   5,C   0)                  1.1145         0.000000   
      6. B(H   6,C   2)                  1.3872         0.000000   
      7. B(H   6,C   1)                  1.1497         0.000000   
      8. B(H   7,C   1)                  1.1032         0.000000   
      9. B(H   8,C   2)                  1.1010         0.000000   
     10. B(H   9,C   2)                  1.0991         0.000000   
     11. A(C   1,C   0,H   5)          111.0659         0.000000   
     12. A(H   4,C   0,H   5)          107.6015         0.000000   
     13. A(H   3,C   0,H   5)          106.8098         0.000000   
     14. A(H   3,C   0,H   4)          107.8738         0.000000   
     15. A(C   1,C   0,H   3)          111.0975         0.000000   
     16. A(C   1,C   0,H   4)          112.1556         0.000000   
     17. A(H   6,C   1,H   7)          111.0926         0.000000   
     18. A(C   2,C   1,H   7)          115.0660         0.000000   
     19. A(C   0,C   1,H   7)          118.1388         0.000000   
     20. A(C   2,C   1,H   6)           62.0855         0.000000   
     21. A(C   0,C   1,H   6)          117.9551         0.000000   
     22. A(C   0,C   1,C   2)          119.9350         0.000000   
     23. A(C   1,C   2,H   8)          119.1170         0.000000   
     24. A(C   1,C   2,H   6)           47.0853         0.000000   
     25. A(H   6,C   2,H   9)          105.0430         0.000000   
     26. A(C   1,C   2,H   9)          120.0238         0.000000   
     27. A(H   6,C   2,H   8)          104.0474         0.000000   
     28. A(H   8,C   2,H   9)          119.0829         0.000000   
     29. A(C   1,H   6,C   2)           70.8293         0.000000   
     30. D(H   7,C   1,C   0,H   3)    169.7913         0.000000   
     31. D(C   2,C   1,C   0,H   3)    -40.6238         0.000000   
     32. D(H   7,C   1,C   0,H   5)    -71.4721         0.000000   
     33. D(H   7,C   1,C   0,H   4)     48.9742         0.000000   
     34. D(C   2,C   1,C   0,H   5)     78.1129         0.000000   
     35. D(H   6,C   1,C   0,H   5)    150.2954         0.000000   
     36. D(H   6,C   1,C   0,H   3)     31.5587         0.000000   
     37. D(C   2,C   1,C   0,H   4)   -161.4409         0.000000   
     38. D(H   6,C   1,C   0,H   4)    -89.2584         0.000000   
     39. D(H   8,C   2,C   1,H   7)    176.3169         0.000000   
     40. D(H   8,C   2,C   1,H   6)    -82.0400         0.000000   
     41. D(H   8,C   2,C   1,C   0)     25.8443         0.000000   
     42. D(H   6,C   2,C   1,H   7)   -101.6431         0.000000   
     43. D(H   9,C   2,C   1,C   0)   -169.4688         0.000000   
     44. D(H   6,C   2,C   1,C   0)    107.8844         0.000000   
     45. D(H   9,C   2,C   1,H   7)    -18.9963         0.000000   
     46. D(H   9,C   2,C   1,H   6)     82.6468         0.000000   
     47. D(C   1,H   6,C   2,H   9)   -117.2311         0.000000   
     48. D(C   1,H   6,C   2,H   8)    116.8893         0.000000   
     49. D(C   2,H   6,C   1,H   7)    108.0305         0.000000   
     50. D(C   2,H   6,C   1,C   0)   -110.9872         0.000000   
    -----------------------------------------------------------------

Number of atoms                         .... 10
Number of degrees of freedom            .... 50

         *************************************************************
         *                GEOMETRY OPTIMIZATION CYCLE   1            *
         *************************************************************
---------------------------------
CARTESIAN COORDINATES (ANGSTROEM)
---------------------------------
  C     -1.243802    0.092550   -0.009665
  C      0.126623   -0.528604    0.062816
  C      1.325941    0.286828   -0.246278
  H     -1.239185    1.120050    0.408804
  H     -2.000184   -0.497601    0.545699
  H     -1.590400    0.176137   -1.065584
  H      0.810574   -0.224868    0.935672
  H      0.222652   -1.604599   -0.160967
  H      1.282424    1.378082   -0.106487
  H      2.305257   -0.198076   -0.364011

----------------------------
CARTESIAN COORDINATES (A.U.)
----------------------------
  NO LB      ZA    FRAG     MASS         X           Y           Z
   0 C     6.0000    0    12.011   -2.350445    0.174893   -0.018264
   1 C     6.0000    0    12.011    0.239283   -0.998917    0.118705
   2 C     6.0000    0    12.011    2.505666    0.542027   -0.465399
   3 H     1.0000    0     1.008   -2.341719    2.116587    0.772528
   4 H     1.0000    0     1.008   -3.779800   -0.940329    1.031222
   5 H     1.0000    0     1.008   -3.005420    0.332851   -2.013661
   6 H     1.0000    0     1.008    1.531763   -0.424939    1.768165
   7 H     1.0000    0     1.008    0.420750   -3.032252   -0.304184
   8 H     1.0000    0     1.008    2.423429    2.604198   -0.201232
   9 H     1.0000    0     1.008    4.356304   -0.374309   -0.687880

--------------------------------
INTERNAL COORDINATES (ANGSTROEM)
--------------------------------
 C      0   0   0     0.000000000000     0.00000000     0.00000000
 C      1   0   0     1.506369674895     0.00000000     0.00000000
 C      2   1   0     1.482846084513   119.93503744     0.00000000
 H      1   2   3     1.109456638793   111.09747401   319.37623254
 H      1   2   3     1.108521843728   112.15562163   198.55909775
 H      1   2   3     1.114487048377   111.06591520    78.11285806
 H      2   1   3     1.149748797868   117.95513744    72.18251319
 H      2   1   3     1.103206808376   118.13879923   210.41509137
 H      3   2   1     1.101031668560   119.11699409    25.84433397
 H      3   2   1     1.099113989575   120.02381120   190.53117798

---------------------------
INTERNAL COORDINATES (A.U.)
---------------------------
 C      0   0   0     0.000000000000     0.00000000     0.00000000
 C      1   0   0     2.846626141996     0.00000000     0.00000000
 C      2   1   0     2.802172998488   119.93503744     0.00000000
 H      1   2   3     2.096569204780   111.09747401   319.37623254
 H      1   2   3     2.094802698116   112.15562163   198.55909775
 H      1   2   3     2.106075301234   111.06591520    78.11285806
 H      2   1   3     2.172710350777   117.95513744    72.18251319
 H      2   1   3     2.084758736907   118.13879923   210.41509137
 H      3   2   1     2.080648318353   119.11699409    25.84433397
 H      3   2   1     2.077024430258   120.02381120   190.53117798

---------------------
BASIS SET INFORMATION
---------------------
There are 2 groups of distinct atoms

 Group   1 Type C   : 7s4p1d contracted to 3s2p1d pattern {511/31/1}
 Group   2 Type H   : 4s1p contracted to 2s1p pattern {31/1}

Atom   0C    basis set group =>   1
Atom   1C    basis set group =>   1
Atom   2C    basis set group =>   1
Atom   3H    basis set group =>   2
Atom   4H    basis set group =>   2
Atom   5H    basis set group =>   2
Atom   6H    basis set group =>   2
Atom   7H    basis set group =>   2
Atom   8H    basis set group =>   2
Atom   9H    basis set group =>   2
---------------------------------
AUXILIARY/J BASIS SET INFORMATION
---------------------------------
There are 2 groups of distinct atoms

 Group   1 Type C   : 12s5p4d2f1g contracted to 6s4p3d1f1g pattern {711111/2111/211/2/1}
 Group   2 Type H   : 5s2p1d contracted to 3s1p1d pattern {311/2/1}

Atom   0C    basis set group =>   1
Atom   1C    basis set group =>   1
Atom   2C    basis set group =>   1
Atom   3H    basis set group =>   2
Atom   4H    basis set group =>   2
Atom   5H    basis set group =>   2
Atom   6H    basis set group =>   2
Atom   7H    basis set group =>   2
Atom   8H    basis set group =>   2
Atom   9H    basis set group =>   2
[1589383043.572737] [ty2019:18458:0]            sys.c:618  UCX  ERROR shmget(size=2097152 flags=0xfb0) for mm_recv_desc failed: Operation not permitted, please check shared memory limits by 'ipcs -l'
[1589383043.576827] [ty2019:18460:0]            sys.c:618  UCX  ERROR shmget(size=2097152 flags=0xfb0) for mm_recv_desc failed: Operation not permitted, please check shared memory limits by 'ipcs -l'
[1589383043.577029] [ty2019:18459:0]            sys.c:618  UCX  ERROR shmget(size=2097152 flags=0xfb0) for mm_recv_desc failed: Operation not permitted, please check shared memory limits by 'ipcs -l'
[1589383043.580398] [ty2019:18457:0]            sys.c:618  UCX  ERROR shmget(size=2097152 flags=0xfb0) for mm_recv_desc failed: Operation not permitted, please check shared memory limits by 'ipcs -l'
[1589383043.587864] [ty2019:18457:0]            sys.c:618  UCX  ERROR shmget(size=2097152 flags=0xb80) for ucp_am_bufs failed: Operation not permitted, please check shared memory limits by 'ipcs -l'
[1589383043.588509] [ty2019:18458:0]            sys.c:618  UCX  ERROR shmget(size=2097152 flags=0xb80) for ucp_am_bufs failed: Operation not permitted, please check shared memory limits by 'ipcs -l'
[1589383043.592103] [ty2019:18459:0]            sys.c:618  UCX  ERROR shmget(size=2097152 flags=0xb80) for ucp_am_bufs failed: Operation not permitted, please check shared memory limits by 'ipcs -l'


           ************************************************************
           *        Program running with 4 parallel MPI-processes     *
           *              working on a common directory               *
           ************************************************************
------------------------------------------------------------------------------
                           ORCA GTO INTEGRAL CALCULATION
                           -- RI-GTO INTEGRALS CHOSEN --
------------------------------------------------------------------------------

                         BASIS SET STATISTICS AND STARTUP INFO

Gaussian basis set:
 # of primitive gaussian shells          ...   71
 # of primitive gaussian functions       ...  121
 # of contracted shells                  ...   39
 # of contracted basis functions         ...   77
 Highest angular momentum                ...    2
 Maximum contraction depth               ...    5
Auxiliary gaussian basis set:
 # of primitive gaussian shells          ...  128
 # of primitive gaussian functions       ...  322
 # of contracted shells                  ...   80
 # of contracted aux-basis functions     ...  224
 Highest angular momentum                ...    4
 Maximum contraction depth               ...    7
Ratio of auxiliary to basis functions    ...  2.91
Integral package used                  ... LIBINT
 One Electron integrals                  ... done
 Ordering auxiliary basis shells         ... done
 Integral threshhold             Thresh  ...  2.500e-11
 Primitive cut-off               TCut    ...  2.500e-12
 Pre-screening matrix                    ... done
 Shell pair data                         ... 
 Ordering of the shell pairs             ... done (   0.000 sec) 778 of 780 pairs
 Determination of significant pairs      ... done (   0.000 sec)
 Creation of shell pair data             ... done (   0.000 sec)
 Storage of shell pair data              ... [1589383043.695273] [ty2019:18460:0]            sys.c:618  UCX  ERROR shmget(size=2097152 flags=0xb80) for ucp_am_bufs failed: Operation not permitted, please check shared memory limits by 'ipcs -l'
done (   0.001 sec)
 Shell pair data done in (   0.001 sec)
 Computing two index integrals           ... done
 Cholesky decomposition of the V-matrix  ... done


Timings:
 Total evaluation time                   ...   0.101 sec (  0.002 min)
 One electron matrix time                ...   0.005 sec (  0.000 min) =  4.8%
 Schwartz matrix evaluation time         ...   0.070 sec (  0.001 min) = 69.0%
 Two index repulsion integral time       ...   0.001 sec (  0.000 min) =  1.0%
 Cholesky decomposition of V             ...   0.001 sec (  0.000 min) =  0.9%
 Three index repulsion integral time     ...   0.000 sec (  0.000 min) =  0.0%

[1589383044.565684] [ty2019:18483:0]            sys.c:618  UCX  ERROR shmget(size=2097152 flags=0xfb0) for mm_recv_desc failed: Operation not permitted, please check shared memory limits by 'ipcs -l'
[1589383044.566631] [ty2019:18484:0]            sys.c:618  UCX  ERROR shmget(size=2097152 flags=0xfb0) for mm_recv_desc failed: Operation not permitted, please check shared memory limits by 'ipcs -l'
[1589383044.567895] [ty2019:18481:0]            sys.c:618  UCX  ERROR shmget(size=2097152 flags=0xfb0) for mm_recv_desc failed: Operation not permitted, please check shared memory limits by 'ipcs -l'
[1589383044.568234] [ty2019:18482:0]            sys.c:618  UCX  ERROR shmget(size=2097152 flags=0xfb0) for mm_recv_desc failed: Operation not permitted, please check shared memory limits by 'ipcs -l'
[1589383044.574654] [ty2019:18481:0]            sys.c:618  UCX  ERROR shmget(size=2097152 flags=0xb80) for ucp_am_bufs failed: Operation not permitted, please check shared memory limits by 'ipcs -l'
[1589383044.575118] [ty2019:18483:0]            sys.c:618  UCX  ERROR shmget(size=2097152 flags=0xb80) for ucp_am_bufs failed: Operation not permitted, please check shared memory limits by 'ipcs -l'


           ************************************************************
           *        Program running with 4 parallel MPI-processes     *
           *              working on a common directory               *
           ************************************************************
[1589383044.577841] [ty2019:18482:0]            sys.c:618  UCX  ERROR shmget(size=2097152 flags=0xb80) for ucp_am_bufs failed: Operation not permitted, please check shared memory limits by 'ipcs -l'
[1589383044.578528] [ty2019:18484:0]            sys.c:618  UCX  ERROR shmget(size=2097152 flags=0xb80) for ucp_am_bufs failed: Operation not permitted, please check shared memory limits by 'ipcs -l'
-------------------------------------------------------------------------------
                                 ORCA SCF
-------------------------------------------------------------------------------

------------
SCF SETTINGS
------------
Hamiltonian:
 Density Functional     Method          .... DFT(GTOs)
 Exchange Functional    Exchange        .... PBE
   PBE kappa parameter   XKappa         ....  0.804000
   PBE mue parameter    XMuePBE         ....  0.219520
 Correlation Functional Correlation     .... PBE
   PBE beta parameter  CBetaPBE         ....  0.066725
 LDA part of GGA corr.  LDAOpt          .... PW91-LDA
 Gradients option       PostSCFGGA      .... off
 Hybrid DFT is turned on
   Fraction HF Exchange ScalHFX         ....  0.250000
   Scaling of DF-GGA-X  ScalDFX         ....  0.750000
   Scaling of DF-GGA-C  ScalDFC         ....  1.000000
   Scaling of DF-LDA-C  ScalLDAC        ....  1.000000
   Perturbative correction              ....  0.000000
   Density functional embedding theory  .... OFF
   NL short-range parameter             ....  6.900000
 RI-approximation to the Coulomb term is turned on
   Number of auxiliary basis functions  .... 224
   RIJ-COSX (HFX calculated with COS-X)).... on


General Settings:
 Integral files         IntName         .... TS_m-mfaV_2-6_hl1d_fbond_optts_orca
 Hartree-Fock type      HFTyp           .... UHF
 Total Charge           Charge          ....    0
 Multiplicity           Mult            ....    2
 Number of Electrons    NEL             ....   25
 Basis Dimension        Dim             ....   77
 Nuclear Repulsion      ENuc            ....     76.0939741131 Eh

Convergence Acceleration:
 DIIS                   CNVDIIS         .... on
   Start iteration      DIISMaxIt       ....    12
   Startup error        DIISStart       ....  0.200000
   # of expansion vecs  DIISMaxEq       ....     5
   Bias factor          DIISBfac        ....   1.050
   Max. coefficient     DIISMaxC        ....  10.000
 Newton-Raphson         CNVNR           .... off
 SOSCF                  CNVSOSCF        .... off
 Level Shifting         CNVShift        .... on
   Level shift para.    LevelShift      ....    0.2500
   Turn off err/grad.   ShiftErr        ....    0.0010
 Zerner damping         CNVZerner       .... off
 Static damping         CNVDamp         .... on
   Fraction old density DampFac         ....    0.7000
   Max. Damping (<1)    DampMax         ....    0.9800
   Min. Damping (>=0)   DampMin         ....    0.0000
   Turn off err/grad.   DampErr         ....    0.1000
 Fernandez-Rico         CNVRico         .... off

SCF Procedure:
 Maximum # iterations   MaxIter         ....   250
 SCF integral mode      SCFMode         .... Direct
   Integral package                     .... LIBINT
 Reset frequency        DirectResetFreq ....    20
 Integral Threshold     Thresh          ....  2.500e-11 Eh
 Primitive CutOff       TCut            ....  2.500e-12 Eh

Convergence Tolerance:
 Convergence Check Mode ConvCheckMode   .... Total+1el-Energy
 Convergence forced     ConvForced      .... 0
 Energy Change          TolE            ....  1.000e-08 Eh
 1-El. energy change                    ....  1.000e-05 Eh
 DIIS Error             TolErr          ....  5.000e-07


Diagonalization of the overlap matrix:
Smallest eigenvalue                        ... 3.386e-03
Time for diagonalization                   ...    0.001 sec
Threshold for overlap eigenvalues          ... 1.000e-08
Number of eigenvalues below threshold      ... 0
Time for construction of square roots      ...    0.001 sec
Total time needed                          ...    0.002 sec

-------------------
DFT GRID GENERATION
-------------------

General Integration Accuracy     IntAcc      ...  4.340
Radial Grid Type                 RadialGrid  ... Gauss-Chebyshev
Angular Grid (max. acc.)         AngularGrid ... Lebedev-110
Angular grid pruning method      GridPruning ... 3 (G Style)
Weight generation scheme         WeightScheme... Becke
Basis function cutoff            BFCut       ...    1.0000e-11
Integration weight cutoff        WCut        ...    1.0000e-14
Grids for H and He will be reduced by one unit

# of grid points (after initial pruning)     ...  10526 (   0.0 sec)
# of grid points (after weights+screening)   ...  10036 (   0.0 sec)
nearest neighbour list constructed           ...    0.0 sec
Grid point re-assignment to atoms done       ...    0.0 sec
Grid point division into batches done        ...    0.0 sec
Reduced shell lists constructed in    0.0 sec

Total number of grid points                  ...    10036
Total number of batches                      ...      162
Average number of points per batch           ...       61
Average number of grid points per atom       ...     1004
Average number of shells per batch           ...    35.76 (91.70%)
Average number of basis functions per batch  ...    70.57 (91.65%)
Average number of large shells per batch     ...    33.21 (92.88%)
Average number of large basis fcns per batch ...    65.21 (92.41%)
Maximum spatial batch extension              ...  16.68, 15.16, 18.72 au
Average spatial batch extension              ...   0.65,  0.62,  0.69 au

Time for grid setup =    0.028 sec

------------------------------
INITIAL GUESS: MODEL POTENTIAL
------------------------------
Loading Hartree-Fock densities                     ... done
Calculating cut-offs                               ... done
Setting up the integral package                    ... done
Initializing the effective Hamiltonian             ... done
Starting the Coulomb interaction                   ... done (   0.0 sec)
Reading the grid                                   ... done
Mapping shells                                     ... done
Starting the XC term evaluation                    ... done (   0.0 sec)
  promolecular density results
     # of electrons  =     24.997801133
     EX              =    -17.364011528
     EC              =     -0.784448980
     EX+EC           =    -18.148460508
Transforming the Hamiltonian                       ... done (   0.0 sec)
Diagonalizing the Hamiltonian                      ... done (   0.0 sec)
Back transforming the eigenvectors                 ... done (   0.0 sec)
Now organizing SCF variables                       ... done
                      ------------------
                      INITIAL GUESS DONE (   0.1 sec)
                      ------------------
--------------------
COSX GRID GENERATION
--------------------

General Integration Accuracy     IntAcc      ...  3.340
Radial Grid Type                 RadialGrid  ... Gauss-Chebyshev
Angular Grid (max. acc.)         AngularGrid ... Lebedev-50
Angular grid pruning method      GridPruning ... 3 (G Style)
Weight generation scheme         WeightScheme... Becke
Basis function cutoff            BFCut       ...    1.0000e-11
Integration weight cutoff        WCut        ...    1.0000e-14
Grids for H and He will be reduced by one unit

# of grid points (after initial pruning)     ...   3980 (   0.0 sec)
# of grid points (after weights+screening)   ...   3800 (   0.0 sec)
nearest neighbour list constructed           ...    0.0 sec
Grid point re-assignment to atoms done       ...    0.0 sec
Grid point division into batches done        ...    0.0 sec
Reduced shell lists constructed in    0.0 sec

Total number of grid points                  ...     3800
Total number of batches                      ...       65
Average number of points per batch           ...       58
Average number of grid points per atom       ...      380
Average number of shells per batch           ...    36.17 (92.74%)
Average number of basis functions per batch  ...    71.94 (93.43%)
Average number of large shells per batch     ...    34.11 (94.32%)
Average number of large basis fcns per batch ...    67.67 (94.05%)
Maximum spatial batch extension              ...   3.61,  3.60,  8.41 au
Average spatial batch extension              ...   0.53,  0.53,  0.64 au

Overlap Fitting                  UseSFitting ... on
Constructing numerical overlap ... done (      0.0 sec)
Inverting numerical overlap    ... done (      0.0 sec)
Obtaining analytic overlap     ... done (      0.0 sec)
Final contraction and storage  ... done (      0.0 sec)


General Integration Accuracy     IntAcc      ...  3.670
Radial Grid Type                 RadialGrid  ... Gauss-Chebyshev
Angular Grid (max. acc.)         AngularGrid ... Lebedev-50
Angular grid pruning method      GridPruning ... 3 (G Style)
Weight generation scheme         WeightScheme... Becke
Basis function cutoff            BFCut       ...    1.0000e-11
Integration weight cutoff        WCut        ...    1.0000e-14
Grids for H and He will be reduced by one unit

# of grid points (after initial pruning)     ...   5170 (   0.0 sec)
# of grid points (after weights+screening)   ...   4924 (   0.0 sec)
nearest neighbour list constructed           ...    0.0 sec
Grid point re-assignment to atoms done       ...    0.0 sec
Grid point division into batches done        ...    0.0 sec
Reduced shell lists constructed in    0.0 sec

Total number of grid points                  ...     4924
Total number of batches                      ...       81
Average number of points per batch           ...       60
Average number of grid points per atom       ...      492
Average number of shells per batch           ...    36.09 (92.54%)
Average number of basis functions per batch  ...    71.64 (93.03%)
Average number of large shells per batch     ...    33.73 (93.45%)
Average number of large basis fcns per batch ...    66.55 (92.89%)
Maximum spatial batch extension              ...  16.45, 14.91, 17.95 au
Average spatial batch extension              ...   0.72,  0.68,  0.83 au

Overlap Fitting                  UseSFitting ... on
Constructing numerical overlap ... done (      0.0 sec)
Inverting numerical overlap    ... done (      0.0 sec)
Obtaining analytic overlap     ... done (      0.0 sec)
Final contraction and storage  ... done (      0.0 sec)


General Integration Accuracy     IntAcc      ...  4.010
Radial Grid Type                 RadialGrid  ... Gauss-Chebyshev
Angular Grid (max. acc.)         AngularGrid ... Lebedev-110
Angular grid pruning method      GridPruning ... 3 (G Style)
Weight generation scheme         WeightScheme... Becke
Basis function cutoff            BFCut       ...    1.0000e-11
Integration weight cutoff        WCut        ...    1.0000e-14
Grids for H and He will be reduced by one unit

# of grid points (after initial pruning)     ...   9080 (   0.0 sec)
# of grid points (after weights+screening)   ...   8663 (   0.0 sec)
nearest neighbour list constructed           ...    0.0 sec
Grid point re-assignment to atoms done       ...    0.0 sec
Grid point division into batches done        ...    0.0 sec
Reduced shell lists constructed in    0.0 sec

Total number of grid points                  ...     8663
Total number of batches                      ...      141
Average number of points per batch           ...       61
Average number of grid points per atom       ...      866
Average number of shells per batch           ...    35.97 (92.24%)
Average number of basis functions per batch  ...    71.11 (92.35%)
Average number of large shells per batch     ...    33.57 (93.31%)
Average number of large basis fcns per batch ...    66.00 (92.82%)
Maximum spatial batch extension              ...  16.00, 14.68, 17.64 au
Average spatial batch extension              ...   0.62,  0.58,  0.71 au

Overlap Fitting                  UseSFitting ... on
Constructing numerical overlap ... done (      0.0 sec)
Inverting numerical overlap    ... done (      0.0 sec)
Obtaining analytic overlap     ... done (      0.0 sec)
Final contraction and storage  ... done (      0.0 sec)

Time for X-Grid setup             =    0.098 sec

--------------------
CPCM SOLVATION MODEL
--------------------
CPCM parameters:
  Epsilon                                         ...      80.4000
  Refrac                                          ...       1.3300
  Rsolv                                           ...       1.3000
  Surface type                                    ...    GEPOL SES
  Epsilon function type                           ...         CPCM
Radii:
 Radius for C  used is    3.7795 Bohr (=   2.0000 Ang.)
 Radius for H  used is    2.4566 Bohr (=   1.3000 Ang.)
Calculating surface                               ...        done! (  0.0s)
GEPOL surface points                              ...          330
GEPOL Volume                                      ...     523.5208
GEPOL Surface-area                                ...     345.1559
Calculating surface distance matrix               ...        done! (  0.0s)
Performing Cholesky decomposition & store         ...        done! (  0.0s)
Overall time for CPCM initialization              ...                 0.0s
--------------
SCF ITERATIONS
--------------
ITER       Energy         Delta-E        Max-DP      RMS-DP      [F,P]     Damp
               ***  Starting incremental Fock matrix formation  ***
  0   -118.0824746230   0.000000000000 0.04490405  0.00156989  0.1561370 0.7000
  1   -118.1260828387  -0.043608215701 0.03468341  0.00115840  0.0848813 0.7000
                               ***Turning on DIIS***
  2   -118.1455822048  -0.019499366168 0.05964251  0.00205699  0.0351469 0.0000
  3   -118.1728092412  -0.027227036356 0.02281746  0.00078865  0.0433900 0.0000
  4   -118.1803436908  -0.007534449622 0.00810835  0.00024372  0.0081472 0.0000
  5   -118.1807459238  -0.000402232959 0.00392463  0.00011234  0.0021205 0.0000
  6   -118.1807979032  -0.000051979440 0.00425707  0.00011638  0.0009054 0.0000
               *** Restarting incremental Fock matrix formation ***
                                   *** Resetting DIIS ***
  7   -118.1808064619  -0.000008558657 0.00115579  0.00003322  0.0005219 0.0000
  8   -118.1808087578  -0.000002295905 0.00042317  0.00001225  0.0003309 0.0000
  9   -118.1808093853  -0.000000627533 0.00049497  0.00001398  0.0001486 0.0000
 10   -118.1808096756  -0.000000290292 0.00011257  0.00000317  0.0000276 0.0000
 11   -118.1808097002  -0.000000024566 0.00003094  0.00000101  0.0000103 0.0000
 12   -118.1808097027  -0.000000002584 0.00000630  0.00000024  0.0000016 0.0000
                 **** Energy Check signals convergence ****

               *****************************************************
               *                     SUCCESS                       *
               *           SCF CONVERGED AFTER  13 CYCLES          *
               *****************************************************

Setting up the final grid:

General Integration Accuracy     IntAcc      ...  4.670
Radial Grid Type                 RadialGrid  ... Gauss-Chebyshev
Angular Grid (max. acc.)         AngularGrid ... Lebedev-302
Angular grid pruning method      GridPruning ... 3 (G Style)
Weight generation scheme         WeightScheme... Becke
Basis function cutoff            BFCut       ...    1.0000e-11
Integration weight cutoff        WCut        ...    1.0000e-14
Grids for H and He will be reduced by one unit

# of grid points (after initial pruning)     ...  42394 (   0.0 sec)
# of grid points (after weights+screening)   ...  39930 (   0.0 sec)
nearest neighbour list constructed           ...    0.0 sec
Grid point re-assignment to atoms done       ...    0.0 sec
Grid point division into batches done        ...    0.1 sec
Reduced shell lists constructed in    0.1 sec

Total number of grid points                  ...    39930
Total number of batches                      ...      627
Average number of points per batch           ...       63
Average number of grid points per atom       ...     3993
Average number of shells per batch           ...    35.10 (90.00%)
Average number of basis functions per batch  ...    69.35 (90.07%)
Average number of large shells per batch     ...    31.70 (90.32%)
Average number of large basis fcns per batch ...    61.78 (89.08%)
Maximum spatial batch extension              ...  13.99, 13.64, 17.86 au
Average spatial batch extension              ...   0.40,  0.41,  0.46 au

Final grid set up in    0.1 sec
Final integration                            ... done (   0.1 sec)
Change in XC energy                          ...     0.000295451
Integrated number of electrons               ...    24.999920749
Previous integrated no of electrons          ...    25.001930052
Old exchange energy                            =     -4.484091080 Eh
New exchange energy                            =     -4.484357660 Eh
Exchange energy change after final integration =     -0.000266581 Eh
Total energy after final integration           =   -118.180780831 Eh
Final COS-X integration done in                =     0.196 sec

----------------
TOTAL SCF ENERGY
----------------

Total Energy       :         -118.18078083 Eh           -3215.86254 eV

Components:
Nuclear Repulsion  :           76.09397411 Eh            2070.62230 eV
Electronic Energy  :         -194.27475494 Eh           -5286.48484 eV
One Electron Energy:         -307.84727927 Eh           -8376.95034 eV
Two Electron Energy:          113.57252432 Eh            3090.46550 eV
CPCM Dielectric    :           -0.00266843 Eh              -0.07261 eV

Virial components:
Potential Energy   :         -234.90703948 Eh           -6392.14551 eV
Kinetic Energy     :          116.72625865 Eh            3176.28298 eV
Virial Ratio       :            2.01246097


DFT components:
N(Alpha)           :       12.999960677576 electrons
N(Beta)            :       11.999960071539 electrons
N(Total)           :       24.999920749115 electrons
E(X)               :      -13.371193910433 Eh       
E(C)               :       -0.796497794840 Eh       
E(XC)              :      -14.167691705273 Eh       
DFET-embed. en.    :        0.000000000000 Eh       
CPCM Solvation Model Properties:
Surface-charge          :           -0.02071746
Charge-correction       :            0.00000120 Eh               0.00003 eV
Free-energy (cav+disp)  :            0.00314698 Eh               0.08563 eV
Corrected G(solv)       :         -118.17763265 Eh           -3215.77687 eV

---------------
SCF CONVERGENCE
---------------

  Last Energy change         ...    1.2653e-09  Tolerance :   1.0000e-08
  Last MAX-Density change    ...    0.0000e+00  Tolerance :   1.0000e-07
  Last RMS-Density change    ...    0.0000e+00  Tolerance :   5.0000e-09
  Last DIIS Error            ...    7.3570e-07  Tolerance :   5.0000e-07

             **** THE GBW FILE WAS UPDATED (TS_m-mfaV_2-6_hl1d_fbond_optts_orca.gbw) ****
             **** DENSITY FILE WAS UPDATED (TS_m-mfaV_2-6_hl1d_fbond_optts_orca.scfp) ****
             **** ENERGY FILE WAS UPDATED (TS_m-mfaV_2-6_hl1d_fbond_optts_orca.en.tmp) ****
----------------------
UHF SPIN CONTAMINATION
----------------------

Warning: in a DFT calculation there is little theoretical justification to 
         calculate <S**2> as in Hartree-Fock theory. We will do it anyways
         but you should keep in mind that the values have only limited relevance

Expectation value of <S**2>     :     0.756004
Ideal value S*(S+1) for S=0.5   :     0.750000
Deviation                       :     0.006004

             **** THE GBW FILE WAS UPDATED (TS_m-mfaV_2-6_hl1d_fbond_optts_orca.gbw) ****
             **** DENSITY FILE WAS UPDATED (TS_m-mfaV_2-6_hl1d_fbond_optts_orca.scfp) ****
----------------
ORBITAL ENERGIES
----------------
                 SPIN UP ORBITALS
  NO   OCC          E(Eh)            E(eV) 
   0   1.0000     -10.240608      -278.6611 
   1   1.0000     -10.233694      -278.4730 
   2   1.0000     -10.228207      -278.3237 
   3   1.0000      -0.827171       -22.5085 
   4   1.0000      -0.702944       -19.1281 
   5   1.0000      -0.575310       -15.6550 
   6   1.0000      -0.484367       -13.1803 
   7   1.0000      -0.450852       -12.2683 
   8   1.0000      -0.422869       -11.5068 
   9   1.0000      -0.386859       -10.5270 
  10   1.0000      -0.362464        -9.8632 
  11   1.0000      -0.337264        -9.1774 
  12   1.0000      -0.154288        -4.1984 
  13   0.0000       0.079989         2.1766 
  14   0.0000       0.113634         3.0922 
  15   0.0000       0.118230         3.2172 
  16   0.0000       0.128046         3.4843 
  17   0.0000       0.154833         4.2132 
  18   0.0000       0.165967         4.5162 
  19   0.0000       0.172153         4.6845 
  20   0.0000       0.239439         6.5155 
  21   0.0000       0.288715         7.8563 
  22   0.0000       0.395895        10.7728 
  23   0.0000       0.412708        11.2304 
  24   0.0000       0.432403        11.7663 
  25   0.0000       0.490614        13.3503 
  26   0.0000       0.523228        14.2378 
  27   0.0000       0.533458        14.5161 
  28   0.0000       0.605772        16.4839 
  29   0.0000       0.644039        17.5252 
  30   0.0000       0.648937        17.6585 
  31   0.0000       0.663713        18.0606 
  32   0.0000       0.670598        18.2479 
  33   0.0000       0.693028        18.8582 
  34   0.0000       0.705137        19.1878 
  35   0.0000       0.710405        19.3311 
  36   0.0000       0.715188        19.4612 
  37   0.0000       0.722908        19.6713 
  38   0.0000       0.753104        20.4930 
  39   0.0000       0.867781        23.6135 
  40   0.0000       0.974244        26.5105 
  41   0.0000       1.189660        32.3723 
  42   0.0000       1.210184        32.9308 
  43   0.0000       1.353947        36.8428 
  44   0.0000       1.405886        38.2561 
  45   0.0000       1.516643        41.2699 
  46   0.0000       1.535325        41.7783 
  47   0.0000       1.553728        42.2791 
  48   0.0000       1.583161        43.0800 
  49   0.0000       1.674227        45.5580 
  50   0.0000       1.710830        46.5541 
  51   0.0000       1.739499        47.3342 
  52   0.0000       1.743548        47.4443 
  53   0.0000       1.795377        48.8547 
  54   0.0000       1.800148        48.9845 
  55   0.0000       1.832475        49.8642 
  56   0.0000       1.862400        50.6785 
  57   0.0000       1.946815        52.9755 
  58   0.0000       1.974581        53.7311 
  59   0.0000       2.066416        56.2300 
  60   0.0000       2.110144        57.4199 
  61   0.0000       2.222699        60.4827 
  62   0.0000       2.254151        61.3386 
  63   0.0000       2.297599        62.5209 
  64   0.0000       2.334475        63.5243 
  65   0.0000       2.376051        64.6556 
  66   0.0000       2.475617        67.3650 
  67   0.0000       2.488885        67.7260 
  68   0.0000       2.519063        68.5472 
  69   0.0000       2.627991        71.5113 
  70   0.0000       2.777903        75.5906 
  71   0.0000       2.822501        76.8042 
  72   0.0000       2.911866        79.2359 
  73   0.0000       2.947344        80.2013 
  74   0.0000       2.965582        80.6976 
  75   0.0000       3.025624        82.3314 
  76   0.0000       3.129789        85.1659 

                 SPIN DOWN ORBITALS
  NO   OCC          E(Eh)            E(eV) 
   0   1.0000     -10.236020      -278.5363 
   1   1.0000     -10.228316      -278.3266 
   2   1.0000     -10.221204      -278.1331 
   3   1.0000      -0.810604       -22.0577 
   4   1.0000      -0.693220       -18.8635 
   5   1.0000      -0.554874       -15.0989 
   6   1.0000      -0.472610       -12.8604 
   7   1.0000      -0.438976       -11.9451 
   8   1.0000      -0.416543       -11.3347 
   9   1.0000      -0.381856       -10.3908 
  10   1.0000      -0.358428        -9.7533 
  11   1.0000      -0.313844        -8.5401 
  12   0.0000      -0.004441        -0.1208 
  13   0.0000       0.083375         2.2687 
  14   0.0000       0.115998         3.1565 
  15   0.0000       0.124949         3.4000 
  16   0.0000       0.140056         3.8111 
  17   0.0000       0.157115         4.2753 
  18   0.0000       0.170791         4.6475 
  19   0.0000       0.174778         4.7560 
  20   0.0000       0.247174         6.7259 
  21   0.0000       0.297528         8.0961 
  22   0.0000       0.403202        10.9717 
  23   0.0000       0.415000        11.2927 
  24   0.0000       0.435169        11.8416 
  25   0.0000       0.512189        13.9374 
  26   0.0000       0.532690        14.4952 
  27   0.0000       0.571902        15.5622 
  28   0.0000       0.621867        16.9218 
  29   0.0000       0.654012        17.7966 
  30   0.0000       0.657426        17.8895 
  31   0.0000       0.676062        18.3966 
  32   0.0000       0.677968        18.4484 
  33   0.0000       0.697409        18.9775 
  34   0.0000       0.710669        19.3383 
  35   0.0000       0.714867        19.4525 
  36   0.0000       0.725466        19.7409 
  37   0.0000       0.729445        19.8492 
  38   0.0000       0.761885        20.7319 
  39   0.0000       0.874224        23.7888 
  40   0.0000       0.981586        26.7103 
  41   0.0000       1.194462        32.5030 
  42   0.0000       1.227371        33.3985 
  43   0.0000       1.361141        37.0385 
  44   0.0000       1.421562        38.6827 
  45   0.0000       1.525855        41.5206 
  46   0.0000       1.536482        41.8098 
  47   0.0000       1.556104        42.3437 
  48   0.0000       1.587564        43.1998 
  49   0.0000       1.678246        45.6674 
  50   0.0000       1.726983        46.9936 
  51   0.0000       1.745335        47.4930 
  52   0.0000       1.758603        47.8540 
  53   0.0000       1.797489        48.9122 
  54   0.0000       1.803282        49.0698 
  55   0.0000       1.837195        49.9926 
  56   0.0000       1.867931        50.8290 
  57   0.0000       1.948782        53.0290 
  58   0.0000       1.986371        54.0519 
  59   0.0000       2.082250        56.6609 
  60   0.0000       2.119107        57.6638 
  61   0.0000       2.229111        60.6572 
  62   0.0000       2.275438        61.9178 
  63   0.0000       2.307258        62.7837 
  64   0.0000       2.351748        63.9943 
  65   0.0000       2.398142        65.2568 
  66   0.0000       2.484814        67.6152 
  67   0.0000       2.498505        67.9878 
  68   0.0000       2.525588        68.7248 
  69   0.0000       2.632713        71.6398 
  70   0.0000       2.782139        75.7058 
  71   0.0000       2.838340        77.2352 
  72   0.0000       2.920435        79.4691 
  73   0.0000       2.950477        80.2866 
  74   0.0000       2.967953        80.7621 
  75   0.0000       3.031145        82.4817 
  76   0.0000       3.135369        85.3177 

                    ********************************
                    * MULLIKEN POPULATION ANALYSIS *
                    ********************************

--------------------------------------------
MULLIKEN ATOMIC CHARGES AND SPIN POPULATIONS
--------------------------------------------
   0 C :   -0.066904   -0.024307
   1 C :   -0.181756    0.262000
   2 C :   -0.240442    0.864694
   3 H :    0.049336    0.002966
   4 H :    0.057683    0.000337
   5 H :    0.055068    0.028437
   6 H :    0.096038   -0.038756
   7 H :    0.076656   -0.007107
   8 H :    0.078008   -0.044284
   9 H :    0.076313   -0.043980
Sum of atomic charges         :   -0.0000000
Sum of atomic spin populations:    1.0000000

-----------------------------------------------------
MULLIKEN REDUCED ORBITAL CHARGES AND SPIN POPULATIONS
-----------------------------------------------------
CHARGE
  0 C s       :     3.041295  s :     3.041295
      pz      :     1.029095  p :     2.997839
      px      :     0.956107
      py      :     1.012637
      dz2     :     0.005743  d :     0.027770
      dxz     :     0.006653
      dyz     :     0.003506
      dx2y2   :     0.006267
      dxy     :     0.005600
  1 C s       :     3.146210  s :     3.146210
      pz      :     1.082385  p :     2.996120
      px      :     0.909686
      py      :     1.004049
      dz2     :     0.005040  d :     0.039425
      dxz     :     0.010419
      dyz     :     0.003253
      dx2y2   :     0.010556
      dxy     :     0.010157
  2 C s       :     3.215858  s :     3.215858
      pz      :     1.096711  p :     2.998062
      px      :     0.942202
      py      :     0.959150
      dz2     :     0.004483  d :     0.026521
      dxz     :     0.004131
      dyz     :     0.003485
      dx2y2   :     0.007609
      dxy     :     0.006814
  3 H s       :     0.926981  s :     0.926981
      pz      :     0.006359  p :     0.023683
      px      :     0.004107
      py      :     0.013218
  4 H s       :     0.918893  s :     0.918893
      pz      :     0.007445  p :     0.023424
      px      :     0.008555
      py      :     0.007425
  5 H s       :     0.921518  s :     0.921518
      pz      :     0.013432  p :     0.023415
      px      :     0.005011
      py      :     0.004972
  6 H s       :     0.863384  s :     0.863384
      pz      :     0.017919  p :     0.040578
      px      :     0.013111
      py      :     0.009548
  7 H s       :     0.899999  s :     0.899999
      pz      :     0.005949  p :     0.023345
      px      :     0.002986
      py      :     0.014411
  8 H s       :     0.897064  s :     0.897064
      pz      :     0.006338  p :     0.024929
      px      :     0.003730
      py      :     0.014861
  9 H s       :     0.898875  s :     0.898875
      pz      :     0.006501  p :     0.024812
      px      :     0.012630
      py      :     0.005681

SPIN
  0 C s       :    -0.009298  s :    -0.009298
      pz      :    -0.008545  p :    -0.017057
      px      :    -0.006814
      py      :    -0.001699
      dz2     :     0.000335  d :     0.002048
      dxz     :     0.001286
      dyz     :     0.000410
      dx2y2   :     0.000005
      dxy     :     0.000013
  1 C s       :     0.043380  s :     0.043380
      pz      :     0.228722  p :     0.216670
      px      :    -0.008324
      py      :    -0.003728
      dz2     :     0.002223  d :     0.001950
      dxz     :    -0.000484
      dyz     :     0.000150
      dx2y2   :     0.000156
      dxy     :    -0.000097
  2 C s       :     0.072802  s :     0.072802
      pz      :     0.734319  p :     0.793646
      px      :     0.022931
      py      :     0.036395
      dz2     :    -0.002212  d :    -0.001754
      dxz     :     0.000472
      dyz     :     0.000092
      dx2y2   :     0.000074
      dxy     :    -0.000180
  3 H s       :     0.003035  s :     0.003035
      pz      :    -0.000019  p :    -0.000070
      px      :    -0.000031
      py      :    -0.000020
  4 H s       :     0.000416  s :     0.000416
      pz      :    -0.000024  p :    -0.000078
      px      :    -0.000029
      py      :    -0.000026
  5 H s       :     0.028591  s :     0.028591
      pz      :    -0.000173  p :    -0.000154
      px      :    -0.000026
      py      :     0.000045
  6 H s       :    -0.050432  s :    -0.050432
      pz      :     0.000389  p :     0.011676
      px      :     0.007834
      py      :     0.003453
  7 H s       :    -0.008606  s :    -0.008606
      pz      :     0.001336  p :     0.001499
      px      :     0.000009
      py      :     0.000154
  8 H s       :    -0.048975  s :    -0.048975
      pz      :     0.004355  p :     0.004692
      px      :    -0.000053
      py      :     0.000390
  9 H s       :    -0.048599  s :    -0.048599
      pz      :     0.004424  p :     0.004618
      px      :     0.000205
      py      :    -0.000011


                     *******************************
                     * LOEWDIN POPULATION ANALYSIS *
                     *******************************

-------------------------------------------
LOEWDIN ATOMIC CHARGES AND SPIN POPULATIONS
-------------------------------------------
   0 C :   -0.078905    0.001522
   1 C :   -0.089481    0.225858
   2 C :   -0.124940    0.704358
   3 H :    0.037711    0.003508
   4 H :    0.035518    0.000441
   5 H :    0.032890    0.020754
   6 H :    0.088120    0.033903
   7 H :    0.039702    0.007053
   8 H :    0.028934    0.001323
   9 H :    0.030452    0.001280

----------------------------------------------------
LOEWDIN REDUCED ORBITAL CHARGES AND SPIN POPULATIONS
----------------------------------------------------
CHARGE
  0 C s       :     2.848440  s :     2.848440
      pz      :     1.070300  p :     3.158032
      px      :     1.023769
      py      :     1.063964
      dz2     :     0.015595  d :     0.072433
      dxz     :     0.016311
      dyz     :     0.009205
      dx2y2   :     0.016460
      dxy     :     0.014862
  1 C s       :     2.845959  s :     2.845959
      pz      :     1.106374  p :     3.148625
      px      :     0.989494
      py      :     1.052758
      dz2     :     0.010789  d :     0.094897
      dxz     :     0.023890
      dyz     :     0.007806
      dx2y2   :     0.027599
      dxy     :     0.024813
  2 C s       :     2.913221  s :     2.913221
      pz      :     1.076343  p :     3.143719
      px      :     1.030178
      py      :     1.037198
      dz2     :     0.009545  d :     0.068000
      dxz     :     0.010271
      dyz     :     0.008449
      dx2y2   :     0.021139
      dxy     :     0.018596
  3 H s       :     0.897783  s :     0.897783
      pz      :     0.016252  p :     0.064506
      px      :     0.011588
      py      :     0.036666
  4 H s       :     0.900121  s :     0.900121
      pz      :     0.019558  p :     0.064361
      px      :     0.024769
      py      :     0.020035
  5 H s       :     0.902535  s :     0.902535
      pz      :     0.037649  p :     0.064575
      px      :     0.014524
      py      :     0.012402
  6 H s       :     0.776667  s :     0.776667
      pz      :     0.055316  p :     0.135213
      px      :     0.050122
      py      :     0.029775
  7 H s       :     0.890017  s :     0.890017
      pz      :     0.019400  p :     0.070280
      px      :     0.010138
      py      :     0.040743
  8 H s       :     0.894204  s :     0.894204
      pz      :     0.023199  p :     0.076862
      px      :     0.010655
      py      :     0.043008
  9 H s       :     0.892456  s :     0.892456
      pz      :     0.023481  p :     0.077092
      px      :     0.036985
      py      :     0.016626

SPIN
  0 C s       :     0.000656  s :     0.000656
      pz      :    -0.003682  p :    -0.005036
      px      :    -0.001350
      py      :    -0.000004
      dz2     :     0.001062  d :     0.005903
      dxz     :     0.003490
      dyz     :     0.001087
      dx2y2   :     0.000152
      dxy     :     0.000112
  1 C s       :     0.011629  s :     0.011629
      pz      :     0.207629  p :     0.208426
      px      :    -0.000007
      py      :     0.000805
      dz2     :     0.004446  d :     0.005802
      dxz     :    -0.000297
      dyz     :     0.001091
      dx2y2   :     0.000327
      dxy     :     0.000235
  2 C s       :     0.025451  s :     0.025451
      pz      :     0.641961  p :     0.678027
      px      :     0.018272
      py      :     0.017794
      dz2     :    -0.001583  d :     0.000880
      dxz     :     0.002380
      dyz     :     0.001257
      dx2y2   :    -0.000535
      dxy     :    -0.000640
  3 H s       :     0.003731  s :     0.003731
      pz      :    -0.000031  p :    -0.000224
      px      :    -0.000083
      py      :    -0.000110
  4 H s       :     0.000736  s :     0.000736
      pz      :    -0.000127  p :    -0.000296
      px      :    -0.000099
      py      :    -0.000070
  5 H s       :     0.020224  s :     0.020224
      pz      :    -0.000171  p :     0.000530
      px      :     0.000452
      py      :     0.000249
  6 H s       :    -0.019401  s :    -0.019401
      pz      :     0.003949  p :     0.053304
      px      :     0.033788
      py      :     0.015568
  7 H s       :    -0.001069  s :    -0.001069
      pz      :     0.007225  p :     0.008122
      px      :     0.000172
      py      :     0.000725
  8 H s       :    -0.021231  s :    -0.021231
      pz      :     0.019129  p :     0.022553
      px      :     0.000321
      py      :     0.003103
  9 H s       :    -0.021321  s :    -0.021321
      pz      :     0.019384  p :     0.022602
      px      :     0.002248
      py      :     0.000970


                      *****************************
                      * MAYER POPULATION ANALYSIS *
                      *****************************

  NA   - Mulliken gross atomic population
  ZA   - Total nuclear charge
  QA   - Mulliken gross atomic charge
  VA   - Mayer's total valence
  BVA  - Mayer's bonded valence
  FA   - Mayer's free valence

  ATOM       NA         ZA         QA         VA         BVA        FA
  0 C      6.0669     6.0000    -0.0669     3.9639     3.9635     0.0004
  1 C      6.1818     6.0000    -0.1818     3.9358     3.8576     0.0782
  2 C      6.2404     6.0000    -0.2404     3.7545     3.1982     0.5563
  3 H      0.9507     1.0000     0.0493     0.9873     0.9873     0.0000
  4 H      0.9423     1.0000     0.0577     0.9813     0.9813     0.0000
  5 H      0.9449     1.0000     0.0551     0.9789     0.9780     0.0009
  6 H      0.9040     1.0000     0.0960     1.0134     1.0095     0.0039
  7 H      0.9233     1.0000     0.0767     0.9771     0.9769     0.0002
  8 H      0.9220     1.0000     0.0780     0.9885     0.9861     0.0025
  9 H      0.9237     1.0000     0.0763     0.9844     0.9820     0.0024

  Mayer bond orders larger than 0.100000
B(  0-C ,  1-C ) :   1.0801 B(  0-C ,  3-H ) :   0.9641 B(  0-C ,  4-H ) :   0.9691 
B(  0-C ,  5-H ) :   0.9624 B(  1-C ,  2-C ) :   1.0231 B(  1-C ,  6-H ) :   0.7718 
B(  1-C ,  7-H ) :   0.9553 B(  2-C ,  6-H ) :   0.2257 B(  2-C ,  8-H ) :   0.9694 
B(  2-C ,  9-H ) :   0.9690 


------------------
HIRSHFELD ANALYSIS
------------------

Total integrated alpha density =     13.001879332
Total integrated beta density  =     12.000050720

  ATOM     CHARGE      SPIN    
   0 C   -0.073591    0.021474
   1 C   -0.054710    0.222993
   2 C   -0.108212    0.583675
   3 H    0.033504    0.003441
   4 H    0.029467    0.002006
   5 H    0.025123    0.019743
   6 H    0.055068    0.048918
   7 H    0.037403    0.018945
   8 H    0.025669    0.040752
   9 H    0.028349    0.039881

  TOTAL  -0.001930    1.001829

-------
TIMINGS
-------

Total SCF time: 0 days 0 hours 0 min 5 sec 

Total time                  ....       5.416 sec
Sum of individual times     ....       5.314 sec  ( 98.1%)

Fock matrix formation       ....       4.926 sec  ( 91.0%)
  Split-RI-J                ....       0.996 sec  ( 20.2% of F)
  Chain of spheres X        ....       1.655 sec  ( 33.6% of F)
  COS-X 1 center corr.      ....       0.000 sec  (  0.0% of F)
  XC integration            ....       0.384 sec  (  7.8% of F)
    Basis function eval.    ....       0.096 sec  ( 25.0% of XC)
    Density eval.           ....       0.064 sec  ( 16.6% of XC)
    XC-Functional eval.     ....       0.031 sec  (  8.2% of XC)
    XC-Potential eval.      ....       0.107 sec  ( 28.0% of XC)
Diagonalization             ....       0.015 sec  (  0.3%)
Density matrix formation    ....       0.001 sec  (  0.0%)
Population analysis         ....       0.018 sec  (  0.3%)
Initial guess               ....       0.079 sec  (  1.5%)
Orbital Transformation      ....       0.000 sec  (  0.0%)
Orbital Orthonormalization  ....       0.000 sec  (  0.0%)
DIIS solution               ....       0.005 sec  (  0.1%)
Grid generation             ....       0.269 sec  (  5.0%)


-------------------------------------------------------------------------------
                          DFT DISPERSION CORRECTION                            
                                                                               
                              DFTD3 V3.1  Rev 1                                
                          USING Becke-Johnson damping                          
-------------------------------------------------------------------------------
The PBE0 functional is recognized
Active option DFTDOPT                   ...         4   

molecular C6(AA) [au] = 639.515455 


            DFT-D V3
 parameters
 s6 scaling factor         :     1.0000 
 a1 scaling factor         :     0.4145 
 s8 scaling factor         :     1.2177 
 a2 scaling factor         :     4.8593 
 ad hoc parameters k1-k3   :    16.0000     1.3333    -4.0000 

 Edisp/kcal,au: -2.675305584483  -0.004263370371 
 E6   /kcal   :  -1.762951379 
 E8   /kcal   :  -0.912354205 
 % E8         :  34.102803451 

-------------------------   ----------------
Dispersion correction           -0.004263370
-------------------------   ----------------


-------------------------   --------------------
FINAL SINGLE POINT ENERGY      -118.185044201021
-------------------------   --------------------

[1589383050.907895] [ty2019:18515:0]            sys.c:618  UCX  ERROR shmget(size=2097152 flags=0xfb0) for mm_recv_desc failed: Operation not permitted, please check shared memory limits by 'ipcs -l'
[1589383050.909199] [ty2019:18517:0]            sys.c:618  UCX  ERROR shmget(size=2097152 flags=0xfb0) for mm_recv_desc failed: Operation not permitted, please check shared memory limits by 'ipcs -l'
[1589383050.909337] [ty2019:18518:0]            sys.c:618  UCX  ERROR shmget(size=2097152 flags=0xfb0) for mm_recv_desc failed: Operation not permitted, please check shared memory limits by 'ipcs -l'
[1589383050.910121] [ty2019:18516:0]            sys.c:618  UCX  ERROR shmget(size=2097152 flags=0xfb0) for mm_recv_desc failed: Operation not permitted, please check shared memory limits by 'ipcs -l'
[1589383050.917495] [ty2019:18517:0]            sys.c:618  UCX  ERROR shmget(size=2097152 flags=0xb80) for ucp_am_bufs failed: Operation not permitted, please check shared memory limits by 'ipcs -l'
[1589383050.917507] [ty2019:18515:0]            sys.c:618  UCX  ERROR shmget(size=2097152 flags=0xb80) for ucp_am_bufs failed: Operation not permitted, please check shared memory limits by 'ipcs -l'
[1589383050.917977] [ty2019:18518:0]            sys.c:618  UCX  ERROR shmget(size=2097152 flags=0xb80) for ucp_am_bufs failed: Operation not permitted, please check shared memory limits by 'ipcs -l'
[1589383050.917984] [ty2019:18516:0]            sys.c:618  UCX  ERROR shmget(size=2097152 flags=0xb80) for ucp_am_bufs failed: Operation not permitted, please check shared memory limits by 'ipcs -l'


           ************************************************************
           *        Program running with 4 parallel MPI-processes     *
           *              working on a common directory               *
           ************************************************************
------------------------------------------------------------------------------
                         ORCA SCF GRADIENT CALCULATION
------------------------------------------------------------------------------

Gradient of the Kohn-Sham DFT energy:
Kohn-Sham wavefunction type      ... UKS
Hartree-Fock exchange scaling    ...    0.250
Number of operators              ...    2
Number of atoms                  ...   10
Basis set dimensions             ...   77
Integral neglect threshold       ... 2.5e-11
Integral primitive cutoff        ... 2.5e-12

Nuclear repulsion gradient       ... done
One Electron Gradient            ... done
Pre-screening matrix             ... done
RI-J gradient                    ... done
COSX-gradient                    ... done
Exchange-correlation gradient    ... done
Dispersion correction            ... done

------------------
CARTESIAN GRADIENT
------------------

   1   C   :    0.001330637   -0.000115363    0.001272780
   2   C   :   -0.006372181   -0.002798852   -0.003451074
   3   C   :   -0.015984525   -0.016640512    0.040911357
   4   H   :   -0.000077858    0.005132012    0.001341743
   5   H   :   -0.004204197   -0.002671252    0.002681631
   6   H   :   -0.001885566    0.001383495   -0.005299783
   7   H   :    0.022165608    0.019663794   -0.036631737
   8   H   :    0.000953327   -0.005450282   -0.000630543
   9   H   :   -0.000582338    0.005305705    0.000845165
  10   H   :    0.004794743   -0.001881611   -0.000635362

Difference to translation invariance:
           :    0.0001376491    0.0019271339    0.0004041776

Norm of the cartesian gradient     ...    0.0683419242
RMS gradient                       ...    0.0124774712
MAX gradient                       ...    0.0409113572

-------
TIMINGS
-------

Total SCF gradient time            ...        0.823 sec

One electron gradient       ....       0.005 sec  (  0.6%)
Prescreening matrices       ....       0.006 sec  (  0.7%)
RI-J Coulomb gradient       ....       0.080 sec  (  9.7%)
COSX gradient               ....       0.200 sec  ( 24.2%)
XC gradient                 ....       0.287 sec  ( 34.9%)
CPCM gradient               ....       0.073 sec  (  8.9%)
   A-Matrix (El+Nuc)        ....       0.003 sec  (  0.3%)
   Potential                ....       0.071 sec  (  8.6%)
[1589383052.607131] [ty2019:18541:0]            sys.c:618  UCX  ERROR shmget(size=2097152 flags=0xfb0) for mm_recv_desc failed: Operation not permitted, please check shared memory limits by 'ipcs -l'
[1589383052.610886] [ty2019:18542:0]            sys.c:618  UCX  ERROR shmget(size=2097152 flags=0xfb0) for mm_recv_desc failed: Operation not permitted, please check shared memory limits by 'ipcs -l'
[1589383052.615043] [ty2019:18539:0]            sys.c:618  UCX  ERROR shmget(size=2097152 flags=0xfb0) for mm_recv_desc failed: Operation not permitted, please check shared memory limits by 'ipcs -l'
[1589383052.615092] [ty2019:18540:0]            sys.c:618  UCX  ERROR shmget(size=2097152 flags=0xfb0) for mm_recv_desc failed: Operation not permitted, please check shared memory limits by 'ipcs -l'
[1589383052.621914] [ty2019:18541:0]            sys.c:618  UCX  ERROR shmget(size=2097152 flags=0xb80) for ucp_am_bufs failed: Operation not permitted, please check shared memory limits by 'ipcs -l'
[1589383052.622648] [ty2019:18542:0]            sys.c:618  UCX  ERROR shmget(size=2097152 flags=0xb80) for ucp_am_bufs failed: Operation not permitted, please check shared memory limits by 'ipcs -l'


           ************************************************************
           *        Program running with 4 parallel MPI-processes     *
           *              working on a common directory               *
           ************************************************************
[1589383052.643153] [ty2019:18540:0]            sys.c:618  UCX  ERROR shmget(size=2097152 flags=0xb80) for ucp_am_bufs failed: Operation not permitted, please check shared memory limits by 'ipcs -l'

-------------------------------------------------------------------------------
                               ORCA SCF HESSIAN
-------------------------------------------------------------------------------

Hessian of the Kohn-Sham DFT energy:
Kohn-Sham wavefunction type                      ... UKS
Hartree-Fock exchange scaling                    ...    0.250
Number of operators                              ...    2
Number of atoms                                  ...   10
Basis set dimensions                             ...   77
Integral neglect threshold                       ... 2.5e-11
Integral primitive cutoff                        ... 2.5e-12

Setting up DFT Hessian calculations              ... 
Electron density on the grid                     ... found on disk
Electron density on the final grid               ... found on disk
[1589383052.643986] [ty2019:18539:0]            sys.c:618  UCX  ERROR shmget(size=2097152 flags=0xb80) for ucp_am_bufs failed: Operation not permitted, please check shared memory limits by 'ipcs -l'
Building xc-kernel on the grid                   ... done   (      0.0 sec)
Building xc-kernel on the final grid             ... done   (      0.0 sec)
                                                     done   (      0.0 sec)

Nuclear repulsion Hessian                        ... done   (      0.0 sec)

----------------------------------------------
Forming right-hand sides of CP-SCF equations     ...
----------------------------------------------
One electron integral derivatives                ... done   (      1.1 sec)
Transforming the overlap derivative matrices     ... done   (      0.0 sec)
[1589383054.208776] [ty2019:18542:0]            sys.c:618  UCX  ERROR shmget(size=6291456 flags=0xfb0) for mm_recv_desc failed: Operation not permitted, please check shared memory limits by 'ipcs -l'
[1589383054.208818] [ty2019:18539:0]            sys.c:618  UCX  ERROR shmget(size=6291456 flags=0xfb0) for mm_recv_desc failed: Operation not permitted, please check shared memory limits by 'ipcs -l'
[1589383054.210102] [ty2019:18540:0]            sys.c:618  UCX  ERROR shmget(size=6291456 flags=0xfb0) for mm_recv_desc failed: Operation not permitted, please check shared memory limits by 'ipcs -l'
Adding tr(S(x)F(y) C-PCM term to the hessian     ... done   (      0.2 sec)
Making the Q(x) pseudodensities                  ... [1589383054.212345] [ty2019:18541:0]            sys.c:618  UCX  ERROR shmget(size=6291456 flags=0xfb0) for mm_recv_desc failed: Operation not permitted, please check shared memory limits by 'ipcs -l'
done   (      0.0 sec)
Adding the E*S(x)*S(y) terms to the Hessian      ... done   (      0.0 sec)
Calculating energy weighted overlap derivatives  ... done   (      0.0 sec)
Two electron integral derivatives (RI)           ... done   (      0.5 sec)
Exchange-correlation integral derivatives        ... done   (      2.9 sec)
tr(F(y)Q(x)) contribution to the Hessian         ... done   (      0.0 sec)
Response fock operator R(S(x)) (RIJCOSX)         ... done   (      0.8 sec)
XC Response fock operator R(S(x))                ... done   (      0.9 sec)
tr(F(y)S(x)) contribution to the Hessian         ... done   (      0.0 sec)
Transforming and finalizing RHSs                 ... done   (      0.0 sec)

----------------------------------------------
Solving the CP-SCF equations (RIJCOSX)           ...
----------------------------------------------
     CP-SCF ITERATION   0: 
     CP-SCF ITERATION   1:      0.003193712576
     CP-SCF ITERATION   2:      0.000403599152
     CP-SCF ITERATION   3:      0.000044600436
     CP-SCF ITERATION   4:      0.000006336031
     CP-SCF ITERATION   5:      0.000000357700
     CP-SCF ITERATION   6:      0.000000028852
     CP-SCF ITERATION   7:      0.000000008786

                                                 ... done   (      7.6 sec)
Forming perturbed density Hessian contributions  ... done   (      0.0 sec)
Calculating [Q*(d^2 A/dXdY)*Q  ] C-PCM term      ... done   (      0.0 sec)
Calculating [d^2(V_N)/(dXdY)*Q ] C-PCM term      ... done   (      0.0 sec)
Calculating [d^2(V_el)/(dXdY)*Q] C-PCM term      ... done   (      0.1 sec)
Calculating C-PCM term that depends on dQ/dX     ... done   (      0.0 sec)
2nd integral derivative contribs (RI)            ... done   (      1.9 sec)
Exchange-correlation Hessian                     ... done   (      3.3 sec)
Dispersion correction in the Hessian             ... done   (      0.5 sec)
Dipol derivatives                                ... done   (      0.1 sec)

Total SCF Hessian time: 0 days 0 hours 0 min 20 sec 

Writing the Hessian file to the disk             ... done


Maximum memory used throughout the entire calculation: 133.1 MB

-----------------------
VIBRATIONAL FREQUENCIES
-----------------------

Scaling factor for frequencies =  1.000000000  (already applied!)

   0:         0.00 cm**-1
   1:         0.00 cm**-1
   2:         0.00 cm**-1
   3:         0.00 cm**-1
   4:         0.00 cm**-1
   5:         0.00 cm**-1
   6:     -1141.95 cm**-1 ***imaginary mode***
   7:       300.10 cm**-1
   8:       353.50 cm**-1
   9:       433.23 cm**-1
  10:       480.63 cm**-1
  11:       721.83 cm**-1
  12:       897.75 cm**-1
  13:       935.06 cm**-1
  14:      1076.87 cm**-1
  15:      1159.94 cm**-1
  16:      1180.26 cm**-1
  17:      1211.03 cm**-1
  18:      1357.41 cm**-1
  19:      1409.92 cm**-1
  20:      1430.64 cm**-1
  21:      1450.71 cm**-1
  22:      1460.88 cm**-1
  23:      2774.06 cm**-1
  24:      2954.61 cm**-1
  25:      3037.94 cm**-1
  26:      3076.15 cm**-1
  27:      3095.13 cm**-1
  28:      3112.06 cm**-1
  29:      3215.45 cm**-1


------------
NORMAL MODES
------------

These modes are the Cartesian displacements weighted by the diagonal matrix
M(i,i)=1/sqrt(m[i]) where m[i] is the mass of the displaced atom
Thus, these vectors are normalized but *not* orthogonal

                  0          1          2          3          4          5    
      0       0.000000   0.000000   0.000000   0.000000   0.000000   0.000000
      1       0.000000   0.000000   0.000000   0.000000   0.000000   0.000000
      2       0.000000   0.000000   0.000000   0.000000   0.000000   0.000000
      3       0.000000   0.000000   0.000000   0.000000   0.000000   0.000000
      4       0.000000   0.000000   0.000000   0.000000   0.000000   0.000000
      5       0.000000   0.000000   0.000000   0.000000   0.000000   0.000000
      6       0.000000   0.000000   0.000000   0.000000   0.000000   0.000000
      7       0.000000   0.000000   0.000000   0.000000   0.000000   0.000000
      8       0.000000   0.000000   0.000000   0.000000   0.000000   0.000000
      9       0.000000   0.000000   0.000000   0.000000   0.000000   0.000000
     10       0.000000   0.000000   0.000000   0.000000   0.000000   0.000000
     11       0.000000   0.000000   0.000000   0.000000   0.000000   0.000000
     12       0.000000   0.000000   0.000000   0.000000   0.000000   0.000000
     13       0.000000   0.000000   0.000000   0.000000   0.000000   0.000000
     14       0.000000   0.000000   0.000000   0.000000   0.000000   0.000000
     15       0.000000   0.000000   0.000000   0.000000   0.000000   0.000000
     16       0.000000   0.000000   0.000000   0.000000   0.000000   0.000000
     17       0.000000   0.000000   0.000000   0.000000   0.000000   0.000000
     18       0.000000   0.000000   0.000000   0.000000   0.000000   0.000000
     19       0.000000   0.000000   0.000000   0.000000   0.000000   0.000000
     20       0.000000   0.000000   0.000000   0.000000   0.000000   0.000000
     21       0.000000   0.000000   0.000000   0.000000   0.000000   0.000000
     22       0.000000   0.000000   0.000000   0.000000   0.000000   0.000000
     23       0.000000   0.000000   0.000000   0.000000   0.000000   0.000000
     24       0.000000   0.000000   0.000000   0.000000   0.000000   0.000000
     25       0.000000   0.000000   0.000000   0.000000   0.000000   0.000000
     26       0.000000   0.000000   0.000000   0.000000   0.000000   0.000000
     27       0.000000   0.000000   0.000000   0.000000   0.000000   0.000000
     28       0.000000   0.000000   0.000000   0.000000   0.000000   0.000000
     29       0.000000   0.000000   0.000000   0.000000   0.000000   0.000000
                  6          7          8          9         10         11    
      0       0.001183  -0.000002  -0.143733   0.032009  -0.006921  -0.020667
      1       0.001954  -0.003249  -0.068429   0.018057   0.004666  -0.002525
      2      -0.002447  -0.010839   0.033765   0.033168   0.008415   0.025696
      3       0.052829   0.007004  -0.018998  -0.004094   0.002977  -0.002138
      4       0.029093   0.020477   0.163086  -0.050888   0.000560   0.035155
      5       0.047611   0.073938  -0.094305  -0.074216  -0.039655   0.072417
      6       0.000014  -0.008572   0.181748  -0.022295   0.039106  -0.002149
      7       0.013129  -0.023993  -0.052313   0.006463  -0.007348   0.006457
      8      -0.089350  -0.067241   0.004128  -0.030610   0.118552  -0.026850
      9      -0.008782  -0.167925  -0.349064   0.153573  -0.004570  -0.236074
     10       0.002996  -0.195577  -0.090133  -0.009826  -0.026890   0.052008
     11      -0.011623   0.464834   0.089653   0.102209   0.085315  -0.111556
     12       0.016450  -0.104181   0.099945   0.047499   0.025250  -0.092928
[...]
      1       0.002653   0.002524  -0.064512  -0.013545   0.004739  -0.009705
      2      -0.000222  -0.010084  -0.004258   0.046653  -0.007882   0.015625
      3       0.044624   0.004248  -0.013131  -0.001986  -0.013869  -0.009124
      4       0.021002   0.004537   0.184283   0.018958  -0.023548  -0.003593
      5       0.058780   0.074760   0.005596  -0.120019  -0.034074   0.094829
      6       0.016582  -0.012463   0.159748   0.044295  -0.002252  -0.045515
      7       0.018988  -0.010881  -0.059725   0.003149  -0.010587   0.015381
      8      -0.073578  -0.057612  -0.004730   0.029756  -0.090576  -0.098429
      9      -0.004113  -0.190473  -0.454124  -0.009147   0.077978  -0.074702
     10      -0.002449  -0.235438  -0.085609  -0.067586  -0.023121   0.037393
     11      -0.004977   0.417347   0.011360   0.149877   0.056741  -0.081072
     12       0.006562  -0.075676   0.049535   0.075484   0.009055  -0.056942
     13      -0.001504  -0.229866  -0.314557  -0.096232   0.026392   0.007928
     14       0.003189  -0.509193  -0.028662   0.112904   0.051710  -0.066710
     15       0.020118   0.289006  -0.201514  -0.226991  -0.115242   0.175147
     16      -0.020885   0.471901  -0.153095   0.067519   0.100056  -0.113541
     17       0.001453   0.004055  -0.006365   0.116050   0.037950  -0.051980
     18      -0.817834   0.016599   0.127133  -0.264393  -0.024180   0.227621
     19      -0.537096   0.125933  -0.053538   0.223139   0.116170   0.015466
     20       0.153776   0.010338  -0.009935  -0.005823  -0.093389  -0.050022
     21       0.013579   0.011328  -0.010461  -0.008214   0.032861  -0.033849
     22       0.025159  -0.013815   0.175322  -0.003232  -0.103496   0.104832
     23      -0.034704   0.196279   0.060158   0.014867   0.530276  -0.629745
     24       0.020989  -0.025113   0.499254   0.124512   0.062544   0.271503
     25       0.024210  -0.027996  -0.002440  -0.048789   0.067357   0.067725
     26       0.031953  -0.204953   0.278496  -0.505464   0.652175   0.180765
     27       0.035349  -0.010322  -0.047208   0.155003   0.236688   0.085206
     28       0.004444  -0.045203  -0.281575  -0.176849   0.166911  -0.144626
     29       0.028292   0.001945  -0.264647   0.637238   0.343751   0.555479
                 12         13         14         15         16         17    
      0       0.053059  -0.203247   0.006405  -0.025719  -0.048608   0.018583
      1      -0.073919  -0.021454  -0.016334   0.157600   0.029242   0.021883
      2      -0.016125  -0.007661   0.139168  -0.014346   0.049112   0.026388
      3      -0.024637   0.026644  -0.027240   0.080884   0.113201  -0.029976
      4       0.031972  -0.116150  -0.008938  -0.171933   0.076636  -0.073696
      5      -0.018700   0.045655  -0.109851  -0.001987  -0.045513   0.004993
      6      -0.086547   0.147596   0.014364  -0.049005  -0.075794   0.044918
      7       0.044129   0.072079   0.045044   0.075525  -0.133272  -0.002625
      8       0.014178  -0.008433   0.007510   0.009362   0.002150  -0.003682
      9       0.411335   0.275740  -0.191134  -0.542450  -0.151179  -0.090672
     10      -0.087113   0.009864   0.195588   0.101811   0.116467   0.019123
     11       0.038325  -0.022228  -0.272080   0.048584  -0.112205   0.014386
     12      -0.079526  -0.601197  -0.290611   0.204200  -0.158667   0.014228
     13       0.142618   0.443794   0.058302  -0.158973   0.073422  -0.035982
     14       0.060579  -0.019457  -0.292058  -0.049984  -0.084462  -0.061882
     15       0.043054  -0.033172   0.636149  -0.283361   0.103237   0.048627
     16       0.150980   0.258501  -0.274141  -0.171574  -0.014628  -0.111797
     17       0.028351   0.006770  -0.087622  -0.003846  -0.005505  -0.005741
     18      -0.104395   0.097687  -0.029876   0.105261  -0.083860  -0.472607
     19       0.073736  -0.029521  -0.128722  -0.173677   0.169035   0.727554
     20       0.008893  -0.021505  -0.074994  -0.029156   0.041886   0.064453
     21       0.339963   0.319324  -0.144628   0.331647   0.781047  -0.027568
     22       0.047469  -0.079861  -0.076382  -0.183440   0.153304  -0.034863
     23       0.126827  -0.083152   0.281370   0.161324  -0.099634  -0.259444
     24       0.472219   0.125217   0.131047   0.334630  -0.357377   0.137577
     25       0.091837   0.062209   0.051228   0.098841  -0.155525   0.029011
     26       0.072997  -0.148218  -0.027632  -0.042311   0.120138   0.192162
     27      -0.390045   0.162040  -0.033840  -0.223330   0.000273  -0.009052
     28      -0.445531   0.115796  -0.061468  -0.242130  -0.015663   0.055609
     29      -0.089939  -0.064443   0.034201  -0.001543   0.071273  -0.273986
                 18         19         20         21         22         23    
      0       0.023765   0.081347  -0.155616   0.014587   0.000256   0.003448
      1      -0.051533  -0.045966   0.018271  -0.012813   0.037346   0.000992
      2       0.000760   0.015246  -0.010432  -0.049622  -0.005130   0.002720
      3       0.137713  -0.006250   0.192053  -0.001578   0.067248  -0.032168
      4       0.003652   0.017232   0.000250   0.005594   0.032195  -0.008773
      5      -0.008873   0.000913  -0.020066  -0.017897  -0.009979  -0.043061
      6      -0.008197  -0.071189  -0.112086  -0.007438  -0.040226   0.010599
      7       0.023116  -0.050206  -0.043969  -0.006846  -0.021941   0.011229
      8      -0.005096   0.016040   0.019908   0.003314   0.005363  -0.044692
      9      -0.281141  -0.298527   0.292409  -0.425700   0.236172  -0.009858
     10       0.044877   0.071976   0.075208  -0.253776  -0.211545   0.000107
     11      -0.169783  -0.213135  -0.078623   0.378612   0.442929   0.002899
     12      -0.285602  -0.191486   0.232168  -0.038583  -0.299846   0.006633
     13       0.277958   0.189254  -0.249845   0.430709   0.156853   0.001345
     14      -0.043965  -0.115326   0.257758   0.528358  -0.330181   0.005611
     15      -0.274175  -0.290959   0.390812   0.344274  -0.225902   0.005881
     16       0.261174   0.209468   0.191788  -0.053263  -0.604053  -0.002829
     17       0.125990   0.147726  -0.111826  -0.124592  -0.060652  -0.008859
     18      -0.022944  -0.001437  -0.006025  -0.013878   0.024394   0.178110
     19       0.135034  -0.048232   0.130403   0.002759   0.016623   0.001008
     20       0.043354   0.064542   0.140186  -0.010971   0.048974   0.976515
     21      -0.480046   0.025817  -0.418853   0.006801  -0.171144   0.036051
     22      -0.053931   0.025655  -0.068717   0.002811   0.006646  -0.036538
     23      -0.007354  -0.000914   0.021234   0.009985   0.029497   0.008243
     24      -0.257494   0.505963   0.403385   0.042125   0.100994  -0.031501
     25       0.011689  -0.019214  -0.010522  -0.004939  -0.014400   0.042950
     26       0.169719  -0.176722  -0.037198  -0.013239  -0.010816   0.019659
     27      -0.225047   0.204069   0.007520   0.018579   0.010307   0.030607
     28      -0.381711   0.511718   0.234928   0.043294   0.082701  -0.047130
     29       0.039434  -0.089842  -0.065344  -0.003098  -0.003630   0.009165
                 24         25         26         27         28         29    
      0       0.034909  -0.020039   0.046431   0.000299  -0.007839  -0.000539
      1      -0.021587   0.030837   0.078132   0.001299  -0.009019  -0.000107
      2       0.046607   0.077049  -0.014639   0.000362   0.000187  -0.000454
      3       0.000207   0.001733   0.000614  -0.005084   0.007580   0.000436
      4      -0.000900  -0.001558  -0.009963   0.002294  -0.083825  -0.006539
      5       0.001117   0.000152  -0.002051  -0.000710  -0.012130  -0.001093
      6       0.000916  -0.000255  -0.000892   0.045581   0.000179   0.056645
      7       0.000446  -0.000418   0.000100   0.036240   0.009760  -0.083654
      8      -0.000257   0.000456  -0.000035  -0.022739  -0.002061  -0.011827
      9      -0.004180   0.019085   0.017948   0.000936  -0.003008  -0.001429
     10       0.282823  -0.704182  -0.433441  -0.012984   0.061250   0.003361
     11       0.171394  -0.374325  -0.246646  -0.006616   0.034098   0.001979
     12      -0.200685   0.305423  -0.594403  -0.002537   0.074738   0.001454
     13      -0.175239   0.264839  -0.500487  -0.004126   0.059232   0.001049
     14       0.126836  -0.161139   0.338768   0.002706  -0.039320  -0.000267
     15      -0.215521  -0.104806   0.028751   0.000774  -0.001990   0.000196
     16       0.153653   0.079032  -0.000879   0.000379  -0.000742  -0.000411
     17      -0.854057  -0.386662   0.082307  -0.001612  -0.003496   0.002293
     18      -0.010468   0.000474   0.002516   0.011901   0.000494  -0.000475
     19      -0.005592   0.001010   0.000777   0.003458  -0.002695   0.001945
     20      -0.005846  -0.004258   0.004077   0.034190   0.026476   0.003584
     21       0.000938  -0.001382  -0.010853   0.005399  -0.090916  -0.004686
     22       0.004414   0.009792   0.124601  -0.053836   0.968652   0.072706
     23      -0.001044   0.002931   0.022189  -0.009526   0.147460   0.012829
     24       0.001653  -0.001025  -0.000832   0.064398   0.008267  -0.051806
     25      -0.000584   0.008570  -0.000102  -0.724874  -0.086870   0.663028
     26      -0.001941  -0.001162   0.000100   0.069000   0.006690  -0.071439
     27      -0.001073   0.003396   0.006933  -0.566973   0.013362  -0.616992
     28       0.003154  -0.002948  -0.003938   0.317347  -0.008828   0.334306
     29      -0.000942  -0.000722  -0.001517   0.186957  -0.005032   0.210381


-----------
IR SPECTRUM
-----------

 Mode    freq (cm**-1)   T**2         TX         TY         TZ
-------------------------------------------------------------------
   7:       204.14    0.546606  (  0.648628  -0.096387   0.341463)
   8:       360.87    0.841615  ( -0.831060  -0.264794   0.284322)
   9:       363.95    5.948129  ( -0.569390  -0.713445   2.261619)
  10:       675.50  135.778998  (  4.075284   1.268746  10.842571)
  11:       698.97   37.654649  (  5.479749   2.666078   0.720437)
  12:       899.59    4.077236  (  1.235854   0.399757   1.545993)
  13:       924.27   10.721172  ( -0.070553   2.193638  -2.429845)
  14:      1020.12   15.117055  ( -2.992332  -2.360802   0.767865)
  15:      1154.52    1.820847  (  0.089365  -1.341076   0.119904)
  16:      1191.26    2.718445  (  0.952706   0.927017   0.975416)
  17:      1231.71   18.491366  ( -2.153750   2.950184  -2.269172)
  18:      1339.59    3.754634  (  0.915579   1.166235   1.247496)
  19:      1387.41    8.613567  (  1.952795   2.177555   0.241684)
  20:      1410.63   10.959553  (  2.755619   1.183943   1.401568)
  21:      1434.82   12.792121  ( -0.823286   0.711400   3.407085)
  22:      1446.54    5.636336  ( -0.456599  -2.230697   0.672192)
  23:      2265.90    6.407823  ( -0.166797  -0.193387   2.518453)
  24:      2996.73   78.131436  (  7.175410  -2.323904   4.609164)
  25:      3091.23   30.269274  ( -1.651407   1.630028   4.988500)
  26:      3145.74   19.703821  (  2.516454   3.584288  -0.723989)
  27:      3151.14    6.424635  (  1.830032   1.752124  -0.075364)
  28:      3187.71   15.185939  (  0.417346  -3.871171   0.160600)
  29:      3280.23    3.801908  (  1.163345  -1.563456  -0.064370)

The first frequency considered to be a vibration is 7
The total number of vibrations considered is 23


--------------------------
THERMOCHEMISTRY AT 298.15K
--------------------------

Temperature         ... 298.15 K
Pressure            ... 1.00 atm
Total Mass          ... 43.09 AMU

Throughout the following assumptions are being made:
  (1) The electronic state is orbitally nondegenerate
      but the spin degeneracy is treated
  (2) There are no thermally accessible electronically excited states
  (3) Hindered rotations indicated by low frequency modes are not
      treated as such but are treated as vibrations and this may
      cause some error
  (4) All equations used are the standard statistical mechanics
      equations for an ideal gas
  (5) All vibrations are strictly harmonic

freq.     204.14  E(vib)   ...       0.35 
freq.     360.87  E(vib)   ...       0.22 
freq.     363.95  E(vib)   ...       0.22 
freq.     675.50  E(vib)   ...       0.08 
freq.     698.97  E(vib)   ...       0.07 
freq.     899.59  E(vib)   ...       0.03 
freq.     924.27  E(vib)   ...       0.03 
freq.    1020.12  E(vib)   ...       0.02 
freq.    1154.52  E(vib)   ...       0.01 
freq.    1191.26  E(vib)   ...       0.01 
freq.    1231.71  E(vib)   ...       0.01 
freq.    1339.59  E(vib)   ...       0.01 
freq.    1387.41  E(vib)   ...       0.00 
freq.    1410.63  E(vib)   ...       0.00 
freq.    1434.82  E(vib)   ...       0.00 
freq.    1446.54  E(vib)   ...       0.00 
freq.    2265.90  E(vib)   ...       0.00 
freq.    2996.73  E(vib)   ...       0.00 
freq.    3091.23  E(vib)   ...       0.00 
freq.    3145.74  E(vib)   ...       0.00 
freq.    3151.14  E(vib)   ...       0.00 
freq.    3187.71  E(vib)   ...       0.00 
freq.    3280.23  E(vib)   ...       0.00 

------------
INNER ENERGY
------------

The inner energy is: U= E(el) + E(ZPE) + E(vib) + E(rot) + E(trans)
    E(el)   - is the total energy from the electronic structure calculation
              = E(kin-el) + E(nuc-el) + E(el-el) + E(nuc-nuc)
    E(ZPE)  - the the zero temperature vibrational energy from the frequency calculation
    E(vib)  - the the finite temperature correction to E(ZPE) due to population
              of excited vibrational states
    E(rot)  - is the rotational thermal energy
    E(trans)- is the translational thermal energy

Summary of contributions to the inner energy U:
Electronic energy                ...   -118.17884377 Eh
Zero point energy                ...      0.08397908 Eh      52.70 kcal/mol
Thermal vibrational correction   ...      0.00171275 Eh       1.07 kcal/mol
Thermal rotational correction    ...      0.00141627 Eh       0.89 kcal/mol
Thermal translational correction ...      0.00141627 Eh       0.89 kcal/mol
-----------------------------------------------------------------------
Total thermal energy                   -118.09031940 Eh


Summary of corrections to the electronic energy:
(perhaps to be used in another calculation)
Total thermal correction                  0.00454530 Eh       2.85 kcal/mol
Non-thermal (ZPE) correction              0.08397908 Eh      52.70 kcal/mol
-----------------------------------------------------------------------
Total correction                          0.08852438 Eh      55.55 kcal/mol


--------
ENTHALPY
--------

The enthalpy is H = U + kB*T
                kB is Boltzmann's constant
Total free energy                 ...   -118.09031940 Eh 
Thermal Enthalpy correction       ...      0.00094421 Eh       0.59 kcal/mol
-----------------------------------------------------------------------
Total Enthalpy                    ...   -118.08937519 Eh


Note: Only C1 symmetry has been detected, increase convergence thresholds 
      if your molecule has a higher symmetry. Symmetry factor of 1.0 is   
      used for the rotational entropy correction. 
 

Note: Rotational entropy computed according to Herzberg 
Infrared and Raman Spectra, Chapter V,1, Van Nostrand Reinhold, 1945 
Point Group:  C1, Symmetry Number:   1  
Rotational constants in cm-1:     1.263176     0.284838     0.252898 

Vibrational entropy computed according to the QRRHO of S. Grimme
Chem.Eur.J. 2012 18 9955


-------
ENTROPY
-------

The entropy contributions are T*S = T*(S(el)+S(vib)+S(rot)+S(trans))
     S(el)   - electronic entropy
     S(vib)  - vibrational entropy
     S(rot)  - rotational entropy
     S(trans)- translational entropy
The entropies will be listed as mutliplied by the temperature to get
units of energy

Electronic entropy                ...      0.00065446 Eh      0.41 kcal/mol
Vibrational entropy               ...      0.00263403 Eh      1.65 kcal/mol
Rotational entropy                ...      0.01064240 Eh      6.68 kcal/mol
Translational entropy             ...      0.01767888 Eh     11.09 kcal/mol
-----------------------------------------------------------------------
Final entropy term                ...      0.03160976 Eh     19.84 kcal/mol

In case the symmetry of your molecule has not been determined correctly
or in case you have a reason to use a different symmetry number we print 
out the resulting rotational entropy values for sn=1,12 :
 --------------------------------------------------------
|  sn= 1 | S(rot)=       0.01064240 Eh      6.68 kcal/mol|
|  sn= 2 | S(rot)=       0.00998794 Eh      6.27 kcal/mol|
|  sn= 3 | S(rot)=       0.00960511 Eh      6.03 kcal/mol|
|  sn= 4 | S(rot)=       0.00933349 Eh      5.86 kcal/mol|
|  sn= 5 | S(rot)=       0.00912280 Eh      5.72 kcal/mol|
|  sn= 6 | S(rot)=       0.00895065 Eh      5.62 kcal/mol|
|  sn= 7 | S(rot)=       0.00880511 Eh      5.53 kcal/mol|
|  sn= 8 | S(rot)=       0.00867903 Eh      5.45 kcal/mol|
|  sn= 9 | S(rot)=       0.00856782 Eh      5.38 kcal/mol|
|  sn=10 | S(rot)=       0.00846834 Eh      5.31 kcal/mol|
|  sn=11 | S(rot)=       0.00837835 Eh      5.26 kcal/mol|
|  sn=12 | S(rot)=       0.00829620 Eh      5.21 kcal/mol|
 --------------------------------------------------------


-------------------
GIBBS FREE ENERGY
-------------------

The Gibbs free energy is G = H - T*S

Total enthalpy                    ...   -118.08937519 Eh 
Total entropy correction          ...     -0.03160976 Eh    -19.84 kcal/mol
-----------------------------------------------------------------------
Final Gibbs free energy         ...   -118.12098495 Eh

For completeness - the Gibbs free energy minus the electronic energy
G-E(el)                           ...      0.05785882 Eh     36.31 kcal/mol

[1589383214.016517] [ty2019:19571:0]            sys.c:618  UCX  ERROR shmget(size=2097152 flags=0xfb0) for mm_recv_desc failed: Operation not permitted, please check shared memory limits by 'ipcs -l'
[1589383214.019935] [ty2019:19573:0]            sys.c:618  UCX  ERROR shmget(size=2097152 flags=0xfb0) for mm_recv_desc failed: Operation not permitted, please check shared memory limits by 'ipcs -l'
[1589383214.020888] [ty2019:19574:0]            sys.c:618  UCX  ERROR shmget(size=2097152 flags=0xfb0) for mm_recv_desc failed: Operation not permitted, please check shared memory limits by 'ipcs -l'
[1589383214.022358] [ty2019:19572:0]            sys.c:618  UCX  ERROR shmget(size=2097152 flags=0xfb0) for mm_recv_desc failed: Operation not permitted, please check shared memory limits by 'ipcs -l'
[1589383214.028424] [ty2019:19571:0]            sys.c:618  UCX  ERROR shmget(size=2097152 flags=0xb80) for ucp_am_bufs failed: Operation not permitted, please check shared memory limits by 'ipcs -l'
[1589383214.029071] [ty2019:19572:0]            sys.c:618  UCX  ERROR shmget(size=2097152 flags=0xb80) for ucp_am_bufs failed: Operation not permitted, please check shared memory limits by 'ipcs -l'
[1589383214.036939] [ty2019:19574:0]            sys.c:618  UCX  ERROR shmget(size=2097152 flags=0xb80) for ucp_am_bufs failed: Operation not permitted, please check shared memory limits by 'ipcs -l'
[1589383214.036934] [ty2019:19573:0]            sys.c:618  UCX  ERROR shmget(size=2097152 flags=0xb80) for ucp_am_bufs failed: Operation not permitted, please check shared memory limits by 'ipcs -l'

Timings for individual modules:

Sum of individual times         ...      168.292 sec (=   2.805 min)
GTO integral calculation        ...       14.196 sec (=   0.237 min)   8.4 %
SCF iterations                  ...       83.231 sec (=   1.387 min)  49.5 %
SCF Gradient evaluation         ...       25.099 sec (=   0.418 min)  14.9 %
Geometry relaxation             ...        0.853 sec (=   0.014 min)   0.5 %
Analytical frequency calculation...       44.914 sec (=   0.749 min)  26.7 %
                             ****ORCA TERMINATED NORMALLY****
TOTAL RUN TIME: 0 days 0 hours 2 minutes 51 seconds 385 msec
