      -----------------------------------------------------------      
     |                   =====================                   |     
     |                           x T B                           |     
     |                   =====================                   |     
     |                         S. Grimme                         |     
     |          Mulliken Center for Theoretical Chemistry        |     
     |                    University of Bonn                     |     
      -----------------------------------------------------------      

   * xtb version 6.2.2 (655bc02) compiled by 'ehlert@majestix' on 2019-12-09

   This program is distributed in the hope that it will be useful,
   but WITHOUT ANY WARRANTY; without even the implied warranty of
   MERCHANTABILITY or FITNESS FOR A PARTICULAR PURPOSE.
   
   FOR NON-COMMERCIAL, ACADEMIA USE ONLY.
   
   Cite this work as:
   * S. Grimme, C. Bannwarth, P. Shushkov, J. Chem. Theory Comput., 2017,
     13, 1989-2009. DOI: 10.1021/acs.jctc.7b00118
   * C. Bannwarth, S. Ehlert and S. Grimme., J. Chem. Theory Comput., 2019,
     15, 1652-1671. DOI: 10.1021/acs.jctc.8b01176
   * P. Pracht, E. Caldeweyher, S. Ehlert, S. Grimme, ChemRxiv, 2019, preprint.
     DOI: 10.26434/chemrxiv.8326202.v1
   
   for DFT-D4:
   * E. Caldeweyher, C. Bannwarth and S. Grimme, J. Chem. Phys., 2017,
     147, 034112. DOI: 10.1063/1.4993215
   * E. Caldeweyher, S. Ehlert, A. Hansen, H. Neugebauer, S. Spicher,
     C. Bannwarth and S. Grimme, J. Chem. Phys., 2019, 150, 154122.
     DOI: 10.1063/1.5090222
   
   for sTDA-xTB:
   * S. Grimme and C. Bannwarth, J. Chem. Phys., 2016, 145, 054103.
     DOI: 10.1063/1.4959605
   
   in the mass-spec context:
   * V. Asgeirsson, C. Bauer and S. Grimme, Chem. Sci., 2017, 8, 4879.
     DOI: 10.1039/c7sc00601b
   
   for metadynamics refer to:
   * S. Grimme, J. Chem. Theory Comput., 2019, 155, 2847-2862
     DOI: 10.1021/acs.jctc.9b00143
   
   with help from (in alphabetical order)
   C. Bannwarth, F. Bohle, G. Brandenburg, E. Caldeweyher, M. Checinski,
   S. Dohm, S. Ehlert, S. Ehrlich, F. März, H. Neugebauer, J. Pisarek,
   P. Pracht, P. Shushkov, and S. Spicher.
   
 * started run on 2020/04/17 at 11:23:41.943     

           -------------------------------------------------
          |                Calculation Setup                |
           -------------------------------------------------

          program call               : /u/fd/ball4935/opt/xtb_6.2.2/bin/xtb water_conf0_opt_xtb.xyz --chrg 0 --opt
          hostname                   : comp0811
          coordinate file            : water_conf0_opt_xtb.xyz
          omp threads                :                    16
          number of atoms            :                     3
          number of electrons        :                     8
          charge                     :                     0
          spin                       :                   0.0
          first test random number   :      0.80151319975435

           ------------------------------------------------- 
          |                 G F N 2 - x T B                 |
          | Geometry, Frequencies, Noncovalent interactions |
          |            JCTC 2019 parametrisation            |
           ------------------------------------------------- 
             k(s)              :                1.8500
             k(p)              :                2.2300
             k(d)              :                2.2300
             k(f)              :                2.0000
             kEN (H0ij)        :               -2.0000
             D4 a1             :                0.5200
             D4 a2             :                5.0000
             D4 s6             :                1.0000
             D4 s8             :                2.7000
             D4 s9             :                5.0000
             alphaj            :                2.0000

  Z AO/shell   Hii/eV     exponent
  1     Wed Apr 25 08:07:45 CEST 2018   EN: 2.200 GM2: 0.406  GM3: 0.0800  RAES: 1.40
     1s    -10.707211    1.230000
  8     Wed Apr 25 08:07:45 CEST 2018   EN: 3.440 GM2: 0.452  GM3:-0.0517  RAES: 1.80
     2s    -20.229985    2.439742
     2p    -15.503117    2.137023

           ------------------------------------------------- 
          |        Self-Consistent Charge Iterations        |
           ------------------------------------------------- 

          ...................................................
          :                      SETUP                      :
          :.................................................:
          :  # basis functions                   6          :
          :  # atomic orbitals                   6          :
          :  # shells                            4          :
          :  # electrons                         8          :
          :  max. iterations                   250          :
          :  Hamiltonian                  GFN2-xTB          :
          :  restarted?                      false          :
          :  GBSA solvation                  false          :
          :  PC potential                    false          :
          :  electronic temp.          300.0000000     K    :
          :  accuracy                    1.0000000          :
          :  -> integral cutoff          0.2500000E+02      :
          :  -> integral neglect         0.1000000E-07      :
          :  -> SCF convergence          0.1000000E-05 Eh   :
          :  -> wf. convergence          0.1000000E-03 e    :
          :  Broyden damping             0.4000000          :
          ...................................................

 iter      E             dE          RMSdq      gap      omega  full diag
   1     -5.0906990 -0.509070E+01  0.410E+00   13.40       0.0  T
   2     -5.0925799 -0.188089E-02  0.230E+00   13.06       1.0  T
   3     -5.0928477 -0.267836E-03  0.438E-01   12.82       1.0  T
   4     -5.0929167 -0.689876E-04  0.870E-02   12.96       1.0  T
   5     -5.0929183 -0.162497E-05  0.642E-02   12.92       1.0  T
   6     -5.0929214 -0.305714E-05  0.924E-04   12.94      62.5  T
   7     -5.0929214  0.798849E-09  0.111E-03   12.94      52.1  T
   8     -5.0929214 -0.879482E-09  0.301E-05   12.94    1921.0  T
   9     -5.0929214 -0.444089E-12  0.159E-05   12.94    3625.2  T

   *** convergence criteria satisfied after 9 iterations ***

         #    Occupation            Energy/Eh            Energy/eV
      -------------------------------------------------------------
         1        2.0000           -0.6753122             -18.3762
         2        2.0000           -0.5639118             -15.3448
         3        2.0000           -0.5114394             -13.9170
         4        2.0000           -0.4449608             -12.1080 (HOMO)
         5                          0.0305264               0.8307 (LUMO)
         6                          0.1787510               4.8641
      -------------------------------------------------------------
                  HL-Gap            0.4754872 Eh           12.9387 eV
             Fermi-level           -0.2072172 Eh           -5.6387 eV

 SCC (total)                   0 d,  0 h,  0 min,  0.061 sec
 SCC setup                      ...        0 min,  0.000 sec (  0.519%)
 Dispersion                     ...        0 min,  0.000 sec (  0.137%)
 integral evaluation            ...        0 min,  0.000 sec (  0.525%)
 zeroth order Hamiltonian       ...        0 min,  0.000 sec (  0.108%)
 iterations                     ...        0 min,  0.058 sec ( 96.610%)
 molecular gradient             ...        0 min,  0.001 sec (  1.058%)
 printout                       ...        0 min,  0.000 sec (  0.625%)

         :::::::::::::::::::::::::::::::::::::::::::::::::::::
         ::                     SUMMARY                     ::
         :::::::::::::::::::::::::::::::::::::::::::::::::::::
         :: total energy              -5.068480469334 Eh    ::
         :: gradient norm              0.052962319112 Eh/a0 ::
         :: HOMO-LUMO gap             12.938664657797 eV    ::
         ::.................................................::
         :: SCC energy                -5.092921374246 Eh    ::
         :: -> isotropic ES            0.031409816377 Eh    ::
         :: -> anisotropic ES          0.000768053725 Eh    ::
         :: -> anisotropic XC         -0.000426676507 Eh    ::
         :: -> dispersion             -0.000142041412 Eh    ::
         :: repulsion energy           0.024440904954 Eh    ::
         :: add. restraining           0.000000000000 Eh    ::
         :::::::::::::::::::::::::::::::::::::::::::::::::::::

      ----------------------------------------------------------- 
     |                   =====================                   |
     |                        A N C O P T                        |
     |                   =====================                   |
     |               Approximate Normal Coordinate               |
     |                Rational Function Optimizer                |
      ----------------------------------------------------------- 

          ...................................................
          :                      SETUP                      :
          :.................................................:
          :   optimization level            normal          :
          :   max. optcycles                   200          :
          :   ANC micro-cycles                  20          :
          :   degrees of freedom                 3          :
          :.................................................:
          :   RF solver                   davidson          :
          :   write xtbopt.log                true          :
          :   linear?                        false          :
          :   energy convergence         0.5000000E-05 Eh   :
          :   grad. convergence          0.1000000E-02 Eh/α :
          :   maximium RF displ.         1.0000000          :
          :   Hlow (freq-cutoff)         0.1000000E-01      :
          :   Hmax (freq-cutoff)         5.0000000          :
          :   S6 in model hess.         20.0000000          :
          ...................................................

generating ANC from model Hessian ...
Using Lindh-Hessian (1995)
 Shifting diagonal of input Hessian by   0.000000000000000E+000
 Lowest  eigenvalues of input Hessian
   -0.000000   -0.000000   -0.000000    0.000000    0.000000    0.000000
    0.234704    1.076494    1.284033
 Highest eigenvalues
    0.000000    0.000000    0.000000    0.234704    1.076494    1.284033
 

........................................................................
.............................. CYCLE    1 ..............................
........................................................................
   1     -5.0929214 -0.509292E+01  0.146E-07   12.94       0.0  T
   2     -5.0929214  0.266454E-14  0.879E-08   12.94  100000.0  T
   3     -5.0929214 -0.355271E-14  0.280E-08   12.94  100000.0  T
     SCC iter.                  ...        0 min,  0.001 sec
     gradient                   ...        0 min,  0.000 sec
 * total energy  :    -5.0684805 Eh     change        0.7762591E-10 Eh
   gradient norm :     0.0529622 Eh/α   predicted     0.0000000E+00 (-100.00%)
   displ. norm   :     0.0615508 α      lambda       -0.2867131E-02
   maximum displ.:     0.0483026 α      in ANC's #2, #1, #3, ...

........................................................................
.............................. CYCLE    2 ..............................
........................................................................
   1     -5.1016709 -0.510167E+01  0.264E-01   14.10       0.0  T
   2     -5.1017146 -0.436771E-04  0.124E-01   14.04       1.0  T
   3     -5.1017212 -0.653949E-05  0.523E-02   14.02       1.1  T
   4     -5.1017217 -0.547417E-06  0.926E-03   14.03       6.2  T
   5     -5.1017217 -0.298931E-09  0.612E-04   14.03      94.4  T
   6     -5.1017217 -0.188424E-09  0.127E-04   14.03     455.0  T
     SCC iter.                  ...        0 min,  0.001 sec
     gradient                   ...        0 min,  0.000 sec
 * total energy  :    -5.0703644 Eh     change       -0.1883942E-02 Eh
   gradient norm :     0.0166602 Eh/α   predicted    -0.1438998E-02 ( -23.62%)
   displ. norm   :     0.0226977 α      lambda       -0.3743106E-03
   maximum displ.:     0.0223061 α      in ANC's #2, #1, #3, ...

........................................................................
.............................. CYCLE    3 ..............................
........................................................................
   1     -5.1052901 -0.510529E+01  0.140E-01   14.51       0.0  T
   2     -5.1052998 -0.962476E-05  0.679E-02   14.48       1.0  T
   3     -5.1053012 -0.138334E-05  0.245E-02   14.47       2.4  T
   4     -5.1053012 -0.857289E-07  0.388E-03   14.48      14.9  T
   5     -5.1053012 -0.367943E-09  0.233E-04   14.48     247.5  T
   6     -5.1053012 -0.114149E-10  0.577E-05   14.48     999.8  T
     SCC iter.                  ...        0 min,  0.001 sec
     gradient                   ...        0 min,  0.000 sec
 * total energy  :    -5.0705351 Eh     change       -0.1706560E-03 Eh
   gradient norm :     0.0022335 Eh/α   predicted    -0.1872507E-03 (   9.72%)
   displ. norm   :     0.0065709 α      lambda       -0.1288171E-04
   maximum displ.:     0.0064398 α      in ANC's #1, #2, #3, ...

........................................................................
.............................. CYCLE    4 ..............................
........................................................................
   1     -5.1049249 -0.510492E+01  0.166E-02   14.41       0.0  T
   2     -5.1049249 -0.216427E-07  0.102E-02   14.41       5.6  T
   3     -5.1049249 -0.782145E-08  0.151E-03   14.41      38.2  T
   4     -5.1049249 -0.679988E-09  0.474E-04   14.41     121.7  T
   5     -5.1049249 -0.904787E-11  0.210E-05   14.41    2751.5  T
     SCC iter.                  ...        0 min,  0.000 sec
     gradient                   ...        0 min,  0.000 sec
 * total energy  :    -5.0705432 Eh     change       -0.8169710E-05 Eh
   gradient norm :     0.0006150 Eh/α   predicted    -0.6442023E-05 ( -21.15%)
   displ. norm   :     0.0056290 α      lambda       -0.2244440E-05
   maximum displ.:     0.0055793 α      in ANC's #1, #2, #3, ...

........................................................................
.............................. CYCLE    5 ..............................
........................................................................
   1     -5.1048752 -0.510488E+01  0.210E-02   14.38       0.0  T
   2     -5.1048753 -0.279968E-07  0.123E-02   14.38       4.7  T
   3     -5.1048753 -0.293108E-08  0.162E-03   14.38      35.6  T
   4     -5.1048753 -0.972545E-09  0.162E-04   14.38     356.5  T
   5     -5.1048753 -0.100897E-11  0.940E-06   14.38    6141.2  T
     SCC iter.                  ...        0 min,  0.000 sec
     gradient                   ...        0 min,  0.000 sec
 * total energy  :    -5.0705442 Eh     change       -0.1009960E-05 Eh
   gradient norm :     0.0002687 Eh/α   predicted    -0.1122828E-05 (  11.18%)
   displ. norm   :     0.0016222 α      lambda       -0.2751097E-06
   maximum displ.:     0.0016216 α      in ANC's #1, #3, #2, ...

   *** GEOMETRY OPTIMIZATION CONVERGED AFTER 5 ITERATIONS ***

------------------------------------------------------------------------
 total energy gain   :        -0.0020638 Eh       -1.2950 kcal/mol
 total RMSD          :         0.0440584 a0        0.0233 Å
 total power (kW/mol):        -1.0836894 (step) -477.0991 (real)
------------------------------------------------------------------------

 ANCopt (total)                0 d,  0 h,  0 min,  0.011 sec
 optimizer setup                ...        0 min,  0.000 sec (  2.514%)
 model hessian                  ...        0 min,  0.000 sec (  2.316%)
 ANC generation                 ...        0 min,  0.000 sec (  1.490%)
 coordinate transformation      ...        0 min,  0.000 sec (  2.209%)
 single point calculation       ...        0 min,  0.008 sec ( 68.281%)
 optimization log               ...        0 min,  0.000 sec (  3.848%)
 hessian update                 ...        0 min,  0.000 sec (  1.672%)
 rational function              ...        0 min,  0.001 sec (  5.961%)

================
 final structure:
================
$coord
   -0.00189240752380    0.71622503197206   -0.00000000000000      O 
    1.46115446976986   -0.35432402785437    0.00000000000000      H 
   -1.45926206224606   -0.36190100411769    0.00000000000000      H 
$end
 
 Bond Distances (Angstroems)
 ---------------------------
O1-H2=0.9593         O1-H3=0.9593         H2-O1=0.9593         H3-O1=0.9593         
 O  H  Rav=0.9593 sigma=0.0000  Rmin=0.9593  Rmax=0.9593     2
 
 selected bond angles (degree)
 --------------------
H3-O1-H2=107.31                
 
 selected dihedral angles (degree)
 ---------------------------------

           -------------------------------------------------
          |                Final Singlepoint                |
           -------------------------------------------------

          ...................................................
          :                      SETUP                      :
          :.................................................:
          :  # basis functions                   6          :
          :  # atomic orbitals                   6          :
          :  # shells                            4          :
          :  # electrons                         8          :
          :  max. iterations                   250          :
          :  Hamiltonian                  GFN2-xTB          :
          :  restarted?                      false          :
          :  GBSA solvation                  false          :
          :  PC potential                    false          :
          :  electronic temp.          300.0000000     K    :
          :  accuracy                    1.0000000          :
          :  -> integral cutoff          0.2500000E+02      :
          :  -> integral neglect         0.1000000E-07      :
          :  -> SCF convergence          0.1000000E-05 Eh   :
          :  -> wf. convergence          0.1000000E-03 e    :
          :  Broyden damping             0.4000000          :
          ...................................................

 iter      E             dE          RMSdq      gap      omega  full diag
   1     -5.1048753 -0.510488E+01  0.320E-06   14.38       0.0  T
   2     -5.1048753 -0.444089E-14  0.183E-06   14.38   31499.0  T
   3     -5.1048753 -0.888178E-15  0.596E-07   14.38   96860.4  T

   *** convergence criteria satisfied after 3 iterations ***

         #    Occupation            Energy/Eh            Energy/eV
      -------------------------------------------------------------
         1        2.0000           -0.6800228             -18.5044
         2        2.0000           -0.5683555             -15.4657
         3        2.0000           -0.5107431             -13.8980
         4        2.0000           -0.4463448             -12.1457 (HOMO)
         5                          0.0820773               2.2334 (LUMO)
         6                          0.2515631               6.8454
      -------------------------------------------------------------
                  HL-Gap            0.5284221 Eh           14.3791 eV
             Fermi-level           -0.1821337 Eh           -4.9561 eV

 SCC (total)                   0 d,  0 h,  0 min,  0.002 sec
 SCC setup                      ...        0 min,  0.000 sec ( 13.465%)
 Dispersion                     ...        0 min,  0.000 sec (  2.047%)
 integral evaluation            ...        0 min,  0.000 sec (  8.583%)
 zeroth order Hamiltonian       ...        0 min,  0.000 sec (  2.646%)
 iterations                     ...        0 min,  0.000 sec ( 20.094%)
 molecular gradient             ...        0 min,  0.000 sec ( 21.543%)
 printout                       ...        0 min,  0.000 sec ( 15.654%)

         :::::::::::::::::::::::::::::::::::::::::::::::::::::
         ::                     SUMMARY                     ::
         :::::::::::::::::::::::::::::::::::::::::::::::::::::
         :: total energy              -5.070544246746 Eh    ::
         :: gradient norm              0.000268654011 Eh/a0 ::
         :: HOMO-LUMO gap             14.379096168787 eV    ::
         ::.................................................::
         :: SCC energy                -5.104875276608 Eh    ::
         :: -> isotropic ES            0.031462217885 Eh    ::
         :: -> anisotropic ES          0.000389807944 Eh    ::
         :: -> anisotropic XC         -0.000882287277 Eh    ::
         :: -> dispersion             -0.000141080825 Eh    ::
         :: repulsion energy           0.034331029836 Eh    ::
         :: add. restraining           0.000000000000 Eh    ::
         :::::::::::::::::::::::::::::::::::::::::::::::::::::

           -------------------------------------------------
          |                Property Printout                |
           -------------------------------------------------

    * Orbital Energies and Occupations

         #    Occupation            Energy/Eh            Energy/eV
      -------------------------------------------------------------
         1        2.0000           -0.6800228             -18.5044
         2        2.0000           -0.5683555             -15.4657
         3        2.0000           -0.5107431             -13.8980
         4        2.0000           -0.4463448             -12.1457 (HOMO)
         5                          0.0820773               2.2334 (LUMO)
         6                          0.2515631               6.8454
      -------------------------------------------------------------
                  HL-Gap            0.5284221 Eh           14.3791 eV
             Fermi-level           -0.1821337 Eh           -4.9561 eV

     #   Z        covCN         q      C6AA      α(0)
     1   8 O      1.611    -0.565    24.358     6.661
     2   1 H      0.805     0.282     0.776     1.384
     3   1 H      0.805     0.282     0.776     1.384

 Mol. C6AA /au·bohr⁶  :         44.535524
 Mol. C8AA /au·bohr⁸  :        795.745331
 Mol. α(0) /au        :          9.429136


Wiberg/Mayer (AO) data.
largest (>0.10) Wiberg bond orders for each atom
          total WBO             WBO to atom ...
     1  O   1.840        H    2 0.920    H    3 0.920
     2  H   0.920        O    1 0.920
     3  H   0.920        O    1 0.920

molecular dipole:
                 x           y           z       tot (Debye)
 q only:        0.002      -0.607       0.000
   full:        0.002      -0.872      -0.000       2.215
molecular quadrupole (traceless):
                xx          xy          yy          xz          yz          zz
 q only:        1.313       0.006      -0.819       0.000      -0.000      -0.493
  q+dip:        1.750       0.008      -1.177       0.000      -0.000      -0.573
   full:        1.954       0.008      -1.122       0.000      -0.000      -0.832

           -------------------------------------------------
          |                Geometry Summary                 |
           -------------------------------------------------

      molecular mass/u    :       18.0152864
   center of mass at/Å    :       -0.0008333       0.3153941       0.0000000
  moments of inertia/u·Å² :        0.5786481E+00   0.1203649E+01   0.1782297E+01
rotational constants/cm⁻¹ :        0.2913279E+02   0.1400544E+02   0.9458374E+01

 * 2 selected distances

     #   Z        #   Z                                     value/Å
     1   8 O      2   1 H                                 0.9593418 (max)
     1   8 O      3   1 H                                 0.9592981 (min)

 * 1 distinct bonds (by element types)

   Z      Z             #   av. dist./Å        max./Å        min./Å
   1 H    8 O           2     0.9593200     0.9593418     0.9592981


optimized geometry written to: xtbopt.xyz


           -------------------------------------------------
          | TOTAL ENERGY               -5.070544246746 Eh   |
          | GRADIENT NORM               0.000268654011 Eh/α |
          | HOMO-LUMO GAP              14.379096168787 eV   |
           -------------------------------------------------

------------------------------------------------------------------------
 * finished run on 2020/04/17 at 11:23:42.038     
------------------------------------------------------------------------
 total:
 * wall-time:     0 d,  0 h,  0 min,  0.095 sec
 *  cpu-time:     0 d,  0 h,  0 min,  1.351 sec
 * ratio c/w:    14.167 speedup
 SCF:
 * wall-time:     0 d,  0 h,  0 min,  0.061 sec
 *  cpu-time:     0 d,  0 h,  0 min,  0.917 sec
 * ratio c/w:    15.019 speedup
 ANC optimizer:
 * wall-time:     0 d,  0 h,  0 min,  0.014 sec
 *  cpu-time:     0 d,  0 h,  0 min,  0.222 sec
 * ratio c/w:    15.839 speedup

