
                                 *****************
                                 * O   R   C   A *
                                 *****************

           --- An Ab Initio, DFT and Semiempirical electronic structure package ---

                  #######################################################
                  #                        -***-                        #
                  #          Department of theory and spectroscopy      #
                  #               Directorship: Frank Neese             #
                  #        Max Planck Institute fuer Kohlenforschung    #
                  #                Kaiser Wilhelm Platz 1               #
                  #                 D-45470 Muelheim/Ruhr               #
                  #                      Germany                        #
                  #                                                     #
                  #                  All rights reserved                #
                  #                        -***-                        #
                  #######################################################


                         Program Version 4.1.1  - RELEASE  -


 With contributions from (in alphabetic order):
   Daniel Aravena         : Magnetic Properties
   Michael Atanasov       : Ab Initio Ligand Field Theory
   Alexander A. Auer      : GIAO ZORA
   Ute Becker             : Parallelization
   Giovanni Bistoni       : ED, Open-shell LED
   Martin Brehm           : Molecular dynamics
   Dmytro Bykov           : SCF Hessian
   Vijay G. Chilkuri      : MRCI spin determinant printing
   Dipayan Datta          : RHF DLPNO-CCSD density
   Achintya Kumar Dutta   : EOM-CC, STEOM-CC
   Dmitry Ganyushin       : Spin-Orbit,Spin-Spin,Magnetic field MRCI
   Miquel Garcia          : C-PCM Hessian
   Yang Guo               : DLPNO-NEVPT2, CIM, IAO-localization
   Andreas Hansen         : Spin unrestricted coupled pair/coupled cluster methods
   Benjamin Helmich-Paris : CASSCF linear response (MC-RPA)
   Lee Huntington         : MR-EOM, pCC
   Robert Izsak           : Overlap fitted RIJCOSX, COSX-SCS-MP3, EOM
   Christian Kollmar      : KDIIS, OOCD, Brueckner-CCSD(T), CCSD density
   Simone Kossmann        : Meta GGA functionals, TD-DFT gradient, OOMP2, MP2 Hessian
   Martin Krupicka        : AUTO-CI
   Lucas Lang             : DCDCAS
   Dagmar Lenk            : GEPOL surface, SMD
   Dimitrios Liakos       : Extrapolation schemes; parallel MDCI
   Dimitrios Manganas     : ROCIS; embedding schemes
   Dimitrios Pantazis     : SARC Basis sets
   Taras Petrenko         : DFT Hessian,TD-DFT gradient, ASA, ECA, R-Raman, ABS, FL, XAS/XES, NRVS
   Peter Pinski           : DLPNO-MP2, DLPNO-MP2 Gradient
   Christoph Reimann      : Effective Core Potentials
   Marius Retegan         : Local ZFS, SOC
   Christoph Riplinger    : Optimizer, TS searches, QM/MM, DLPNO-CCSD(T), (RO)-DLPNO pert. Triples
   Tobias Risthaus        : Range-separated hybrids, TD-DFT gradient, RPA, STAB
   Michael Roemelt        : Restricted open shell CIS
   Masaaki Saitow         : Open-shell DLPNO
   Barbara Sandhoefer     : DKH picture change effects
   Avijit Sen             : IP-ROCIS
   Kantharuban Sivalingam : CASSCF convergence, NEVPT2, FIC-MRCI
   Bernardo de Souza      : ESD, SOC TD-DFT
   Georgi Stoychev        : AutoAux, RI-MP2 NMR
   Willem Van den Heuvel  : Paramagnetic NMR
   Boris Wezisla          : Elementary symmetry handling
   Frank Wennmohs         : Technical directorship


 We gratefully acknowledge several colleagues who have allowed us to
 interface, adapt or use parts of their codes:
   Stefan Grimme, W. Hujo, H. Kruse,             : VdW corrections, initial TS optimization,
                  C. Bannwarth                     DFT functionals, gCP, sTDA/sTD-DF
   Ed Valeev                                     : LibInt (2-el integral package), F12 methods
   Garnet Chan, S. Sharma, J. Yang, R. Olivares  : DMRG
   Ulf Ekstrom                                   : XCFun DFT Library
   Mihaly Kallay                                 : mrcc  (arbitrary order and MRCC methods)
   Andreas Klamt, Michael Diedenhofen            : otool_cosmo (COSMO solvation model)
   Jiri Pittner, Ondrej Demel                    : Mk-CCSD
   Frank Weinhold                                : gennbo (NPA and NBO analysis)
   Christopher J. Cramer and Donald G. Truhlar   : smd solvation model
   Lars Goerigk                                  : TD-DFT with DH, B97 family of functionals
   V. Asgeirsson, H. Jonsson                     : NEB implementation
   FAccTs GmbH                                   : IRC, NEB, NEB-TS, Multilevel


 Your calculation uses the libint2 library for the computation of 2-el integrals
 For citations please refer to: http://libint.valeyev.net

 This ORCA versions uses:
   CBLAS   interface :  Fast vector & matrix operations
   LAPACKE interface :  Fast linear algebra routines
   SCALAPACK package :  Parallel linear algebra routines


Your calculation utilizes the atom-pairwise dispersion correction
with the Becke-Johnson damping scheme (D3BJ)
Cite in your paper:
S.Grimme, S.Ehrlich, L.Goerigk, J Comput Chem, (2011), 32, 1456–1465 
S.Grimme, J.Antony, S.Ehrlich and H.Krieg, J.Chem.Phys., 132, (2010), 154104 
   

Your calculation utilizes the SMD solvation module
Please cite in your paper:
A.V. Marenich, C.J. Cramer, D.G. Truhlar J. Phys. Chem. B, 113, (2009), 6378 

----- Orbital basis set information -----
Your calculation utilizes the basis: def2-SVP
   F. Weigend and R. Ahlrichs, Phys. Chem. Chem. Phys. 7, 3297 (2005).

----- AuxJ basis set information -----
Your calculation utilizes the auxiliary basis: def2/J
   F. Weigend, Phys. Chem. Chem. Phys. 8, 1057 (2006).

================================================================================
                                        WARNINGS
                       Please study these warnings very carefully!
================================================================================


WARNING: Geometry Optimization
  ===> : Switching off AutoStart
         For restart on a previous wavefunction, please use MOREAD

INFO   : the flag for use of LIBINT has been found!

================================================================================
                                       INPUT FILE
================================================================================
NAME = default_orca_scan.inp
|  1> ! LooseOpt PBE RI D3BJ def2-SVP def2/J PAL8
|  2> %cpcm
|  3>  smd true
|  4>  SMDsolvent "water"
|  5>  end
|  6> %geom Scan
|  7>     B 1 3 = 1.483, 2.983, 10
|  8>     end
|  9> end
| 10> %scf 
| 11> maxiter 250 
| 12> end
| 13> % maxcore 4000
| 14> *xyz -1 1
| 15> C	-0.8347	-1.0596	0.1179
| 16> C	-0.0834	0.2292	0.3232
| 17> O	0.0409	0.4336	1.7063
| 18> C	-0.8496	1.3646	-0.2465
| 19> N	-1.4609	2.2372	-0.6972
| 20> C	1.3117	0.1984	-0.2332
| 21> H	-1.4523	-1.2783	1.0273
| 22> H	-0.1827	-1.9077	-0.1653
| 23> H	-1.5729	-0.8721	-0.7102
| 24> H	2.0889	0.1373	0.5593
| 25> H	1.5135	1.159	-0.7696
| 26> H	1.4813	-0.6416	-0.9121
| 27> *
| 28> 
| 29>                          ****END OF INPUT****
================================================================================

                       ******************************
                       *    Relaxed Surface Scan    *
                       ******************************

                      Bond (  3,   1):   range=   1.48300000 ..   2.98300000  steps =   10

There is 1 parameter to be scanned.
There will be   10 constrained geometry optimizations.


         *************************************************************
         *               RELAXED SURFACE SCAN STEP   1               *
         *                                                           *
         *                 Bond (  3,   1)  :   1.48300000           *
         *************************************************************

Geometry optimization settings:
Update method            Update   .... BFGS
Choice of coordinates    CoordSys .... Z-matrix Internals
Initial Hessian          InHess   .... Almoef's Model

Convergence Tolerances:
Energy Change            TolE     ....  3.0000e-05 Eh
Max. Gradient            TolMAXG  ....  2.0000e-03 Eh/bohr
RMS Gradient             TolRMSG  ....  5.0000e-04 Eh/bohr
Max. Displacement        TolMAXD  ....  1.0000e-02 bohr
RMS Displacement         TolRMSD  ....  7.0000e-03 bohr

------------------------------------------------------------------------------
                        ORCA OPTIMIZATION COORDINATE SETUP
------------------------------------------------------------------------------

The optimization will be done in new redundant internal coordinates
Making redundant internal coordinates   ...  (new redundants) done
Evaluating the initial hessian          ...  (Almloef) done
Evaluating the coordinates              ...  done
Calculating the B-matrix                .... done
Calculating the G-matrix                .... done
Diagonalizing the G-matrix              .... done
Imposing constraints:
 Iter   0:  RMS(Cart)=    0.0001991196 RMS(Int)=    0.0000000004
 Iter   1:  RMS(Cart)=    0.0000000001 RMS(Int)=    0.0000000000
CONVERGED
The first mode is                       ....   19
The number of degrees of freedom        ....   30
Storing new coordinates                 .... done

    -----------------------------------------------------------------
                    Redundant Internal Coordinates


    -----------------------------------------------------------------
         Definition                    Initial Value    Approx d2E/dq
    -----------------------------------------------------------------
      1. B(C   1,C   0)                  1.5059         0.408222   
      2. B(O   2,C   1)                  1.4036         0.532254   
      3. B(C   3,C   1)                  1.4830         0.443175 C 
      4. B(N   4,C   3)                  1.1568         1.317917   
      5. B(C   5,C   1)                  1.5023         0.413627   
      6. B(H   6,C   0)                  1.1208         0.321536   
      7. B(H   7,C   0)                  1.1066         0.338787   
      8. B(H   8,C   0)                  1.1251         0.316539   
      9. B(H   9,C   5)                  1.1117         0.332534   
     10. B(H  10,C   5)                  1.1186         0.324220   
     11. B(H  11,C   5)                  1.0933         0.355782   
     12. A(C   1,C   0,H   7)          113.3820         0.325798   
     13. A(C   1,C   0,H   6)          109.3474         0.323013   
     14. A(H   6,C   0,H   8)          105.5551         0.280072   
     15. A(H   7,C   0,H   8)          109.0225         0.282346   
     16. A(C   1,C   0,H   8)          106.5628         0.322185   
     17. A(H   6,C   0,H   7)          112.5043         0.283033   
     18. A(O   2,C   1,C   3)          108.2216         0.395415   
     19. A(C   0,C   1,C   3)          110.1816         0.379951   
     20. A(C   3,C   1,C   5)          110.6768         0.380818   
     21. A(C   0,C   1,O   2)          107.6471         0.389770   
     22. A(O   2,C   1,C   5)          106.6007         0.390667   
     23. A(C   0,C   1,C   5)          113.2836         0.375442   
     24. L(C   1,C   3,N   4,C   0, 1) 179.0155         0.465214   
     25. L(C   1,C   3,N   4,C   0, 2) 180.0785         0.465214   
     26. A(C   1,C   5,H   9)          112.7270         0.325505   
     27. A(C   1,C   5,H  10)          109.1195         0.324153   
     28. A(H   9,C   5,H  10)          105.2440         0.282580   
     29. A(C   1,C   5,H  11)          112.9424         0.329150   
     30. A(H   9,C   5,H  11)          106.9777         0.286693   
     31. A(H  10,C   5,H  11)          109.5149         0.285564   
     32. D(O   2,C   1,C   0,H   7)   -102.6325         0.013204   
     33. D(C   5,C   1,C   0,H   7)     14.9669         0.013204   
     34. D(C   3,C   1,C   0,H   7)    139.5583         0.013204   
     35. D(O   2,C   1,C   0,H   6)     23.7924         0.013204   
     36. D(C   5,C   1,C   0,H   8)   -104.9709         0.013204   
     37. D(C   3,C   1,C   0,H   8)     19.6205         0.013204   
     38. D(C   3,C   1,C   0,H   6)    -94.0167         0.013204   
     39. D(C   5,C   1,C   0,H   6)    141.3919         0.013204   
     40. D(O   2,C   1,C   0,H   8)    137.4296         0.013204   
     41. D(H  10,C   5,C   1,C   3)     12.2355         0.013546   
     42. D(H   9,C   5,C   1,O   2)     11.3119         0.013546   
     43. D(H   9,C   5,C   1,C   3)    128.7811         0.013546   
     44. D(H  10,C   5,C   1,C   0)    136.5581         0.013546   
     45. D(H   9,C   5,C   1,C   0)   -106.8964         0.013546   
     46. D(H  10,C   5,C   1,O   2)   -105.2337         0.013546   
     47. D(H  11,C   5,C   1,C   0)     14.5079         0.013546   
     48. D(H  11,C   5,C   1,O   2)    132.7162         0.013546   
     49. D(H  11,C   5,C   1,C   3)   -109.8146         0.013546   
    -----------------------------------------------------------------

Number of atoms                         .... 12
Number of degrees of freedom            .... 49

         *************************************************************
         *                GEOMETRY OPTIMIZATION CYCLE   1            *
         *************************************************************
---------------------------------
CARTESIAN COORDINATES (ANGSTROEM)
---------------------------------
  C     -0.834741   -1.059537    0.117877
  C     -0.083446    0.229268    0.323164
  O      0.040842    0.433688    1.706262
  C     -0.849388    1.364280   -0.246369
  N     -1.460686    2.236872   -0.697088
  C      1.311659    0.198462   -0.233223
  H     -1.452349   -1.278225    1.027275
  H     -0.182737   -1.907640   -0.165305
  H     -1.572935   -0.872051   -0.710232
  H      2.088852    0.137376    0.559284
  H      1.513462    1.159055   -0.769636
  H      1.481267   -0.641547   -0.912109

----------------------------
CARTESIAN COORDINATES (A.U.)
----------------------------
  NO LB      ZA    FRAG     MASS         X           Y           Z
   0 C     6.0000    0    12.011   -1.577432   -2.002235    0.222755
   1 C     6.0000    0    12.011   -0.157690    0.433253    0.610692
   2 O     8.0000    0    15.999    0.077180    0.819552    3.224369
   3 C     6.0000    0    12.011   -1.605111    2.578115   -0.465571
   4 N     7.0000    0    14.007   -2.760297    4.227075   -1.317305
   5 C     6.0000    0    12.011    2.478676    0.375039   -0.440728
   6 H     1.0000    0     1.008   -2.744541   -2.415495    1.941268
   7 H     1.0000    0     1.008   -0.345323   -3.604917   -0.312381
   8 H     1.0000    0     1.008   -2.972416   -1.647937   -1.342145
   9 H     1.0000    0     1.008    3.947359    0.259602    1.056894
  10 H     1.0000    0     1.008    2.860028    2.190296   -1.454401
  11 H     1.0000    0     1.008    2.799188   -1.212349   -1.723637

--------------------------------
INTERNAL COORDINATES (ANGSTROEM)
--------------------------------
 C      0   0   0     0.000000000000     0.00000000     0.00000000
 C      1   0   0     1.505856971960     0.00000000     0.00000000
 O      2   1   0     1.403636512777   107.64709467     0.00000000
 C      2   1   3     1.483493744510   110.18158830   242.19082236
 N      4   2   1     1.156827100305   179.01445289   357.30355088
 C      2   1   3     1.502276143058   113.28363424   117.59947593
 H      1   2   3     1.120833533581   109.34735789    23.79244616
 H      1   2   3     1.106607360359   113.38203366   257.36745044
 H      1   2   3     1.125097817970   106.56277253   137.42964647
 H      6   2   1     1.111678595638   112.72696049   253.10363078
 H      6   2   1     1.118570766648   109.11948554   136.55806885
 H      6   2   1     1.093283755482   112.94235475    14.50789764

---------------------------
INTERNAL COORDINATES (A.U.)
---------------------------
 C      0   0   0     0.000000000000     0.00000000     0.00000000
 C      1   0   0     2.845657273860     0.00000000     0.00000000
 O      2   1   0     2.652488600720   107.64709467     0.00000000
 C      2   1   3     2.803396898509   110.18158830   242.19082236
 N      4   2   1     2.186086403875   179.01445289   357.30355088
 C      2   1   3     2.838890487902   113.28363424   117.59947593
 H      1   2   3     2.118068420184   109.34735789    23.79244616
 H      1   2   3     2.091184848859   113.38203366   257.36745044
 H      1   2   3     2.126126749835   106.56277253   137.42964647
 H      6   2   1     2.100768094698   112.72696049   253.10363078
 H      6   2   1     2.113792410375   109.11948554   136.55806885
 H      6   2   1     2.066006884525   112.94235475    14.50789764

---------------------
BASIS SET INFORMATION
---------------------
There are 4 groups of distinct atoms

 Group   1 Type C   : 7s4p1d contracted to 3s2p1d pattern {511/31/1}
 Group   2 Type O   : 7s4p1d contracted to 3s2p1d pattern {511/31/1}
 Group   3 Type N   : 7s4p1d contracted to 3s2p1d pattern {511/31/1}
 Group   4 Type H   : 4s1p contracted to 2s1p pattern {31/1}

Atom   0C    basis set group =>   1
Atom   1C    basis set group =>   1
Atom   2O    basis set group =>   2
Atom   3C    basis set group =>   1
Atom   4N    basis set group =>   3
Atom   5C    basis set group =>   1
Atom   6H    basis set group =>   4
Atom   7H    basis set group =>   4
Atom   8H    basis set group =>   4
Atom   9H    basis set group =>   4
Atom  10H    basis set group =>   4
Atom  11H    basis set group =>   4
-------------------------------
AUXILIARY BASIS SET INFORMATION
-------------------------------
There are 4 groups of distinct atoms

 Group   1 Type C   : 12s5p4d2f1g contracted to 6s4p3d1f1g pattern {711111/2111/211/2/1}
 Group   2 Type O   : 12s5p4d2f1g contracted to 6s4p3d1f1g pattern {711111/2111/211/2/1}
 Group   3 Type N   : 12s5p4d2f1g contracted to 6s4p3d1f1g pattern {711111/2111/211/2/1}
 Group   4 Type H   : 5s2p1d contracted to 3s1p1d pattern {311/2/1}

Atom   0C    basis set group =>   1
Atom   1C    basis set group =>   1
Atom   2O    basis set group =>   2
Atom   3C    basis set group =>   1
Atom   4N    basis set group =>   3
Atom   5C    basis set group =>   1
Atom   6H    basis set group =>   4
Atom   7H    basis set group =>   4
Atom   8H    basis set group =>   4
Atom   9H    basis set group =>   4
Atom  10H    basis set group =>   4
Atom  11H    basis set group =>   4


           ************************************************************
           *        Program running with 8 parallel MPI-processes     *
           *              working on a common directory               *
           ************************************************************
------------------------------------------------------------------------------
                           ORCA GTO INTEGRAL CALCULATION
                           -- RI-GTO INTEGRALS CHOSEN --
------------------------------------------------------------------------------

                         BASIS SET STATISTICS AND STARTUP INFO

Gaussian basis set:
 # of primitive gaussian shells          ...  102
 # of primitive gaussian functions       ...  186
 # of contracted shells                  ...   54
 # of contracted basis functions         ...  114
 Highest angular momentum                ...    2
 Maximum contraction depth               ...    5
Auxiliary gaussian basis set:
 # of primitive gaussian shells          ...  192
 # of primitive gaussian functions       ...  516
 # of contracted shells                  ...  120
 # of contracted aux-basis functions     ...  360
 Highest angular momentum                ...    4
 Maximum contraction depth               ...    7
Ratio of auxiliary to basis functions    ...  3.16
Integral package used                  ... LIBINT
 One Electron integrals                  ... done
 Ordering auxiliary basis shells         ... done
 Integral threshhold             Thresh  ...  2.500e-11
 Primitive cut-off               TCut    ...  2.500e-12
 Pre-screening matrix                    ... done
 Shell pair data                         ... 
 Ordering of the shell pairs             ... done (   0.000 sec) 1462 of 1485 pairs
 Determination of significant pairs      ... done (   0.000 sec)
 Creation of shell pair data             ... done (   0.000 sec)
 Storage of shell pair data              ... done (   0.039 sec)
 Shell pair data done in (   0.040 sec)
 Computing two index integrals           ... done
 Cholesky decomposition of the V-matrix  ... done


Timings:
 Total evaluation time                   ...   0.196 sec (  0.003 min)
 One electron matrix time                ...   0.015 sec (  0.000 min) =  7.4%
 Schwartz matrix evaluation time         ...   0.117 sec (  0.002 min) = 60.0%
 Two index repulsion integral time       ...   0.003 sec (  0.000 min) =  1.6%
 Cholesky decomposition of V             ...   0.003 sec (  0.000 min) =  1.3%
 Three index repulsion integral time     ...   0.000 sec (  0.000 min) =  0.0%



           ************************************************************
           *        Program running with 8 parallel MPI-processes     *
           *              working on a common directory               *
           ************************************************************
-------------------------------------------------------------------------------
                                 ORCA SCF
-------------------------------------------------------------------------------

------------
SCF SETTINGS
------------
Hamiltonian:
 Density Functional     Method          .... DFT(GTOs)
 Exchange Functional    Exchange        .... PBE
   PBE kappa parameter   XKappa         ....  0.804000
   PBE mue parameter    XMuePBE         ....  0.219520
 Correlation Functional Correlation     .... PBE
   PBE beta parameter  CBetaPBE         ....  0.066725
 LDA part of GGA corr.  LDAOpt          .... PW91-LDA
 Gradients option       PostSCFGGA      .... off
   Density functional embedding theory  .... OFF
   NL short-range parameter             ....  6.400000
 RI-approximation to the Coulomb term is turned on
   Number of auxiliary basis functions  .... 360


General Settings:
 Integral files         IntName         .... default_orca_scan
 Hartree-Fock type      HFTyp           .... RHF
 Total Charge           Charge          ....   -1
 Multiplicity           Mult            ....    1
 Number of Electrons    NEL             ....   46
 Basis Dimension        Dim             ....  114
 Nuclear Repulsion      ENuc            ....    218.3261510688 Eh

Convergence Acceleration:
 DIIS                   CNVDIIS         .... on
   Start iteration      DIISMaxIt       ....    12
   Startup error        DIISStart       ....  0.200000
   # of expansion vecs  DIISMaxEq       ....     5
   Bias factor          DIISBfac        ....   1.050
   Max. coefficient     DIISMaxC        ....  10.000
 Newton-Raphson         CNVNR           .... off
 SOSCF                  CNVSOSCF        .... on
   Start iteration      SOSCFMaxIt      ....   150
   Startup grad/error   SOSCFStart      ....  0.003300
 Level Shifting         CNVShift        .... on
   Level shift para.    LevelShift      ....    0.2500
   Turn off err/grad.   ShiftErr        ....    0.0010
 Zerner damping         CNVZerner       .... off
 Static damping         CNVDamp         .... on
   Fraction old density DampFac         ....    0.7000
   Max. Damping (<1)    DampMax         ....    0.9800
   Min. Damping (>=0)   DampMin         ....    0.0000
   Turn off err/grad.   DampErr         ....    0.1000
 Fernandez-Rico         CNVRico         .... off

SCF Procedure:
 Maximum # iterations   MaxIter         ....   250
 SCF integral mode      SCFMode         .... Direct
   Integral package                     .... LIBINT
 Reset frequency        DirectResetFreq ....    20
 Integral Threshold     Thresh          ....  2.500e-11 Eh
 Primitive CutOff       TCut            ....  2.500e-12 Eh

Convergence Tolerance:
 Convergence Check Mode ConvCheckMode   .... Total+1el-Energy
 Convergence forced     ConvForced      .... 0
 Energy Change          TolE            ....  1.000e-08 Eh
 1-El. energy change                    ....  1.000e-05 Eh
 Orbital Gradient       TolG            ....  1.000e-05
 Orbital Rotation angle TolX            ....  1.000e-05
 DIIS Error             TolErr          ....  5.000e-07


Diagonalization of the overlap matrix:
Smallest eigenvalue                        ... 5.788e-04
Time for diagonalization                   ...    0.004 sec
Threshold for overlap eigenvalues          ... 1.000e-08
Number of eigenvalues below threshold      ... 0
Time for construction of square roots      ...    0.002 sec
Total time needed                          ...    0.007 sec

-------------------
DFT GRID GENERATION
-------------------

General Integration Accuracy     IntAcc      ...  4.340
Radial Grid Type                 RadialGrid  ... Gauss-Chebyshev
Angular Grid (max. acc.)         AngularGrid ... Lebedev-110
Angular grid pruning method      GridPruning ... 3 (G Style)
Weight generation scheme         WeightScheme... Becke
Basis function cutoff            BFCut       ...    1.0000e-11
Integration weight cutoff        WCut        ...    1.0000e-14
Grids for H and He will be reduced by one unit

# of grid points (after initial pruning)     ...  14806 (   0.0 sec)
# of grid points (after weights+screening)   ...  13959 (   0.0 sec)
nearest neighbour list constructed           ...    0.0 sec
Grid point re-assignment to atoms done       ...    0.0 sec
Grid point division into batches done        ...    0.0 sec
Reduced shell lists constructed in    0.0 sec

Total number of grid points                  ...    13959
Total number of batches                      ...      224
Average number of points per batch           ...       62
Average number of grid points per atom       ...     1163
Average number of shells per batch           ...    48.86 (90.49%)
Average number of basis functions per batch  ...   105.21 (92.29%)
Average number of large shells per batch     ...    44.00 (90.05%)
Average number of large basis fcns per batch ...    93.59 (88.95%)
Maximum spatial batch extension              ...   2.27,  2.66,  2.50 au
Average spatial batch extension              ...   0.18,  0.19,  0.19 au

Time for grid setup =    0.043 sec

------------------------------
INITIAL GUESS: MODEL POTENTIAL
------------------------------
Loading Hartree-Fock densities                     ... done
Calculating cut-offs                               ... done
Setting up the integral package                    ... done
Initializing the effective Hamiltonian             ... done
Starting the Coulomb interaction                   ... done (   0.0 sec)
Reading the grid                                   ... done
Mapping shells                                     ... done
Starting the XC term evaluation                    ... done (   0.0 sec)
  promolecular density results
     # of electrons  =     44.996804761
     EX              =    -36.781550877
     EC              =     -1.465903915
     EX+EC           =    -38.247454792
Transforming the Hamiltonian                       ... done (   0.0 sec)
Diagonalizing the Hamiltonian                      ... done (   0.0 sec)
Back transforming the eigenvectors                 ... done (   0.0 sec)
Now organizing SCF variables                       ... done
                      ------------------
                      INITIAL GUESS DONE (   0.2 sec)
                      ------------------

--------------------
CPCM SOLVATION MODEL
--------------------
CPCM parameters:
  Epsilon                                         ...      78.3550
  Refrac                                          ...       1.0000
  Rsolv                                           ...       1.3000
  Surface type                                    ...    GEPOL SES
  Epsilon function type                           ...         CPCM
Solvent:                                     ... WATER
SMD-CDS solvent descriptors:
  Soln                                       ...    1.3328
  Soln25                                     ...    1.3323
  Sola                                       ...    0.0000
  Solb                                       ...    0.0000
  Solg                                       ...    0.0000
  Solc                                       ...    0.0000
  Solh                                       ...    0.0000
Radii:
 Radius for C  used is    3.4960 Bohr (=   1.8500 Ang.)
 Radius for O  used is    2.8724 Bohr (=   1.5200 Ang.)
 Radius for N  used is    3.5716 Bohr (=   1.8900 Ang.)
 Radius for H  used is    2.2677 Bohr (=   1.2000 Ang.)
Calculating surface                               ...        done! (  0.0s)
GEPOL surface points                              ...          485
GEPOL Volume                                      ...     680.1829
GEPOL Surface-area                                ...     437.9789
Calculating surface distance matrix               ...        done! (  0.0s)
Performing Cholesky decomposition & store         ...        done! (  0.0s)
Overall time for CPCM initialization              ...                 0.0s
--------------
SCF ITERATIONS
--------------
ITER       Energy         Delta-E        Max-DP      RMS-DP      [F,P]     Damp
               ***  Starting incremental Fock matrix formation  ***
  0   -285.2325276792   0.000000000000 0.24663165  0.00786251  0.3549118 0.7000
  1   -285.3753879636  -0.142860284371 0.16046247  0.00545419  0.1200956 0.7000
                               ***Turning on DIIS***
  2   -285.4179136927  -0.042525729113 0.14753068  0.00625811  0.0296835 0.0000
  3   -285.4962788170  -0.078365124293 0.13472379  0.00435566  0.0627569 0.0000
  4   -285.5109907698  -0.014711952800 0.03021740  0.00103980  0.0298139 0.0000
  5   -285.5135396750  -0.002548905211 0.01247939  0.00038853  0.0037679 0.0000
                      *** Initiating the SOSCF procedure ***
                           *** Shutting down DIIS ***
                      *** Re-Reading the Fockian *** 
                      *** Removing any level shift *** 
ITER      Energy       Delta-E        Grad      Rot      Max-DP    RMS-DP
  6   -285.51365781  -0.0001181364  0.000509  0.000509  0.006562  0.000185
               *** Restarting incremental Fock matrix formation ***
  7   -285.51367312  -0.0000153036  0.000332  0.000869  0.005091  0.000176
  8   -285.51367190   0.0000012112  0.000533  0.001068  0.003619  0.000096
  9   -285.51367600  -0.0000041000  0.000152  0.000532  0.002588  0.000077
 10   -285.51367591   0.0000000923  0.000239  0.000277  0.000852  0.000025
 11   -285.51367636  -0.0000004514  0.000083  0.000363  0.001896  0.000049
 12   -285.51367646  -0.0000001018  0.000051  0.000091  0.000450  0.000012
 13   -285.51367654  -0.0000000756  0.000021  0.000086  0.000416  0.000012
 14   -285.51367655  -0.0000000144  0.000008  0.000040  0.000219  0.000006
                  ***Gradient check signals convergence***
              ***Rediagonalizing the Fockian in SOSCF/NRSCF***

               *****************************************************
               *                     SUCCESS                       *
               *           SCF CONVERGED AFTER  15 CYCLES          *
               *****************************************************

Setting up the final grid:

General Integration Accuracy     IntAcc      ...  4.670
Radial Grid Type                 RadialGrid  ... Gauss-Chebyshev
Angular Grid (max. acc.)         AngularGrid ... Lebedev-302
Angular grid pruning method      GridPruning ... 3 (G Style)
Weight generation scheme         WeightScheme... Becke
Basis function cutoff            BFCut       ...    1.0000e-11
Integration weight cutoff        WCut        ...    1.0000e-14
Grids for H and He will be reduced by one unit

# of grid points (after initial pruning)     ...  57636 (   0.0 sec)
# of grid points (after weights+screening)   ...  53638 (   0.0 sec)
nearest neighbour list constructed           ...    0.0 sec
Grid point re-assignment to atoms done       ...    0.0 sec
Grid point division into batches done        ...    0.1 sec
Reduced shell lists constructed in    0.2 sec

Total number of grid points                  ...    53638
Total number of batches                      ...      845
Average number of points per batch           ...       63
Average number of grid points per atom       ...     4470
Average number of shells per batch           ...    46.30 (85.74%)
Average number of basis functions per batch  ...    99.70 (87.46%)
Average number of large shells per batch     ...    40.91 (88.35%)
Average number of large basis fcns per batch ...    86.74 (87.00%)
Maximum spatial batch extension              ...  15.81, 14.62, 12.71 au
Average spatial batch extension              ...   0.21,  0.21,  0.19 au

Final grid set up in    0.3 sec
Final integration                            ... done (   0.1 sec)
Change in XC energy                          ...     0.000046951
Integrated number of electrons               ...    45.999918334
Previous integrated no of electrons          ...    45.999424280

SMD CDS free energy correction energy :                 4.36943     Kcal/mol
Total Energy after SMD CDS correction =              -285.506666475 Eh

----------------
TOTAL SCF ENERGY
----------------

Total Energy       :         -285.50666648 Eh           -7769.03136 eV

Components:
Nuclear Repulsion  :          218.32615107 Eh            5940.95660 eV
Electronic Energy  :         -503.83281754 Eh          -13709.98797 eV
One Electron Energy:         -829.85015467 Eh          -22581.37072 eV
Two Electron Energy:          326.01733713 Eh            8871.38276 eV
CPCM Dielectric    :           -0.11947872 Eh              -3.25118 eV
SMD CDS (Gcds)     :            0.00696313 Eh               0.18948 eV

Virial components:
Potential Energy   :         -568.51503076 Eh          -15470.08047 eV
Kinetic Energy     :          283.00836428 Eh            7701.04911 eV
Virial Ratio       :            2.00882766


DFT components:
N(Alpha)           :       22.999959167239 electrons
N(Beta)            :       22.999959167239 electrons
N(Total)           :       45.999918334477 electrons
E(X)               :      -37.754990789299 Eh       
E(C)               :       -1.522009931332 Eh       
E(XC)              :      -39.277000720630 Eh       
DFET-embed. en.    :        0.000000000000 Eh       
CPCM Solvation Model Properties:
Surface-charge          :            0.96603476
Charge-correction       :           -0.00602339 Eh              -0.16390 eV
Free-energy (cav+disp)  :            0.00342716 Eh               0.09326 eV
Corrected G(solv)       :         -285.50926270 Eh           -7769.10201 eV

---------------
SCF CONVERGENCE
---------------

  Last Energy change         ...   -3.7901e-09  Tolerance :   1.0000e-08
  Last MAX-Density change    ...    9.9701e-06  Tolerance :   1.0000e-07
  Last RMS-Density change    ...    2.9285e-07  Tolerance :   5.0000e-09
  Last Orbital Gradient      ...    1.7414e-06  Tolerance :   1.0000e-05
  Last Orbital Rotation      ...    1.7655e-06  Tolerance :   1.0000e-05

             **** THE GBW FILE WAS UPDATED (default_orca_scan.gbw) ****
             **** DENSITY FILE WAS UPDATED (default_orca_scan.scfp.tmp) ****
             **** ENERGY FILE WAS UPDATED (default_orca_scan.en.tmp) ****
----------------
ORBITAL ENERGIES
----------------

  NO   OCC          E(Eh)            E(eV) 
   0   2.0000     -18.621554      -506.7182 
   1   2.0000     -13.965761      -380.0277 
   2   2.0000      -9.927395      -270.1382 
   3   2.0000      -9.907101      -269.5859 
   4   2.0000      -9.869929      -268.5744 
   5   2.0000      -9.867210      -268.5004 
   6   2.0000      -0.811328       -22.0774 
   7   2.0000      -0.782338       -21.2885 
   8   2.0000      -0.648048       -17.6343 
   9   2.0000      -0.598615       -16.2891 
  10   2.0000      -0.529017       -14.3953 
  11   2.0000      -0.404815       -11.0156 
  12   2.0000      -0.370670       -10.0864 
  13   2.0000      -0.353570        -9.6211 
  14   2.0000      -0.330704        -8.9989 
  15   2.0000      -0.326658        -8.8888 
  16   2.0000      -0.300674        -8.1818 
  17   2.0000      -0.290071        -7.8932 
  18   2.0000      -0.281174        -7.6511 
  19   2.0000      -0.272747        -7.4218 
  20   2.0000      -0.250837        -6.8256 
  21   2.0000      -0.129929        -3.5356 
  22   2.0000      -0.115949        -3.1551 
  23   0.0000       0.020690         0.5630 
  24   0.0000       0.023168         0.6304 
  25   0.0000       0.055989         1.5235 
  26   0.0000       0.086347         2.3496 
  27   0.0000       0.106427         2.8960 
  28   0.0000       0.108177         2.9436 
  29   0.0000       0.128473         3.4959 
  30   0.0000       0.150358         4.0914 
  31   0.0000       0.172021         4.6809 
  32   0.0000       0.232682         6.3316 
  33   0.0000       0.253155         6.8887 
  34   0.0000       0.280743         7.6394 
  35   0.0000       0.311207         8.4684 
  36   0.0000       0.422234        11.4896 
  37   0.0000       0.447420        12.1749 
  38   0.0000       0.475404        12.9364 
  39   0.0000       0.482043        13.1171 
  40   0.0000       0.528343        14.3769 
  41   0.0000       0.540238        14.7006 
  42   0.0000       0.547054        14.8861 
  43   0.0000       0.558907        15.2086 
  44   0.0000       0.572259        15.5719 
  45   0.0000       0.613795        16.7022 
  46   0.0000       0.615966        16.7613 
  47   0.0000       0.620229        16.8773 
  48   0.0000       0.632822        17.2199 
  49   0.0000       0.653989        17.7960 
  50   0.0000       0.665905        18.1202 
  51   0.0000       0.672204        18.2916 
  52   0.0000       0.683548        18.6003 
  53   0.0000       0.713795        19.4233 
  54   0.0000       0.748235        20.3605 
  55   0.0000       0.815561        22.1925 
  56   0.0000       0.839395        22.8411 
  57   0.0000       0.860176        23.4066 
  58   0.0000       0.876780        23.8584 
  59   0.0000       0.885746        24.1024 
  60   0.0000       0.954581        25.9755 
  61   0.0000       1.033656        28.1272 
  62   0.0000       1.048491        28.5309 
  63   0.0000       1.076060        29.2811 
  64   0.0000       1.125450        30.6251 
  65   0.0000       1.236196        33.6386 
  66   0.0000       1.262559        34.3560 
  67   0.0000       1.335185        36.3322 
  68   0.0000       1.451518        39.4978 
  69   0.0000       1.473436        40.0942 
  70   0.0000       1.485532        40.4234 
  71   0.0000       1.505066        40.9549 
  72   0.0000       1.517159        41.2840 
  73   0.0000       1.586710        43.1766 
  74   0.0000       1.611493        43.8510 
  75   0.0000       1.673644        45.5422 
  76   0.0000       1.700378        46.2696 
  77   0.0000       1.720141        46.8074 
  78   0.0000       1.734605        47.2010 
  79   0.0000       1.744051        47.4581 
  80   0.0000       1.770599        48.1804 
  81   0.0000       1.786118        48.6027 
  82   0.0000       1.800123        48.9838 
  83   0.0000       1.826989        49.7149 
  84   0.0000       1.909921        51.9716 
  85   0.0000       1.934252        52.6337 
  86   0.0000       2.007508        54.6271 
  87   0.0000       2.018389        54.9232 
  88   0.0000       2.070949        56.3534 
  89   0.0000       2.113830        57.5202 
  90   0.0000       2.148968        58.4764 
  91   0.0000       2.205592        60.0172 
  92   0.0000       2.209783        60.1313 
  93   0.0000       2.321365        63.1675 
  94   0.0000       2.361294        64.2541 
  95   0.0000       2.394767        65.1649 
  96   0.0000       2.441159        66.4273 
  97   0.0000       2.445504        66.5455 
  98   0.0000       2.515278        68.4442 
  99   0.0000       2.649013        72.0833 
 100   0.0000       2.700543        73.4855 
 101   0.0000       2.713463        73.8371 
 102   0.0000       2.723100        74.0993 
 103   0.0000       2.771834        75.4254 
 104   0.0000       2.792050        75.9756 
 105   0.0000       2.828853        76.9770 
 106   0.0000       2.855638        77.7059 
 107   0.0000       2.892898        78.7198 
 108   0.0000       2.958729        80.5111 
 109   0.0000       3.000740        81.6543 
 110   0.0000       3.090956        84.1092 
 111   0.0000       3.124438        85.0203 
 112   0.0000       3.379081        91.9495 
 113   0.0000       3.448444        93.8369 

                    ********************************
                    * MULLIKEN POPULATION ANALYSIS *
                    ********************************

-----------------------
MULLIKEN ATOMIC CHARGES
-----------------------
   0 C :    0.043522
   1 C :   -0.119901
   2 O :   -0.722919
   3 C :   -0.194877
   4 N :   -0.096290
   5 C :    0.065585
   6 H :   -0.004405
   7 H :    0.024272
   8 H :   -0.000408
   9 H :   -0.004562
  10 H :    0.004984
  11 H :    0.004998
Sum of atomic charges:   -1.0000000

--------------------------------
MULLIKEN REDUCED ORBITAL CHARGES
--------------------------------
  0 C s       :     2.970985  s :     2.970985
      pz      :     1.000569  p :     2.961768
      px      :     0.986088
      py      :     0.975111
      dz2     :     0.003519  d :     0.023725
      dxz     :     0.006930
      dyz     :     0.003084
      dx2y2   :     0.004004
      dxy     :     0.006188
  1 C s       :     3.135417  s :     3.135417
      pz      :     0.872851  p :     2.897884
      px      :     1.026930
      py      :     0.998103
      dz2     :     0.019577  d :     0.086600
      dxz     :     0.022641
      dyz     :     0.021578
      dx2y2   :     0.009576
      dxy     :     0.013229
  2 O s       :     3.805753  s :     3.805753
      pz      :     1.282334  p :     4.908779
      px      :     1.824226
      py      :     1.802219
      dz2     :     0.004410  d :     0.008388
      dxz     :     0.001854
      dyz     :     0.001885
      dx2y2   :     0.000107
      dxy     :     0.000131
  3 C s       :     3.191560  s :     3.191560
      pz      :     0.937542  p :     2.957895
      px      :     0.961515
      py      :     1.058838
      dz2     :     0.008063  d :     0.045422
      dxz     :     0.005913
      dyz     :     0.008995
      dx2y2   :     0.013582
      dxy     :     0.008868
  4 N s       :     3.520822  s :     3.520822
      pz      :     1.155959  p :     3.547306
      px      :     1.159663
      py      :     1.231684
      dz2     :     0.004168  d :     0.028162
      dxz     :     0.003653
      dyz     :     0.006049
      dx2y2   :     0.007373
      dxy     :     0.006920
  5 C s       :     2.937901  s :     2.937901
      pz      :     1.010246  p :     2.972245
      px      :     0.976611
      py      :     0.985388
      dz2     :     0.002209  d :     0.024269
      dxz     :     0.006361
      dyz     :     0.005889
      dx2y2   :     0.006577
      dxy     :     0.003234
  6 H s       :     0.982403  s :     0.982403
      pz      :     0.011065  p :     0.022002
      px      :     0.006764
      py      :     0.004173
  7 H s       :     0.952389  s :     0.952389
      pz      :     0.006034  p :     0.023339
      px      :     0.007592
      py      :     0.009713
  8 H s       :     0.977024  s :     0.977024
      pz      :     0.009699  p :     0.023385
      px      :     0.008546
      py      :     0.005139
  9 H s       :     0.981724  s :     0.981724
      pz      :     0.009889  p :     0.022838
      px      :     0.007239
      py      :     0.005710
 10 H s       :     0.971499  s :     0.971499
      pz      :     0.007692  p :     0.023517
      px      :     0.004933
      py      :     0.010892
 11 H s       :     0.970812  s :     0.970812
      pz      :     0.009105  p :     0.024190
      px      :     0.004750
      py      :     0.010335


                     *******************************
                     * LOEWDIN POPULATION ANALYSIS *
                     *******************************

----------------------
LOEWDIN ATOMIC CHARGES
----------------------
   0 C :   -0.082586
   1 C :   -0.060020
   2 O :   -0.662352
   3 C :   -0.052927
   4 N :   -0.197252
   5 C :   -0.077513
   6 H :    0.016421
   7 H :    0.027287
   8 H :    0.023023
   9 H :    0.021261
  10 H :    0.027192
  11 H :    0.017466

-------------------------------
LOEWDIN REDUCED ORBITAL CHARGES
-------------------------------
  0 C s       :     2.876322  s :     2.876322
      pz      :     1.066826  p :     3.139752
      px      :     1.044692
      py      :     1.028233
      dz2     :     0.010112  d :     0.066513
      dxz     :     0.019832
      dyz     :     0.007536
      dx2y2   :     0.009947
      dxy     :     0.019086
  1 C s       :     2.842848  s :     2.842848
      pz      :     0.954948  p :     3.010645
      px      :     1.036644
      py      :     1.019053
      dz2     :     0.047963  d :     0.206527
      dxz     :     0.049044
      dyz     :     0.046922
      dx2y2   :     0.025360
      dxy     :     0.037236
  2 O s       :     3.653487  s :     3.653487
      pz      :     1.358781  p :     4.993457
      px      :     1.830574
      py      :     1.804101
      dz2     :     0.009251  d :     0.015408
      dxz     :     0.002899
      dyz     :     0.002928
      dx2y2   :     0.000148
      dxy     :     0.000181
  3 C s       :     2.961008  s :     2.961008
      pz      :     0.947404  p :     2.982426
      px      :     0.970206
      py      :     1.064816
      dz2     :     0.016917  d :     0.109492
      dxz     :     0.014699
      dyz     :     0.023815
      dx2y2   :     0.028563
      dxy     :     0.025499
  4 N s       :     3.419997  s :     3.419997
      pz      :     1.182012  p :     3.728189
      px      :     1.213362
      py      :     1.332815
      dz2     :     0.006658  d :     0.049066
      dxz     :     0.006344
      dyz     :     0.010937
      dx2y2   :     0.011018
      dxy     :     0.014108
  5 C s       :     2.865740  s :     2.865740
      pz      :     1.072218  p :     3.143831
      px      :     1.015767
      py      :     1.055847
      dz2     :     0.004738  d :     0.067942
      dxz     :     0.019018
      dyz     :     0.016941
      dx2y2   :     0.020435
      dxy     :     0.006810
  6 H s       :     0.919121  s :     0.919121
      pz      :     0.032145  p :     0.064457
      px      :     0.020211
      py      :     0.012102
  7 H s       :     0.906753  s :     0.906753
      pz      :     0.014855  p :     0.065960
      px      :     0.021480
      py      :     0.029624
  8 H s       :     0.911870  s :     0.911870
      pz      :     0.027538  p :     0.065107
      px      :     0.024725
      py      :     0.012843
  9 H s       :     0.913468  s :     0.913468
      pz      :     0.027439  p :     0.065271
      px      :     0.025024
      py      :     0.012808
 10 H s       :     0.908277  s :     0.908277
      pz      :     0.019525  p :     0.064531
      px      :     0.013297
      py      :     0.031709
 11 H s       :     0.913214  s :     0.913214
      pz      :     0.025612  p :     0.069320
      px      :     0.014177
      py      :     0.029531


                      *****************************
                      * MAYER POPULATION ANALYSIS *
                      *****************************

  NA   - Mulliken gross atomic population
  ZA   - Total nuclear charge
  QA   - Mulliken gross atomic charge
  VA   - Mayer's total valence
  BVA  - Mayer's bonded valence
  FA   - Mayer's free valence

  ATOM       NA         ZA         QA         VA         BVA        FA
  0 C      5.9565     6.0000     0.0435     3.7938     3.7938     0.0000
  1 C      6.1199     6.0000    -0.1199     4.7644     4.7644     0.0000
  2 O      8.7229     8.0000    -0.7229     1.6944     1.6944     0.0000
  3 C      6.1949     6.0000    -0.1949     3.9485     3.9485    -0.0000
  4 N      7.0963     7.0000    -0.0963     3.2122     3.2122    -0.0000
  5 C      5.9344     6.0000     0.0656     3.7946     3.7946    -0.0000
  6 H      1.0044     1.0000    -0.0044     1.0546     1.0546     0.0000
  7 H      0.9757     1.0000     0.0243     1.0024     1.0024     0.0000
  8 H      1.0004     1.0000    -0.0004     1.0063     1.0063     0.0000
  9 H      1.0046     1.0000    -0.0046     1.0510     1.0510    -0.0000
 10 H      0.9950     1.0000     0.0050     1.0075     1.0075    -0.0000
 11 H      0.9950     1.0000     0.0050     0.9983     0.9983    -0.0000

  Mayer bond orders larger than 0.1
B(  0-C ,  1-C ) :   1.0719 B(  0-C ,  6-H ) :   0.9417 B(  0-C ,  7-H ) :   0.9488 
B(  0-C ,  8-H ) :   0.9363 B(  1-C ,  2-O ) :   1.5098 B(  1-C ,  3-C ) :   0.9414 
B(  1-C ,  5-C ) :   1.0690 B(  3-C ,  4-N ) :   3.0484 B(  5-C ,  9-H ) :   0.9346 
B(  5-C , 10-H ) :   0.9470 B(  5-C , 11-H ) :   0.9415 

-------
TIMINGS
-------

Total SCF time: 0 days 0 hours 0 min 6 sec 

Total time                  ....       6.439 sec
Sum of individual times     ....       6.270 sec  ( 97.4%)

Fock matrix formation       ....       5.777 sec  ( 89.7%)
  Split-RI-J                ....       1.819 sec  ( 31.5% of F)
  XC integration            ....       0.398 sec  (  6.9% of F)
    Basis function eval.    ....       0.084 sec  ( 21.0% of XC)
    Density eval.           ....       0.035 sec  (  8.9% of XC)
    XC-Functional eval.     ....       0.019 sec  (  4.9% of XC)
    XC-Potential eval.      ....       0.057 sec  ( 14.3% of XC)
Diagonalization             ....       0.009 sec  (  0.1%)
Density matrix formation    ....       0.005 sec  (  0.1%)
Population analysis         ....       0.007 sec  (  0.1%)
Initial guess               ....       0.124 sec  (  1.9%)
Orbital Transformation      ....       0.000 sec  (  0.0%)
Orbital Orthonormalization  ....       0.000 sec  (  0.0%)
DIIS solution               ....       0.004 sec  (  0.1%)
SOSCF solution              ....       0.007 sec  (  0.1%)
Grid generation             ....       0.336 sec  (  5.2%)


-------------------------------------------------------------------------------
                          DFT DISPERSION CORRECTION                            
                                                                               
                              DFTD3 V3.1  Rev 1                                
                          USING Becke-Johnson damping                          
-------------------------------------------------------------------------------
The PBE functional is recognized
Active option DFTDOPT                   ...         4   

molecular C6(AA) [au] = 1365.166830 


            DFT-D V3
 parameters
 s6 scaling factor         :     1.0000 
 a1 scaling factor         :     0.4289 
 s8 scaling factor         :     0.7875 
 a2 scaling factor         :     4.4407 
 ad hoc parameters k1-k3   :    16.0000     1.3333    -4.0000 

 Edisp/kcal,au: -5.950291779835  -0.009482392523 
 E6   /kcal   :  -4.223735668 
 E8   /kcal   :  -1.726556112 
 % E8         :  29.016326863 

-------------------------   ----------------
Dispersion correction           -0.009482393
-------------------------   ----------------


-------------------------   --------------------
FINAL SINGLE POINT ENERGY      -285.516148867802
-------------------------   --------------------



           ************************************************************
           *        Program running with 8 parallel MPI-processes     *
           *              working on a common directory               *
           ************************************************************
------------------------------------------------------------------------------
                         ORCA SCF GRADIENT CALCULATION
------------------------------------------------------------------------------

Gradient of the Kohn-Sham DFT energy:
Kohn-Sham wavefunction type      ... RKS
Hartree-Fock exchange scaling    ...    0.000
Number of operators              ...    1
Number of atoms                  ...   12
Basis set dimensions             ...  114
Integral neglect threshold       ... 2.5e-11
Integral primitive cutoff        ... 2.5e-12

Nuclear repulsion gradient       ... done
One Electron Gradient            ... done
Pre-screening matrix             ... done
RI-J gradient                    ... done
Exchange-correlation gradient    ... done
Dispersion correction            ... done

------------------
CARTESIAN GRADIENT
------------------

   1   C   :    0.034306589    0.010265298    0.022658146
   2   C   :   -0.011396309   -0.000738917   -0.069831302
   3   O   :    0.008257197   -0.014360103   -0.002017062
   4   C   :   -0.022629520    0.037950663   -0.004384051
   5   N   :    0.026917457   -0.041233164    0.013033381
   6   C   :   -0.026766799   -0.017641509    0.027301327
   7   H   :   -0.008672244   -0.002190672    0.005811466
   8   H   :    0.000822221    0.001502698   -0.003011342
   9   H   :   -0.003120247    0.013160860   -0.000088522
  10   H   :    0.010095818    0.001716436   -0.003827564
  11   H   :   -0.004826773    0.006406049    0.001981863
  12   H   :   -0.002987391    0.005162361    0.012373661

Difference to translation invariance:
           :   -0.0000000000    0.0000000000    0.0000000000

Norm of the cartesian gradient     ...    0.1187662122
RMS gradient                       ...    0.0197943687
MAX gradient                       ...    0.0698313020

-------
TIMINGS
-------

Total SCF gradient time            ...        0.674 sec

One electron gradient       ....       0.005 sec  (  0.8%)
Prescreening matrices       ....       0.010 sec  (  1.4%)
RI-J Coulomb gradient       ....       0.129 sec  ( 19.2%)
XC gradient                 ....       0.190 sec  ( 28.1%)
CPCM gradient               ....       0.108 sec  ( 16.0%)
   A-Matrix (El+Nuc)        ....       0.010 sec  (  1.4%)
   Potential                ....       0.098 sec  ( 14.6%)
------------------------------------------------------------------------------
                         ORCA GEOMETRY RELAXATION STEP
------------------------------------------------------------------------------

Reading the OPT-File                    .... done
Getting information on internals        .... done
Copying old internal coords+grads       .... done
Making the new internal coordinates     .... (new redundants).... done
Validating the new internal coordinates .... (new redundants).... done
Calculating the B-matrix                .... done
Calculating the G,G- and P matrices     .... done
Transforming gradient to internals      .... done
Projecting the internal gradient        .... done
Number of atoms                         ....  12
Number of internal coordinates          ....  49
Current Energy                          ....  -285.516148868 Eh
Current gradient norm                   ....     0.118766212 Eh/bohr
Maximum allowed component of the step   ....  0.300
Current trust radius                    ....  0.300
Evaluating the initial hessian          ....  (Almloef) done
Projecting the Hessian                  .... done
Forming the augmented Hessian           .... done
Diagonalizing the augmented Hessian     .... done
Last element of RFO vector              ....  0.952651622
Lowest eigenvalues of augmented Hessian:
 -0.018605585  0.013366066  0.014103556  0.090704127  0.099972529
Length of the computed step             ....  0.319176438
Warning: the length of the step is outside the trust region - taking restricted step instead
The input lambda is                     ....    -0.018606
   iter:   1  x=   -0.023229  g=    2.568326 f(x)=     0.011874
   iter:   2  x=   -0.024027  g=    1.945568 f(x)=     0.001553
   iter:   3  x=   -0.024045  g=    1.864050 f(x)=     0.000033
   iter:   4  x=   -0.024045  g=    1.862313 f(x)=     0.000000
   iter:   5  x=   -0.024045  g=    1.862312 f(x)=     0.000000
The output lambda is                    ....    -0.024045 (5 iterations)
The final length of the internal step   ....  0.300000000
Converting the step to cartesian space:
 Initial RMS(Int)=    0.0428571429
Transforming coordinates:
 Iter   0:  RMS(Cart)=    0.0544920968 RMS(Int)=    0.0424611340
 Iter   1:  RMS(Cart)=    0.0017191055 RMS(Int)=    0.0013874886
 Iter   2:  RMS(Cart)=    0.0001997532 RMS(Int)=    0.0001832378
 Iter   3:  RMS(Cart)=    0.0001071690 RMS(Int)=    0.0000887055
 Iter   4:  RMS(Cart)=    0.0000554620 RMS(Int)=    0.0000453511
 Iter   5:  RMS(Cart)=    0.0000283554 RMS(Int)=    0.0000232144
 Iter   6:  RMS(Cart)=    0.0000145128 RMS(Int)=    0.0000118837
 Iter   7:  RMS(Cart)=    0.0000074293 RMS(Int)=    0.0000060836
 Iter   8:  RMS(Cart)=    0.0000038032 RMS(Int)=    0.0000031144
 Iter   9:  RMS(Cart)=    0.0000019470 RMS(Int)=    0.0000015944
 Iter  10:  RMS(Cart)=    0.0000009967 RMS(Int)=    0.0000008162
 Iter  11:  RMS(Cart)=    0.0000005103 RMS(Int)=    0.0000004178
 Iter  12:  RMS(Cart)=    0.0000002612 RMS(Int)=    0.0000002139
 Iter  13:  RMS(Cart)=    0.0000001337 RMS(Int)=    0.0000001095
 Iter  14:  RMS(Cart)=    0.0000000685 RMS(Int)=    0.0000000561
Imposing constraints:
 Iter   0:  RMS(Cart)=    0.0000000003 RMS(Int)=    0.0000000000
CONVERGED
done
Storing new coordinates                 .... done

                                .--------------------.
          ----------------------|Geometry convergence|-------------------------
          Item                value                   Tolerance       Converged
          ---------------------------------------------------------------------
          RMS gradient        0.0122063148            0.0005000000      NO
          MAX gradient        0.0503988323            0.0020000000      NO
          RMS step            0.0428571429            0.0070000000      NO
          MAX step            0.1142789423            0.0100000000      NO
          ........................................................
          Max(Bonds)      0.0443      Max(Angles)    3.70
          Max(Dihed)        6.55      Max(Improp)    0.00
          ---------------------------------------------------------------------

The optimization has not yet converged - more geometry cycles are needed


    ---------------------------------------------------------------------------
                         Redundant Internal Coordinates
                            (Angstroem and degrees)

        Definition                    Value    dE/dq     Step     New-Value
    ----------------------------------------------------------------------------
     1. B(C   1,C   0)                1.5059 -0.034590  0.0423    1.5482   
     2. B(O   2,C   1)                1.4036 -0.003350  0.0032    1.4068   
     3. B(C   3,C   1)                1.4830 -0.008040 -0.0000    1.4830 C 
     4. B(N   4,C   3)                1.1568 -0.050399  0.0199    1.1767   
     5. B(C   5,C   1)                1.5023 -0.036639  0.0443    1.5466   
     6. B(H   6,C   0)                1.1208  0.009945 -0.0152    1.1056   
     7. B(H   7,C   0)                1.1066  0.000085 -0.0001    1.1065   
     8. B(H   8,C   0)                1.1251  0.004294 -0.0067    1.1184   
     9. B(H   9,C   5)                1.1117  0.004229 -0.0063    1.1054   
    10. B(H  10,C   5)                1.1186  0.003672 -0.0056    1.1130   
    11. B(H  11,C   5)                1.0933 -0.012094  0.0169    1.1101   
    12. A(C   1,C   0,H   7)          113.38  0.001319   -0.53    112.85   
    13. A(C   1,C   0,H   6)          109.35  0.005834   -1.16    108.19   
    14. A(H   6,C   0,H   8)          105.56  0.001827    0.57    106.13   
    15. A(H   7,C   0,H   8)          109.02  0.008234   -1.10    107.92   
    16. A(C   1,C   0,H   8)          106.56 -0.018957    3.70    110.26   
    17. A(H   6,C   0,H   7)          112.50  0.000670   -1.12    111.38   
    18. A(O   2,C   1,C   3)          108.22  0.007195   -1.80    106.42   
    19. A(C   0,C   1,C   3)          110.18 -0.000544   -1.55    108.63   
    20. A(C   3,C   1,C   5)          110.68  0.001547   -1.86    108.81   
    21. A(C   0,C   1,O   2)          107.65 -0.007455    2.93    110.57   
    22. A(O   2,C   1,C   5)          106.60 -0.010636    3.54    110.14   
    23. A(C   0,C   1,C   5)          113.28  0.009339   -0.99    112.29   
    24. L(C   1,C   3,N   4,C   0, 1) 179.02 -0.008137    0.95    179.97   
    25. L(C   1,C   3,N   4,C   0, 2) 180.08  0.004118   -0.48    179.60   
    26. A(C   1,C   5,H   9)          112.73  0.016496   -2.80    109.92   
    27. A(C   1,C   5,H  10)          109.12 -0.011389    2.03    111.15   
    28. A(H   9,C   5,H  10)          105.24 -0.002639    0.61    105.86   
    29. A(C   1,C   5,H  11)          112.94 -0.004892    0.74    113.68   
    30. A(H   9,C   5,H  11)          106.98 -0.005325    0.68    107.66   
    31. A(H  10,C   5,H  11)          109.51  0.008195   -1.32    108.20   
    32. D(O   2,C   1,C   0,H   7)   -102.63  0.001476    0.84   -101.79   
    33. D(C   5,C   1,C   0,H   7)     14.97 -0.011070    6.55     21.51   
    34. D(C   3,C   1,C   0,H   7)    139.56 -0.002512    2.15    141.71   
    35. D(O   2,C   1,C   0,H   6)     23.79  0.008008   -1.97     21.83   
    36. D(C   5,C   1,C   0,H   8)   -104.97 -0.009356    5.75    -99.22   
    37. D(C   3,C   1,C   0,H   8)     19.62 -0.000798    1.35     20.97   
    38. D(C   3,C   1,C   0,H   6)    -94.02  0.004020   -0.66    -94.68   
    39. D(C   5,C   1,C   0,H   6)    141.39 -0.004538    3.74    145.13   
    40. D(O   2,C   1,C   0,H   8)    137.43  0.003191    0.05    137.48   
    41. D(H  10,C   5,C   1,C   3)     12.24 -0.002578    2.65     14.89   
    42. D(H   9,C   5,C   1,O   2)     11.31 -0.006546    4.12     15.43   
    43. D(H   9,C   5,C   1,C   3)    128.78 -0.003304    3.04    131.82   
    44. D(H  10,C   5,C   1,C   0)    136.56  0.004918   -1.59    134.97   
    45. D(H   9,C   5,C   1,C   0)   -106.90  0.004192   -1.21   -108.10   
    46. D(H  10,C   5,C   1,O   2)   -105.23 -0.005820    3.73   -101.50   
    47. D(H  11,C   5,C   1,C   0)     14.51  0.005901   -1.86     12.65   
    48. D(H  11,C   5,C   1,O   2)    132.72 -0.004837    3.46    136.18   
    49. D(H  11,C   5,C   1,C   3)   -109.81 -0.001595    2.38   -107.43   
    ----------------------------------------------------------------------------

         *************************************************************
         *                GEOMETRY OPTIMIZATION CYCLE   2            *
         *************************************************************
---------------------------------
CARTESIAN COORDINATES (ANGSTROEM)
---------------------------------
  C     -0.858542   -1.075275    0.112744
  C     -0.080247    0.237725    0.372004
  O      0.007945    0.494619    1.752360
  C     -0.844127    1.363654   -0.217962
  N     -1.453104    2.257209   -0.682001
  C      1.333068    0.212872   -0.255545
  H     -1.484270   -1.285893    0.999574
  H     -0.194620   -1.928303   -0.123598
  H     -1.566657   -0.943234   -0.742836
  H      2.096656    0.123912    0.538770
  H      1.554145    1.166417   -0.785288
  H      1.489554   -0.623702   -0.968324

----------------------------
CARTESIAN COORDINATES (A.U.)
----------------------------
  NO LB      ZA    FRAG     MASS         X           Y           Z
   0 C     6.0000    0    12.011   -1.622410   -2.031975    0.213055
   1 C     6.0000    0    12.011   -0.151645    0.449236    0.702986
   2 O     8.0000    0    15.999    0.015014    0.934694    3.311480
   3 C     6.0000    0    12.011   -1.595169    2.576933   -0.411888
   4 N     7.0000    0    14.007   -2.745969    4.265506   -1.288796
   5 C     6.0000    0    12.011    2.519134    0.402269   -0.482910
   6 H     1.0000    0     1.008   -2.804864   -2.429986    1.888922
   7 H     1.0000    0     1.008   -0.367779   -3.643964   -0.233566
   8 H     1.0000    0     1.008   -2.960553   -1.782455   -1.403756
   9 H     1.0000    0     1.008    3.962105    0.234159    1.018128
  10 H     1.0000    0     1.008    2.936908    2.204208   -1.483978
  11 H     1.0000    0     1.008    2.814849   -1.178626   -1.829866

--------------------------------
INTERNAL COORDINATES (ANGSTROEM)
--------------------------------
 C      0   0   0     0.000000000000     0.00000000     0.00000000
 C      1   0   0     1.548201904378     0.00000000     0.00000000
 O      2   1   0     1.406823625319   110.52932055     0.00000000
 C      2   1   3     1.483000001797   108.56158637   243.53647548
 N      4   2   1     1.176700928688   179.75719027    82.60948160
 C      2   1   3     1.546575408332   112.19841161   123.31797836
 H      1   2   3     1.105605471219   108.16473536    21.81656862
 H      1   2   3     1.106483873514   112.82667442   258.18762970
 H      1   2   3     1.118426415276   110.25888413   137.45689793
 H      6   2   1     1.105403170872   109.93635410   251.89284072
 H      6   2   1     1.112991525757   111.15423782   134.98230535
 H      6   2   1     1.110133835828   113.66913663    12.64440331

---------------------------
INTERNAL COORDINATES (A.U.)
---------------------------
 C      0   0   0     0.000000000000     0.00000000     0.00000000
 C      1   0   0     2.925677599291     0.00000000     0.00000000
 O      2   1   0     2.658511370583   110.52932055     0.00000000
 C      2   1   3     2.802463860001   108.56158637   243.53647548
 N      4   2   1     2.223642496751   179.75719027    82.60948160
 C      2   1   3     2.922603967206   112.19841161   123.31797836
 H      1   2   3     2.089291552768   108.16473536    21.81656862
 H      1   2   3     2.090951492542   112.82667442   258.18762970
 H      1   2   3     2.113519625815   110.25888413   137.45689793
 H      6   2   1     2.088909260516   109.93635410   251.89284072
 H      6   2   1     2.103249173056   111.15423782   134.98230535
 H      6   2   1     2.097848921715   113.66913663    12.64440331



           ************************************************************
           *        Program running with 8 parallel MPI-processes     *
           *              working on a common directory               *
           ************************************************************
 One Electron integrals                  ... done
 Pre-screening matrix                    ... done


           ************************************************************
           *        Program running with 8 parallel MPI-processes     *
           *              working on a common directory               *
           ************************************************************

Diagonalization of the overlap matrix:
Smallest eigenvalue                        ... 6.350e-04
Time for diagonalization                   ...    0.003 sec
Threshold for overlap eigenvalues          ... 1.000e-08
Number of eigenvalues below threshold      ... 0
Time for construction of square roots      ...    0.002 sec
Total time needed                          ...    0.005 sec

-------------------
DFT GRID GENERATION
-------------------

General Integration Accuracy     IntAcc      ...  4.340
Radial Grid Type                 RadialGrid  ... Gauss-Chebyshev
Angular Grid (max. acc.)         AngularGrid ... Lebedev-110
Angular grid pruning method      GridPruning ... 3 (G Style)
Weight generation scheme         WeightScheme... Becke
Basis function cutoff            BFCut       ...    1.0000e-11
Integration weight cutoff        WCut        ...    1.0000e-14
Grids for H and He will be reduced by one unit

# of grid points (after initial pruning)     ...  14806 (   0.0 sec)
# of grid points (after weights+screening)   ...  13975 (   0.0 sec)
nearest neighbour list constructed           ...    0.0 sec
Grid point re-assignment to atoms done       ...    0.0 sec
Grid point division into batches done        ...    0.0 sec
Reduced shell lists constructed in    0.0 sec

Total number of grid points                  ...    13975
Total number of batches                      ...      223
Average number of points per batch           ...       62
Average number of grid points per atom       ...     1165
Average number of shells per batch           ...    48.76 (90.29%)
Average number of basis functions per batch  ...   104.90 (92.01%)
Average number of large shells per batch     ...    43.86 (89.96%)
Average number of large basis fcns per batch ...    93.31 (88.95%)
Maximum spatial batch extension              ...   2.04,  2.77,  2.53 au
Average spatial batch extension              ...   0.18,  0.19,  0.19 au

Time for grid setup =    0.038 sec


--------------------
CPCM SOLVATION MODEL
--------------------
CPCM parameters:
  Epsilon                                         ...      78.3550
  Refrac                                          ...       1.0000
  Rsolv                                           ...       1.3000
  Surface type                                    ...    GEPOL SES
  Epsilon function type                           ...         CPCM
Solvent:                                     ... WATER
SMD-CDS solvent descriptors:
  Soln                                       ...    1.3328
  Soln25                                     ...    1.3323
  Sola                                       ...    0.0000
  Solb                                       ...    0.0000
  Solg                                       ...    0.0000
  Solc                                       ...    0.0000
  Solh                                       ...    0.0000
Radii:
 Radius for C  used is    3.4960 Bohr (=   1.8500 Ang.)
 Radius for O  used is    2.8724 Bohr (=   1.5200 Ang.)
 Radius for N  used is    3.5716 Bohr (=   1.8900 Ang.)
 Radius for H  used is    2.2677 Bohr (=   1.2000 Ang.)
Calculating surface                               ...        done! (  0.0s)
GEPOL surface points                              ...          484
GEPOL Volume                                      ...     687.0926
GEPOL Surface-area                                ...     442.5962
Calculating surface distance matrix               ...        done! (  0.0s)
Performing Cholesky decomposition & store         ...        done! (  0.0s)
Overall time for CPCM initialization              ...                 0.0s
--------------
SCF ITERATIONS
--------------
ITER       Energy         Delta-E        Max-DP      RMS-DP      [F,P]     Damp
               ***  Starting incremental Fock matrix formation  ***
  0   -285.5225029204   0.000000000000 0.03750996  0.00070969  0.0194567 0.7000
                      *** Initiating the SOSCF procedure ***
                      *** Re-Reading the Fockian *** 
                      *** Removing any level shift *** 
ITER      Energy       Delta-E        Grad      Rot      Max-DP    RMS-DP
  1   -285.52354916  -0.0010462389  0.002441  0.002441  0.117474  0.002236
               *** Restarting incremental Fock matrix formation ***
  2   -285.52599617  -0.0024470145  0.001733  0.006011  0.018147  0.000709
  3   -285.52576384   0.0002323317  0.004296  0.005543  0.013784  0.000511
  4   -285.52609342  -0.0003295774  0.000433  0.001069  0.004067  0.000151
  5   -285.52606998   0.0000234357  0.001128  0.001199  0.002279  0.000086
  6   -285.52610099  -0.0000310028  0.000411  0.000810  0.003518  0.000110
  7   -285.52609519   0.0000057958  0.000465  0.000435  0.002091  0.000069
  8   -285.52610471  -0.0000095201  0.000033  0.000065  0.000271  0.000010
  9   -285.52610467   0.0000000360  0.000048  0.000037  0.000166  0.000006
                  ***Gradient check signals convergence***
              ***Rediagonalizing the Fockian in SOSCF/NRSCF***

               *****************************************************
               *                     SUCCESS                       *
               *           SCF CONVERGED AFTER  10 CYCLES          *
               *****************************************************

Setting up the final grid:

General Integration Accuracy     IntAcc      ...  4.670
Radial Grid Type                 RadialGrid  ... Gauss-Chebyshev
Angular Grid (max. acc.)         AngularGrid ... Lebedev-302
Angular grid pruning method      GridPruning ... 3 (G Style)
Weight generation scheme         WeightScheme... Becke
Basis function cutoff            BFCut       ...    1.0000e-11
Integration weight cutoff        WCut        ...    1.0000e-14
Grids for H and He will be reduced by one unit

# of grid points (after initial pruning)     ...  57636 (   0.0 sec)
# of grid points (after weights+screening)   ...  53695 (   0.0 sec)
nearest neighbour list constructed           ...    0.0 sec
Grid point re-assignment to atoms done       ...    0.0 sec
Grid point division into batches done        ...    0.1 sec
Reduced shell lists constructed in    0.2 sec

Total number of grid points                  ...    53695
Total number of batches                      ...      846
Average number of points per batch           ...       63
Average number of grid points per atom       ...     4475
Average number of shells per batch           ...    46.07 (85.32%)
Average number of basis functions per batch  ...    99.14 (86.97%)
Average number of large shells per batch     ...    40.58 (88.07%)
Average number of large basis fcns per batch ...    85.93 (86.67%)
Maximum spatial batch extension              ...  14.57, 14.66, 11.63 au
Average spatial batch extension              ...   0.21,  0.21,  0.18 au

Final grid set up in    0.3 sec
Final integration                            ... done (   0.1 sec)
Change in XC energy                          ...     0.000140977
Integrated number of electrons               ...    45.999893534
Previous integrated no of electrons          ...    46.000138666

SMD CDS free energy correction energy :                 4.26875     Kcal/mol
Total Energy after SMD CDS correction =              -285.519161122 Eh
Total Energy       :         -285.51916112 Eh           -7769.37136 eV
  Last Energy change         ...   -1.0737e-07  Tolerance :   1.0000e-08
  Last MAX-Density change    ...    1.1640e-05  Tolerance :   1.0000e-07
             **** THE GBW FILE WAS UPDATED (default_orca_scan.gbw) ****
             **** DENSITY FILE WAS UPDATED (default_orca_scan.scfp.tmp) ****
             **** ENERGY FILE WAS UPDATED (default_orca_scan.en.tmp) ****
Total SCF time: 0 days 0 hours 0 min 4 sec 


-------------------------------------------------------------------------------
                          DFT DISPERSION CORRECTION                            
                                                                               
                              DFTD3 V3.1  Rev 1                                
                          USING Becke-Johnson damping                          
-------------------------------------------------------------------------------
-------------------------   ----------------
Dispersion correction           -0.009373450
-------------------------   ----------------


-------------------------   --------------------
FINAL SINGLE POINT ENERGY      -285.528534571487
-------------------------   --------------------



           ************************************************************
           *        Program running with 8 parallel MPI-processes     *
           *              working on a common directory               *
           ************************************************************
------------------------------------------------------------------------------
                         ORCA SCF GRADIENT CALCULATION
------------------------------------------------------------------------------

Gradient of the Kohn-Sham DFT energy:
Kohn-Sham wavefunction type      ... RKS
Hartree-Fock exchange scaling    ...    0.000
Number of operators              ...    1
Number of atoms                  ...   12
Basis set dimensions             ...  114
Integral neglect threshold       ... 2.5e-11
Integral primitive cutoff        ... 2.5e-12

Nuclear repulsion gradient       ... done
One Electron Gradient            ... done
Pre-screening matrix             ... done
RI-J gradient                    ... done
Exchange-correlation gradient    ... done
Dispersion correction            ... done

------------------
CARTESIAN GRADIENT
------------------

   1   C   :    0.012272232   -0.001074578    0.015546050
   2   C   :   -0.008569700    0.001139093   -0.049487521
   3   O   :    0.003031129   -0.002835149    0.015638241
   4   C   :   -0.000460047    0.005526917    0.011179166
   5   N   :    0.004195418   -0.008017493   -0.003217753
   6   C   :   -0.007693118   -0.004198246    0.016963983
   7   H   :   -0.002373781   -0.000293185   -0.002039005
   8   H   :   -0.000599306    0.001228367   -0.003167475
   9   H   :   -0.003330057    0.005556130    0.000339237
  10   H   :    0.004447300    0.002204169   -0.005206825
  11   H   :   -0.001488110    0.002318796    0.000484001
  12   H   :    0.000568040   -0.001554819    0.002967899

Difference to translation invariance:
           :    0.0000000000    0.0000000000   -0.0000000000

Norm of the cartesian gradient     ...    0.0626618271
RMS gradient                       ...    0.0104436379
MAX gradient                       ...    0.0494875205

-------
TIMINGS
-------

Total SCF gradient time            ...        0.845 sec

One electron gradient       ....       0.011 sec  (  1.2%)
Prescreening matrices       ....       0.011 sec  (  1.3%)
RI-J Coulomb gradient       ....       0.166 sec  ( 19.7%)
XC gradient                 ....       0.184 sec  ( 21.8%)
CPCM gradient               ....       0.135 sec  ( 16.0%)
   A-Matrix (El+Nuc)        ....       0.010 sec  (  1.1%)
   Potential                ....       0.126 sec  ( 14.9%)
------------------------------------------------------------------------------
                         ORCA GEOMETRY RELAXATION STEP
------------------------------------------------------------------------------

Reading the OPT-File                    .... done
Getting information on internals        .... done
Copying old internal coords+grads       .... done
Making the new internal coordinates     .... (new redundants).... done
Validating the new internal coordinates .... (new redundants).... done
Calculating the B-matrix                .... done
Calculating the G,G- and P matrices     .... done
Transforming gradient to internals      .... done
Projecting the internal gradient        .... done
Number of atoms                         ....  12
Number of internal coordinates          ....  49
Current Energy                          ....  -285.528534571 Eh
Current gradient norm                   ....     0.062661827 Eh/bohr
Maximum allowed component of the step   ....  0.300
Current trust radius                    ....  0.300
Updating the Hessian (BFGS)             .... done
Forming the augmented Hessian           .... done
Diagonalizing the augmented Hessian     .... done
Last element of RFO vector              ....  0.946679631
Lowest eigenvalues of augmented Hessian:
 -0.006434971  0.013369324  0.014487423  0.080904718  0.098053931
Length of the computed step             ....  0.340322594
Warning: the length of the step is outside the trust region - taking restricted step instead
The input lambda is                     ....    -0.006435
   iter:   1  x=   -0.009370  g=    8.797752 f(x)=     0.025819
   iter:   2  x=   -0.010134  g=    5.956614 f(x)=     0.004552
   iter:   3  x=   -0.010171  g=    5.433920 f(x)=     0.000204
   iter:   4  x=   -0.010172  g=    5.409946 f(x)=     0.000000
   iter:   5  x=   -0.010172  g=    5.409893 f(x)=     0.000000
[...]

             **** THE GBW FILE WAS UPDATED (default_orca_scan.gbw) ****
             **** DENSITY FILE WAS UPDATED (default_orca_scan.scfp.tmp) ****
             **** ENERGY FILE WAS UPDATED (default_orca_scan.en.tmp) ****
----------------
ORBITAL ENERGIES
----------------

  NO   OCC          E(Eh)            E(eV) 
   0   2.0000     -18.734662      -509.7961 
   1   2.0000     -13.911989      -378.5645 
   2   2.0000      -9.974169      -271.4109 
   3   2.0000      -9.884081      -268.9595 
   4   2.0000      -9.883662      -268.9481 
   5   2.0000      -9.828558      -267.4487 
   6   2.0000      -0.922449       -25.1011 
   7   2.0000      -0.717955       -19.5365 
   8   2.0000      -0.671489       -18.2721 
   9   2.0000      -0.614473       -16.7206 
  10   2.0000      -0.454843       -12.3769 
  11   2.0000      -0.394278       -10.7289 
  12   2.0000      -0.390743       -10.6327 
  13   2.0000      -0.385963       -10.5026 
  14   2.0000      -0.333730        -9.0813 
  15   2.0000      -0.331198        -9.0124 
  16   2.0000      -0.312849        -8.5131 
  17   2.0000      -0.296151        -8.0587 
  18   2.0000      -0.291119        -7.9218 
  19   2.0000      -0.228629        -6.2213 
  20   2.0000      -0.228502        -6.2179 
  21   2.0000      -0.195697        -5.3252 
  22   2.0000      -0.183045        -4.9809 
  23   0.0000      -0.041733        -1.1356 
  24   0.0000       0.055382         1.5070 
  25   0.0000       0.057333         1.5601 
  26   0.0000       0.063637         1.7316 
  27   0.0000       0.106448         2.8966 
  28   0.0000       0.110753         3.0137 
  29   0.0000       0.124471         3.3870 
  30   0.0000       0.136141         3.7046 
  31   0.0000       0.146131         3.9764 
  32   0.0000       0.178788         4.8651 
  33   0.0000       0.255245         6.9456 
  34   0.0000       0.257962         7.0195 
  35   0.0000       0.276654         7.5281 
  36   0.0000       0.378746        10.3062 
  37   0.0000       0.405839        11.0434 
  38   0.0000       0.411070        11.1858 
  39   0.0000       0.463612        12.6155 
  40   0.0000       0.469580        12.7779 
  41   0.0000       0.522329        14.2133 
  42   0.0000       0.549387        14.9496 
  43   0.0000       0.554565        15.0905 
  44   0.0000       0.584334        15.9005 
  45   0.0000       0.589431        16.0392 
  46   0.0000       0.597720        16.2648 
  47   0.0000       0.620479        16.8841 
  48   0.0000       0.624336        16.9891 
  49   0.0000       0.630976        17.1697 
  50   0.0000       0.647662        17.6238 
  51   0.0000       0.656328        17.8596 
  52   0.0000       0.661991        18.0137 
  53   0.0000       0.668203        18.1827 
  54   0.0000       0.671259        18.2659 
  55   0.0000       0.763712        20.7817 
  56   0.0000       0.789175        21.4745 
  57   0.0000       0.818769        22.2798 
  58   0.0000       0.834750        22.7147 
  59   0.0000       0.860344        23.4112 
  60   0.0000       0.892143        24.2764 
  61   0.0000       0.969881        26.3918 
  62   0.0000       0.981893        26.7187 
  63   0.0000       1.085927        29.5496 
  64   0.0000       1.108835        30.1729 
  65   0.0000       1.129821        30.7440 
  66   0.0000       1.279017        34.8038 
  67   0.0000       1.302367        35.4392 
  68   0.0000       1.367469        37.2107 
  69   0.0000       1.468289        39.9542 
  70   0.0000       1.470284        40.0085 
  71   0.0000       1.507379        41.0179 
  72   0.0000       1.543540        42.0018 
  73   0.0000       1.580191        42.9992 
  74   0.0000       1.638473        44.5851 
  75   0.0000       1.645603        44.7791 
  76   0.0000       1.653583        44.9963 
  77   0.0000       1.656457        45.0745 
  78   0.0000       1.668666        45.4067 
  79   0.0000       1.706621        46.4395 
  80   0.0000       1.729004        47.0486 
  81   0.0000       1.730130        47.0792 
  82   0.0000       1.746545        47.5259 
  83   0.0000       1.761423        47.9308 
  84   0.0000       1.783720        48.5375 
  85   0.0000       1.859094        50.5885 
  86   0.0000       1.936843        52.7042 
  87   0.0000       1.990944        54.1763 
  88   0.0000       2.014426        54.8153 
  89   0.0000       2.098442        57.1015 
  90   0.0000       2.209778        60.1311 
  91   0.0000       2.236009        60.8449 
  92   0.0000       2.236775        60.8657 
  93   0.0000       2.283615        62.1403 
  94   0.0000       2.291926        62.3665 
  95   0.0000       2.361146        64.2500 
  96   0.0000       2.372249        64.5522 
  97   0.0000       2.405761        65.4641 
  98   0.0000       2.414652        65.7060 
  99   0.0000       2.549011        69.3621 
 100   0.0000       2.588281        70.4307 
 101   0.0000       2.607087        70.9424 
 102   0.0000       2.660137        72.3860 
 103   0.0000       2.736073        74.4523 
 104   0.0000       2.811457        76.5036 
 105   0.0000       2.811707        76.5104 
 106   0.0000       2.818252        76.6885 
 107   0.0000       2.832418        77.0740 
 108   0.0000       2.868242        78.0488 
 109   0.0000       2.931997        79.7837 
 110   0.0000       3.063558        83.3636 
 111   0.0000       3.210076        87.3506 
 112   0.0000       3.266039        88.8734 
 113   0.0000       3.499487        95.2259 

                    ********************************
                    * MULLIKEN POPULATION ANALYSIS *
                    ********************************

-----------------------
MULLIKEN ATOMIC CHARGES
-----------------------
   0 C :   -0.007049
   1 C :   -0.020903
   2 O :   -0.306567
   3 C :   -0.640456
   4 N :   -0.296232
   5 C :   -0.013302
   6 H :    0.031103
   7 H :    0.062977
   8 H :    0.044774
   9 H :    0.067275
  10 H :    0.031445
  11 H :    0.046935
Sum of atomic charges:   -1.0000000

--------------------------------
MULLIKEN REDUCED ORBITAL CHARGES
--------------------------------
  0 C s       :     2.986873  s :     2.986873
      pz      :     1.011964  p :     2.999337
      px      :     0.993646
      py      :     0.993727
      dz2     :     0.005459  d :     0.020839
      dxz     :     0.004678
      dyz     :     0.001509
      dx2y2   :     0.003303
      dxy     :     0.005890
  1 C s       :     3.188598  s :     3.188598
      pz      :     0.888767  p :     2.742364
      px      :     0.972116
      py      :     0.881480
      dz2     :     0.023178  d :     0.089940
      dxz     :     0.025133
      dyz     :     0.018885
      dx2y2   :     0.011146
      dxy     :     0.011598
  2 O s       :     3.753210  s :     3.753210
      pz      :     1.379353  p :     4.538211
      px      :     1.673807
      py      :     1.485051
      dz2     :     0.005277  d :     0.015146
      dxz     :     0.002959
      dyz     :     0.004811
      dx2y2   :     0.001071
      dxy     :     0.001029
  3 C s       :     3.918683  s :     3.918683
      pz      :     0.829043  p :     2.680950
      px      :     0.893424
      py      :     0.958484
      dz2     :     0.004240  d :     0.040823
      dxz     :     0.004812
      dyz     :     0.008624
      dx2y2   :     0.012530
      dxy     :     0.010617
  4 N s       :     3.640008  s :     3.640008
      pz      :     1.168034  p :     3.634730
      px      :     1.211797
      py      :     1.254899
      dz2     :     0.002370  d :     0.021494
      dxz     :     0.002410
      dyz     :     0.004318
      dx2y2   :     0.006236
      dxy     :     0.006159
  5 C s       :     2.990052  s :     2.990052
      pz      :     0.998972  p :     3.002410
      px      :     0.988913
      py      :     1.014525
      dz2     :     0.005719  d :     0.020840
      dxz     :     0.004997
      dyz     :     0.001592
      dx2y2   :     0.002508
      dxy     :     0.006024
  6 H s       :     0.946156  s :     0.946156
      pz      :     0.008000  p :     0.022741
      px      :     0.010202
      py      :     0.004538
  7 H s       :     0.912677  s :     0.912677
      pz      :     0.005835  p :     0.024346
      px      :     0.006509
      py      :     0.012002
  8 H s       :     0.931552  s :     0.931552
      pz      :     0.013264  p :     0.023674
      px      :     0.005396
      py      :     0.005014
  9 H s       :     0.908397  s :     0.908397
      pz      :     0.005479  p :     0.024329
      px      :     0.008809
      py      :     0.010040
 10 H s       :     0.945905  s :     0.945905
      pz      :     0.004952  p :     0.022650
      px      :     0.006358
      py      :     0.011340
 11 H s       :     0.929457  s :     0.929457
      pz      :     0.012905  p :     0.023608
      px      :     0.005520
      py      :     0.005183


                     *******************************
                     * LOEWDIN POPULATION ANALYSIS *
                     *******************************

----------------------
LOEWDIN ATOMIC CHARGES
----------------------
   0 C :   -0.095164
   1 C :    0.085641
   2 O :   -0.241068
   3 C :   -0.566499
   4 N :   -0.358597
   5 C :   -0.096696
   6 H :    0.036036
   7 H :    0.057222
   8 H :    0.042549
   9 H :    0.057863
  10 H :    0.036076
  11 H :    0.042636

-------------------------------
LOEWDIN REDUCED ORBITAL CHARGES
-------------------------------
  0 C s       :     2.863210  s :     2.863210
      pz      :     1.071895  p :     3.170095
      px      :     1.047973
      py      :     1.050227
      dz2     :     0.016015  d :     0.061859
      dxz     :     0.013984
      dyz     :     0.003967
      dx2y2   :     0.009515
      dxy     :     0.018378
  1 C s       :     2.899566  s :     2.899566
      pz      :     0.960342  p :     2.808443
      px      :     0.955116
      py      :     0.892985
      dz2     :     0.051545  d :     0.206350
      dxz     :     0.060164
      dyz     :     0.044755
      dx2y2   :     0.023717
      dxy     :     0.026170
  2 O s       :     3.559056  s :     3.559056
      pz      :     1.471487  p :     4.654979
      px      :     1.672539
      py      :     1.510954
      dz2     :     0.009412  d :     0.027032
      dxz     :     0.004739
      dyz     :     0.009646
      dx2y2   :     0.001722
      dxy     :     0.001514
  3 C s       :     3.514037  s :     3.514037
      pz      :     0.841359  p :     2.966757
      px      :     0.988343
      py      :     1.137056
      dz2     :     0.010524  d :     0.085705
      dxz     :     0.008725
      dyz     :     0.015687
      dx2y2   :     0.022153
      dxy     :     0.028615
  4 N s       :     3.487597  s :     3.487597
      pz      :     1.161034  p :     3.832871
      px      :     1.277778
      py      :     1.394059
      dz2     :     0.004944  d :     0.038128
      dxz     :     0.003640
      dyz     :     0.006554
      dx2y2   :     0.009175
      dxy     :     0.013814
  5 C s       :     2.863696  s :     2.863696
      pz      :     1.059529  p :     3.171196
      px      :     1.045018
      py      :     1.066649
      dz2     :     0.016821  d :     0.061803
      dxz     :     0.016088
      dyz     :     0.003773
      dx2y2   :     0.007608
      dxy     :     0.017514
  6 H s       :     0.898480  s :     0.898480
      pz      :     0.022007  p :     0.065484
      px      :     0.031444
      py      :     0.012033
  7 H s       :     0.876566  s :     0.876566
      pz      :     0.013250  p :     0.066212
      px      :     0.017802
      py      :     0.035160
  8 H s       :     0.890259  s :     0.890259
      pz      :     0.039828  p :     0.067192
      px      :     0.014214
      py      :     0.013150
  9 H s       :     0.875889  s :     0.875889
      pz      :     0.013328  p :     0.066248
      px      :     0.024793
      py      :     0.028127
 10 H s       :     0.898557  s :     0.898557
      pz      :     0.013133  p :     0.065368
      px      :     0.019161
      py      :     0.033074
 11 H s       :     0.890131  s :     0.890131
      pz      :     0.039635  p :     0.067233
      px      :     0.015384
      py      :     0.012213


                      *****************************
                      * MAYER POPULATION ANALYSIS *
                      *****************************

  NA   - Mulliken gross atomic population
  ZA   - Total nuclear charge
  QA   - Mulliken gross atomic charge
  VA   - Mayer's total valence
  BVA  - Mayer's bonded valence
  FA   - Mayer's free valence

  ATOM       NA         ZA         QA         VA         BVA        FA
  0 C      6.0070     6.0000    -0.0070     3.8318     3.8318    -0.0000
  1 C      6.0209     6.0000    -0.0209     4.3763     4.3763     0.0000
  2 O      8.3066     8.0000    -0.3066     2.1853     2.1853     0.0000
  3 C      6.6405     6.0000    -0.6405     2.9195     2.9195    -0.0000
  4 N      7.2962     7.0000    -0.2962     2.7971     2.7971    -0.0000
  5 C      6.0133     6.0000    -0.0133     3.8278     3.8278     0.0000
  6 H      0.9689     1.0000     0.0311     1.0199     1.0199     0.0000
  7 H      0.9370     1.0000     0.0630     0.9938     0.9938     0.0000
  8 H      0.9552     1.0000     0.0448     1.0170     1.0170     0.0000
  9 H      0.9327     1.0000     0.0673     0.9933     0.9933    -0.0000
 10 H      0.9686     1.0000     0.0314     1.0202     1.0202    -0.0000
 11 H      0.9531     1.0000     0.0469     1.0158     1.0158    -0.0000

  Mayer bond orders larger than 0.1
B(  0-C ,  1-C ) :   1.0438 B(  0-C ,  6-H ) :   0.9473 B(  0-C ,  7-H ) :   0.9328 
B(  0-C ,  8-H ) :   0.9394 B(  1-C ,  2-O ) :   2.0569 B(  1-C ,  5-C ) :   1.0390 
B(  3-C ,  4-N ) :   2.7862 B(  5-C ,  9-H ) :   0.9330 B(  5-C , 10-H ) :   0.9476 
B(  5-C , 11-H ) :   0.9406 

-------
TIMINGS
-------

Total SCF time: 0 days 0 hours 0 min 4 sec 

Total time                  ....       4.122 sec
Sum of individual times     ....       3.882 sec  ( 94.2%)

Fock matrix formation       ....       3.582 sec  ( 86.9%)
  Split-RI-J                ....       1.035 sec  ( 28.9% of F)
  XC integration            ....       0.401 sec  ( 11.2% of F)
    Basis function eval.    ....       0.125 sec  ( 31.1% of XC)
    Density eval.           ....       0.044 sec  ( 10.9% of XC)
    XC-Functional eval.     ....       0.027 sec  (  6.7% of XC)
    XC-Potential eval.      ....       0.073 sec  ( 18.3% of XC)
Diagonalization             ....       0.002 sec  (  0.0%)
Density matrix formation    ....       0.002 sec  (  0.0%)
Population analysis         ....       0.003 sec  (  0.1%)
Initial guess               ....       0.006 sec  (  0.1%)
Orbital Transformation      ....       0.000 sec  (  0.0%)
Orbital Orthonormalization  ....       0.003 sec  (  0.1%)
DIIS solution               ....       0.000 sec  (  0.0%)
SOSCF solution              ....       0.009 sec  (  0.2%)
Grid generation             ....       0.277 sec  (  6.7%)


-------------------------------------------------------------------------------
                          DFT DISPERSION CORRECTION                            
                                                                               
                              DFTD3 V3.1  Rev 1                                
                          USING Becke-Johnson damping                          
-------------------------------------------------------------------------------
The PBE functional is recognized
Active option DFTDOPT                   ...         4   

molecular C6(AA) [au] = 1509.715671 


            DFT-D V3
 parameters
 s6 scaling factor         :     1.0000 
 a1 scaling factor         :     0.4289 
 s8 scaling factor         :     0.7875 
 a2 scaling factor         :     4.4407 
 ad hoc parameters k1-k3   :    16.0000     1.3333    -4.0000 

 Edisp/kcal,au: -5.431480513036  -0.008655614231 
 E6   /kcal   :  -3.875352996 
 E8   /kcal   :  -1.556127517 
 % E8         :  28.650153729 

-------------------------   ----------------
Dispersion correction           -0.008655614
-------------------------   ----------------


-------------------------   --------------------
FINAL SINGLE POINT ENERGY      -285.539270012679
-------------------------   --------------------

                                *** OPTIMIZATION RUN DONE ***

Storing optimized geometry in default_orca_scan.010.xyz ... done
Storing optimized geometry and energy in default_orca_scan.xyzall ... done
Storing actual gbw-file in default_orca_scan.010.gbw ... done

                            ***************************************
                            *     ORCA property calculations      *
                            ***************************************

                                    ---------------------
                                    Active property flags
                                    ---------------------
   (+) Dipole Moment


------------------------------------------------------------------------------
                       ORCA ELECTRIC PROPERTIES CALCULATION
------------------------------------------------------------------------------

Dipole Moment Calculation                       ... on
Quadrupole Moment Calculation                   ... off
Polarizability Calculation                      ... off
GBWName                                         ... default_orca_scan.gbw
Electron density file                           ... default_orca_scan.scfp.tmp
The origin for moment calculation is the CENTER OF MASS  = (-0.647802,  1.147565  0.266396)

-------------
DIPOLE MOMENT
-------------
                                X             Y             Z
Electronic contribution:     -1.65287       3.51579       2.05139
Nuclear contribution   :      4.09638      -7.12013      -1.36680
                        -----------------------------------------
Total Dipole Moment    :      2.44351      -3.60434       0.68459
                        -----------------------------------------
Magnitude (a.u.)       :      4.40803
Magnitude (Debye)      :     11.20431



--------------------
Rotational spectrum 
--------------------
 
Rotational constants in cm-1:     0.162018     0.056843     0.055277 
Rotational constants in MHz :  4857.174576  1704.107878  1657.173560 

 Dipole components along the rotational axes: 
x,y,z [a.u.] :     4.200403    -0.012820    -1.336843 
x,y,z [Debye]:    10.676576    -0.032587    -3.397985 

 
                   **** RELAXED SURFACE SCAN DONE ***

                    SUMMARY OF THE CALCULATED SURFACE

----------------------------
RELAXED SURFACE SCAN RESULTS
----------------------------

Column   1: NONAME

The Calculated Surface using the 'Actual Energy'
   1.48300000 -285.54413815
   1.64966667 -285.54226383
   1.81633333 -285.53683875
   1.98300000 -285.53364257
   2.14966667 -285.53328068
   2.31633333 -285.53428333
   2.48300000 -285.53581203
   2.64966667 -285.53712913
   2.81633333 -285.53847741
   2.98300000 -285.53927001

The Calculated Surface using the SCF energy
   1.48300000 -285.53469425
   1.64966667 -285.53296166
   1.81633333 -285.52765320
   1.98300000 -285.52430589
   2.14966667 -285.52364425
   2.31633333 -285.52475756
   2.48300000 -285.52647419
   2.64966667 -285.52801563
   2.81633333 -285.52958394
   2.98300000 -285.53061440


Timings for individual modules:

Sum of individual times         ...      530.615 sec (=   8.844 min)
GTO integral calculation        ...       64.831 sec (=   1.081 min)  12.2 %
SCF iterations                  ...      367.203 sec (=   6.120 min)  69.2 %
SCF Gradient evaluation         ...       94.795 sec (=   1.580 min)  17.9 %
Geometry relaxation             ...        3.787 sec (=   0.063 min)   0.7 %
                             ****ORCA TERMINATED NORMALLY****
TOTAL RUN TIME: 0 days 0 hours 9 minutes 1 seconds 637 msec
