
                                 *****************
                                 * O   R   C   A *
                                 *****************

           --- An Ab Initio, DFT and Semiempirical electronic structure package ---

                  #######################################################
                  #                        -***-                        #
                  #          Department of theory and spectroscopy      #
                  #               Directorship: Frank Neese             #
                  #        Max Planck Institute fuer Kohlenforschung    #
                  #                Kaiser Wilhelm Platz 1               #
                  #                 D-45470 Muelheim/Ruhr               #
                  #                      Germany                        #
                  #                                                     #
                  #                  All rights reserved                #
                  #                        -***-                        #
                  #######################################################


                         Program Version 4.1.1  - RELEASE  -


 With contributions from (in alphabetic order):
   Daniel Aravena         : Magnetic Properties
   Michael Atanasov       : Ab Initio Ligand Field Theory
   Alexander A. Auer      : GIAO ZORA
   Ute Becker             : Parallelization
   Giovanni Bistoni       : ED, Open-shell LED
   Martin Brehm           : Molecular dynamics
   Dmytro Bykov           : SCF Hessian
   Vijay G. Chilkuri      : MRCI spin determinant printing
   Dipayan Datta          : RHF DLPNO-CCSD density
   Achintya Kumar Dutta   : EOM-CC, STEOM-CC
   Dmitry Ganyushin       : Spin-Orbit,Spin-Spin,Magnetic field MRCI
   Miquel Garcia          : C-PCM Hessian
   Yang Guo               : DLPNO-NEVPT2, CIM, IAO-localization
   Andreas Hansen         : Spin unrestricted coupled pair/coupled cluster methods
   Benjamin Helmich-Paris : CASSCF linear response (MC-RPA)
   Lee Huntington         : MR-EOM, pCC
   Robert Izsak           : Overlap fitted RIJCOSX, COSX-SCS-MP3, EOM
   Christian Kollmar      : KDIIS, OOCD, Brueckner-CCSD(T), CCSD density
   Simone Kossmann        : Meta GGA functionals, TD-DFT gradient, OOMP2, MP2 Hessian
   Martin Krupicka        : AUTO-CI
   Lucas Lang             : DCDCAS
   Dagmar Lenk            : GEPOL surface, SMD
   Dimitrios Liakos       : Extrapolation schemes; parallel MDCI
   Dimitrios Manganas     : ROCIS; embedding schemes
   Dimitrios Pantazis     : SARC Basis sets
   Taras Petrenko         : DFT Hessian,TD-DFT gradient, ASA, ECA, R-Raman, ABS, FL, XAS/XES, NRVS
   Peter Pinski           : DLPNO-MP2, DLPNO-MP2 Gradient
   Christoph Reimann      : Effective Core Potentials
   Marius Retegan         : Local ZFS, SOC
   Christoph Riplinger    : Optimizer, TS searches, QM/MM, DLPNO-CCSD(T), (RO)-DLPNO pert. Triples
   Tobias Risthaus        : Range-separated hybrids, TD-DFT gradient, RPA, STAB
   Michael Roemelt        : Restricted open shell CIS
   Masaaki Saitow         : Open-shell DLPNO
   Barbara Sandhoefer     : DKH picture change effects
   Avijit Sen             : IP-ROCIS
   Kantharuban Sivalingam : CASSCF convergence, NEVPT2, FIC-MRCI
   Bernardo de Souza      : ESD, SOC TD-DFT
   Georgi Stoychev        : AutoAux, RI-MP2 NMR
   Willem Van den Heuvel  : Paramagnetic NMR
   Boris Wezisla          : Elementary symmetry handling
   Frank Wennmohs         : Technical directorship


 We gratefully acknowledge several colleagues who have allowed us to
 interface, adapt or use parts of their codes:
   Stefan Grimme, W. Hujo, H. Kruse,             : VdW corrections, initial TS optimization,
                  C. Bannwarth                     DFT functionals, gCP, sTDA/sTD-DF
   Ed Valeev                                     : LibInt (2-el integral package), F12 methods
   Garnet Chan, S. Sharma, J. Yang, R. Olivares  : DMRG
   Ulf Ekstrom                                   : XCFun DFT Library
   Mihaly Kallay                                 : mrcc  (arbitrary order and MRCC methods)
   Andreas Klamt, Michael Diedenhofen            : otool_cosmo (COSMO solvation model)
   Jiri Pittner, Ondrej Demel                    : Mk-CCSD
   Frank Weinhold                                : gennbo (NPA and NBO analysis)
   Christopher J. Cramer and Donald G. Truhlar   : smd solvation model
   Lars Goerigk                                  : TD-DFT with DH, B97 family of functionals
   V. Asgeirsson, H. Jonsson                     : NEB implementation
   FAccTs GmbH                                   : IRC, NEB, NEB-TS, Multilevel


 Your calculation uses the libint2 library for the computation of 2-el integrals
 For citations please refer to: http://libint.valeyev.net

 This ORCA versions uses:
   CBLAS   interface :  Fast vector & matrix operations
   LAPACKE interface :  Fast linear algebra routines
   SCALAPACK package :  Parallel linear algebra routines


Your calculation utilizes the atom-pairwise dispersion correction
with the Becke-Johnson damping scheme (D3BJ)
Cite in your paper:
S.Grimme, S.Ehrlich, L.Goerigk, J Comput Chem, (2011), 32, 1456–1465 
S.Grimme, J.Antony, S.Ehrlich and H.Krieg, J.Chem.Phys., 132, (2010), 154104 
   

Your calculation utilizes the SMD solvation module
Please cite in your paper:
A.V. Marenich, C.J. Cramer, D.G. Truhlar J. Phys. Chem. B, 113, (2009), 6378 

----- Orbital basis set information -----
Your calculation utilizes the basis: def2-SVP
   F. Weigend and R. Ahlrichs, Phys. Chem. Chem. Phys. 7, 3297 (2005).

----- AuxJ basis set information -----
Your calculation utilizes the auxiliary basis: def2/J
   F. Weigend, Phys. Chem. Chem. Phys. 8, 1057 (2006).

================================================================================
                                        WARNINGS
                       Please study these warnings very carefully!
================================================================================


WARNING: Geometry Optimization
  ===> : Switching off AutoStart
         For restart on a previous wavefunction, please use MOREAD

INFO   : the flag for use of LIBINT has been found!

================================================================================
                                       INPUT FILE
================================================================================
NAME = get_orca_ts_guess_coarse_TS_orca_opt.inp
|  1> ! OptTS Freq PBE0 RIJCOSX D3BJ def2-SVP def2/J PAL8
|  2> %cpcm
|  3>  smd true
|  4>  SMDsolvent "water"
|  5>  end
|  6> %geom
|  7> Calc_Hess true
|  8> Recalc_Hess 40
|  9> Trust 0.2
| 10> MaxIter 100
| 11> end
| 12> %geom
| 13> modify_internal
| 14> { B 1 3 A } end
| 15> end
| 16> %scf 
| 17> maxiter 250 
| 18> end
| 19> % maxcore 4000
| 20> *xyz -1 1
| 21> C	-0.780925	-1.123898	0.265137
| 22> C	0.098618	0.09093	0.560098
| 23> O	0.149725	0.529906	1.740242
| 24> C	-1.091727	1.503977	-0.538739
| 25> N	-1.760564	2.452931	-0.788088
| 26> C	1.341422	0.20705	-0.321922
| 27> H	-1.742314	-1.040251	0.80663
| 28> H	-0.252583	-2.023941	0.653446
| 29> H	-0.975809	-1.27039	-0.814165
| 30> H	2.06526	-0.569439	0.014985
| 31> H	1.818728	1.196366	-0.181022
| 32> H	1.129968	0.04676	-1.396701
| 33> *
| 34> 
| 35>                          ****END OF INPUT****
================================================================================

                       *****************************
                       * Geometry Optimization Run *
                       *****************************

Geometry optimization settings:
Update method            Update   .... Bofill
Choice of coordinates    CoordSys .... Z-matrix Internals
Initial Hessian          InHess   .... Almoef's Model

Convergence Tolerances:
Energy Change            TolE     ....  5.0000e-06 Eh
Max. Gradient            TolMAXG  ....  3.0000e-04 Eh/bohr
RMS Gradient             TolRMSG  ....  1.0000e-04 Eh/bohr
Max. Displacement        TolMAXD  ....  4.0000e-03 bohr
RMS Displacement         TolRMSD  ....  2.0000e-03 bohr

------------------------------------------------------------------------------
                        ORCA OPTIMIZATION COORDINATE SETUP
------------------------------------------------------------------------------

The optimization will be done in new redundant internal coordinates
Making redundant internal coordinates   ...  (new redundants) Bond   3,  1 is already included
done
Following TS mode number                ...     0
Evaluating the initial hessian          ...  (Is done on the fly) done
Evaluating the coordinates              ...  done
Calculating the B-matrix                .... done
Calculating the G-matrix                .... done
Diagonalizing the G-matrix              .... done
The first mode is                       ....   89
The number of degrees of freedom        ....   30

    -----------------------------------------------------------------
                    Redundant Internal Coordinates


    -----------------------------------------------------------------
         Definition                    Initial Value    d2E/dq (diagonal element)
    -----------------------------------------------------------------
      1. B(C   1,C   0)                  1.5285         0.000000   
      2. B(O   2,C   1)                  1.2602         0.000000   
      3. B(C   3,C   0)                  2.7656         0.000000   
      4. B(C   3,O   2)                  2.7720         0.000000   
      5. B(C   3,C   1)                  2.1497         0.000000   
      6. B(N   4,C   3)                  1.1874         0.000000   
      7. B(C   5,C   3)                  2.7657         0.000000   
      8. B(C   5,C   1)                  1.5284         0.000000   
      9. B(H   6,C   0)                  1.1066         0.000000   
     10. B(H   7,C   0)                  1.1136         0.000000   
     11. B(H   8,C   3)                  2.7904         0.000000   
     12. B(H   8,C   0)                  1.1065         0.000000   
     13. B(H   9,C   5)                  1.1137         0.000000   
     14. B(H  10,C   5)                  1.1074         0.000000   
     15. B(H  11,C   5)                  1.1070         0.000000   
     16. B(H  11,C   3)                  2.7920         0.000000   
     17. A(C   3,C   0,H   8)           79.7747         0.000000   
     18. A(C   3,C   0,H   7)          157.3226         0.000000   
     19. A(H   7,C   0,H   8)          108.4634         0.000000   
     20. A(C   1,C   0,H   7)          107.5822         0.000000   
     21. A(C   1,C   0,H   8)          113.2533         0.000000   
     22. A(C   3,C   0,H   6)           88.4398         0.000000   
     23. A(C   1,C   0,C   3)           50.6221         0.000000   
     24. A(H   6,C   0,H   8)          109.5305         0.000000   
     25. A(H   6,C   0,H   7)          107.6183         0.000000   
     26. A(C   1,C   0,H   6)          110.2074         0.000000   
     27. A(O   2,C   1,C   3)          105.7941         0.000000   
     28. A(C   3,C   1,C   5)           96.0465         0.000000   
     29. A(C   0,C   1,O   2)          118.7444         0.000000   
     30. A(C   0,C   1,C   3)           96.0363         0.000000   
     31. A(O   2,C   1,C   5)          118.7503         0.000000   
     32. A(C   0,C   1,C   5)          114.6401         0.000000   
     33. A(C   1,O   2,C   3)           48.2645         0.000000   
     34. A(N   4,C   3,C   5)          152.4655         0.000000   
     35. A(C   1,C   3,O   2)           25.9415         0.000000   
     36. A(C   0,C   3,O   2)           51.4492         0.000000   
     37. A(O   2,C   3,N   4)          134.8882         0.000000   
     38. A(C   0,C   3,C   1)           33.3416         0.000000   
     39. A(C   1,C   3,N   4)          160.8292         0.000000   
     40. A(O   2,C   3,C   5)           51.4469         0.000000   
     41. A(C   1,C   3,C   5)           33.3359         0.000000   
     42. A(C   0,C   3,C   5)           55.4427         0.000000   
     43. A(C   0,C   3,N   4)          152.0912         0.000000   
     44. A(C   1,C   5,C   3)           50.6175         0.000000   
     45. A(H  10,C   5,H  11)          109.5843         0.000000   
     46. A(H   9,C   5,H  11)          108.4743         0.000000   
     47. A(C   1,C   5,H  11)          113.2005         0.000000   
     48. A(H   9,C   5,H  10)          107.7118         0.000000   
     49. A(C   1,C   5,H  10)          110.1764         0.000000   
     50. A(C   1,C   5,H   9)          107.5140         0.000000   
     51. A(C   3,C   5,H  11)           79.8485         0.000000   
     52. A(C   3,C   5,H  10)           88.2944         0.000000   
     53. A(C   3,C   5,H   9)          157.2830         0.000000   
     54. D(C   5,C   1,C   0,C   3)    -99.4994         0.000000   
     55. D(C   5,C   1,C   0,H   7)     73.2925         0.000000   
     56. D(C   3,C   1,C   0,H   8)     52.9404         0.000000   
     57. D(C   5,C   1,C   0,H   6)   -169.6447         0.000000   
     58. D(C   3,C   1,C   0,H   6)    -70.1453         0.000000   
     59. D(C   5,C   1,C   0,H   8)    -46.5590         0.000000   
     60. D(C   3,C   1,C   0,H   7)    172.7919         0.000000   
     61. D(O   2,C   1,C   0,H   6)     41.5805         0.000000   
     62. D(O   2,C   1,C   0,H   8)    164.6662         0.000000   
     63. D(O   2,C   1,C   0,H   7)    -75.4822         0.000000   
     64. D(O   2,C   1,C   0,C   3)    111.7258         0.000000   
     65. D(C   3,O   2,C   1,C   5)    106.2629         0.000000   
     66. D(C   3,O   2,C   1,C   0)   -106.2477         0.000000   
     67. D(O   2,C   3,C   0,H   6)     89.7347         0.000000   
     68. D(C   5,C   3,C   0,H   8)    -94.8581         0.000000   
     69. D(N   4,C   3,C   0,H   6)    -25.3171         0.000000   
     70. D(C   5,C   3,C   0,C   1)     36.9812         0.000000   
     71. D(C   5,C   3,C   0,H   7)     18.9073         0.000000   
     72. D(O   2,C   3,C   0,H   8)   -160.0992         0.000000   
     73. D(N   4,C   3,C   1,O   2)     -0.5578         0.000000   
     74. D(N   4,C   3,C   1,C   5)   -122.7407         0.000000   
     75. D(N   4,C   3,C   1,C   0)    121.6147         0.000000   
     76. D(O   2,C   3,C   0,C   1)    -28.2599         0.000000   
     77. D(C   1,C   3,C   0,H   8)   -131.8393         0.000000   
     78. D(C   5,C   3,C   0,H   6)    154.9758         0.000000   
     79. D(C   5,C   3,O   2,C   1)    -36.4946         0.000000   
     80. D(N   4,C   3,C   0,C   1)   -143.3117         0.000000   
     81. D(C   1,C   3,C   0,H   7)    -18.0738         0.000000   
     82. D(O   2,C   3,C   0,H   7)    -46.3338         0.000000   
     83. D(C   5,C   3,C   1,C   0)   -115.6446         0.000000   
     84. D(C   1,C   3,C   0,H   6)    117.9946         0.000000   
     85. D(O   2,C   3,C   1,C   5)   -122.1829         0.000000   
     86. D(O   2,C   3,C   1,C   0)    122.1725         0.000000   
     87. D(N   4,C   3,C   0,H   8)     84.8490         0.000000   
     88. D(C   0,C   3,C   1,C   5)    115.6446         0.000000   
     89. D(C   5,C   3,C   1,O   2)    122.1829         0.000000   
     90. D(N   4,C   3,O   2,C   1)    179.7415         0.000000   
     91. D(C   0,C   3,O   2,C   1)     36.5044         0.000000   
     92. D(N   4,C   3,C   0,H   7)   -161.3856         0.000000   
     93. D(C   0,C   3,C   1,O   2)   -122.1725         0.000000   
     94. D(H  10,C   5,C   3,O   2)    -89.8342         0.000000   
     95. D(H  10,C   5,C   3,C   1)   -118.0916         0.000000   
     96. D(H  10,C   5,C   3,C   0)   -155.0793         0.000000   
     97. D(H   9,C   5,C   3,O   2)     45.9742         0.000000   
     98. D(H   9,C   5,C   3,C   1)     17.7169         0.000000   
     99. D(H   9,C   5,C   3,C   0)    -19.2708         0.000000   
    100. D(C   1,C   5,C   3,O   2)     28.2574         0.000000   
    101. D(C   1,C   5,C   3,C   0)    -36.9877         0.000000   
    102. D(C   1,C   5,C   3,N   4)    143.3089         0.000000   
    103. D(C   3,C   5,C   1,O   2)   -111.7342         0.000000   
    104. D(C   3,C   5,C   1,C   0)     99.4930         0.000000   
    105. D(H  11,C   5,C   1,C   3)    -53.1345         0.000000   
    106. D(H  11,C   5,C   1,O   2)   -164.8687         0.000000   
    107. D(H   9,C   5,C   3,N   4)    161.0258         0.000000   
    108. D(H  11,C   5,C   1,C   0)     46.3585         0.000000   
    109. D(H  10,C   5,C   1,C   3)     69.9601         0.000000   
    110. D(H  10,C   5,C   1,O   2)    -41.7741         0.000000   
    111. D(H  10,C   5,C   3,N   4)     25.2173         0.000000   
    112. D(H  10,C   5,C   1,C   0)    169.4531         0.000000   
    113. D(H   9,C   5,C   1,C   3)   -172.9213         0.000000   
    114. D(H   9,C   5,C   1,O   2)     75.3445         0.000000   
    115. D(H  11,C   5,C   3,N   4)    -85.0259         0.000000   
    116. D(H   9,C   5,C   1,C   0)    -73.4283         0.000000   
    117. D(H  11,C   5,C   3,O   2)    159.9225         0.000000   
    118. D(H  11,C   5,C   3,C   1)    131.6652         0.000000   
    119. D(H  11,C   5,C   3,C   0)     94.6775         0.000000   
    -----------------------------------------------------------------

Number of atoms                         .... 12
Number of degrees of freedom            .... 119

         *************************************************************
         *                GEOMETRY OPTIMIZATION CYCLE   1            *
         *************************************************************
---------------------------------
CARTESIAN COORDINATES (ANGSTROEM)
---------------------------------
  C     -0.780925   -1.123898    0.265137
  C      0.098618    0.090930    0.560098
  O      0.149725    0.529906    1.740242
  C     -1.091727    1.503977   -0.538739
  N     -1.760564    2.452931   -0.788088
  C      1.341422    0.207050   -0.321922
  H     -1.742314   -1.040251    0.806630
  H     -0.252583   -2.023941    0.653446
  H     -0.975809   -1.270390   -0.814165
  H      2.065260   -0.569439    0.014985
  H      1.818728    1.196366   -0.181022
  H      1.129968    0.046760   -1.396701

----------------------------
CARTESIAN COORDINATES (A.U.)
----------------------------
  NO LB      ZA    FRAG     MASS         X           Y           Z
   0 C     6.0000    0    12.011   -1.475734   -2.123859    0.501036
   1 C     6.0000    0    12.011    0.186361    0.171833    1.058432
   2 O     8.0000    0    15.999    0.282939    1.001377    3.288581
   3 C     6.0000    0    12.011   -2.063065    2.842105   -1.018069
   4 N     7.0000    0    14.007   -3.326984    4.635368   -1.489270
   5 C     6.0000    0    12.011    2.534920    0.391268   -0.608344
   6 H     1.0000    0     1.008   -3.292496   -1.965790    1.524310
   7 H     1.0000    0     1.008   -0.477313   -3.824694    1.234834
   8 H     1.0000    0     1.008   -1.844012   -2.400689   -1.538549
   9 H     1.0000    0     1.008    3.902776   -1.076084    0.028318
  10 H     1.0000    0     1.008    3.436898    2.260804   -0.342082
  11 H     1.0000    0     1.008    2.135330    0.088364   -2.639382

--------------------------------
INTERNAL COORDINATES (ANGSTROEM)
--------------------------------
 C      0   0   0     0.000000000000     0.00000000     0.00000000
 C      1   0   0     1.528530323531     0.00000000     0.00000000
 O      2   1   0     1.260179239141   118.74444823     0.00000000
 C      2   1   3     2.149666438265    96.03634056   248.27416727
 N      4   2   1     1.187447493781   160.82916729   121.61468131
 C      2   1   3     1.528399462580   114.64010631   148.77472768
 H      1   2   3     1.106562379163   110.20738766    41.58054393
 H      1   2   3     1.113555813731   107.58223648   284.51775331
 H      1   2   3     1.106495588208   113.25325919   164.66623568
 H      6   2   1     1.113724806231   107.51404026   286.57169441
 H      6   2   1     1.107438474811   110.17641045   169.45314771
 H      6   2   1     1.107048136739   113.20049630    46.35851089

---------------------------
INTERNAL COORDINATES (A.U.)
---------------------------
 C      0   0   0     0.000000000000     0.00000000     0.00000000
 C      1   0   0     2.888503698868     0.00000000     0.00000000
 O      2   1   0     2.381393641629   118.74444823     0.00000000
 C      2   1   3     4.062280847603    96.03634056   248.27416727
 N      4   2   1     2.243950561657   160.82916729   121.61468131
 C      2   1   3     2.888256407509   114.64010631   148.77472768
 H      1   2   3     2.091099846719   110.20738766    41.58054393
 H      1   2   3     2.104315522787   107.58223648   284.51775331
 H      1   2   3     2.090973630105   113.25325919   164.66623568
 H      6   2   1     2.104634872331   107.51404026   286.57169441
 H      6   2   1     2.092755427560   110.17641045   169.45314771
 H      6   2   1     2.092017795504   113.20049630    46.35851089

---------------------
BASIS SET INFORMATION
---------------------
There are 4 groups of distinct atoms

 Group   1 Type C   : 7s4p1d contracted to 3s2p1d pattern {511/31/1}
 Group   2 Type O   : 7s4p1d contracted to 3s2p1d pattern {511/31/1}
 Group   3 Type N   : 7s4p1d contracted to 3s2p1d pattern {511/31/1}
 Group   4 Type H   : 4s1p contracted to 2s1p pattern {31/1}

Atom   0C    basis set group =>   1
Atom   1C    basis set group =>   1
Atom   2O    basis set group =>   2
Atom   3C    basis set group =>   1
Atom   4N    basis set group =>   3
Atom   5C    basis set group =>   1
Atom   6H    basis set group =>   4
Atom   7H    basis set group =>   4
Atom   8H    basis set group =>   4
Atom   9H    basis set group =>   4
Atom  10H    basis set group =>   4
Atom  11H    basis set group =>   4
-------------------------------
AUXILIARY BASIS SET INFORMATION
-------------------------------
There are 4 groups of distinct atoms

 Group   1 Type C   : 12s5p4d2f1g contracted to 6s4p3d1f1g pattern {711111/2111/211/2/1}
 Group   2 Type O   : 12s5p4d2f1g contracted to 6s4p3d1f1g pattern {711111/2111/211/2/1}
 Group   3 Type N   : 12s5p4d2f1g contracted to 6s4p3d1f1g pattern {711111/2111/211/2/1}
 Group   4 Type H   : 5s2p1d contracted to 3s1p1d pattern {311/2/1}

Atom   0C    basis set group =>   1
Atom   1C    basis set group =>   1
Atom   2O    basis set group =>   2
Atom   3C    basis set group =>   1
Atom   4N    basis set group =>   3
Atom   5C    basis set group =>   1
Atom   6H    basis set group =>   4
Atom   7H    basis set group =>   4
Atom   8H    basis set group =>   4
Atom   9H    basis set group =>   4
Atom  10H    basis set group =>   4
Atom  11H    basis set group =>   4


           ************************************************************
           *        Program running with 8 parallel MPI-processes     *
           *              working on a common directory               *
           ************************************************************
------------------------------------------------------------------------------
                           ORCA GTO INTEGRAL CALCULATION
                           -- RI-GTO INTEGRALS CHOSEN --
------------------------------------------------------------------------------

                         BASIS SET STATISTICS AND STARTUP INFO

Gaussian basis set:
 # of primitive gaussian shells          ...  102
 # of primitive gaussian functions       ...  186
 # of contracted shells                  ...   54
 # of contracted basis functions         ...  114
 Highest angular momentum                ...    2
 Maximum contraction depth               ...    5
Auxiliary gaussian basis set:
 # of primitive gaussian shells          ...  192
 # of primitive gaussian functions       ...  516
 # of contracted shells                  ...  120
 # of contracted aux-basis functions     ...  360
 Highest angular momentum                ...    4
 Maximum contraction depth               ...    7
Ratio of auxiliary to basis functions    ...  3.16
Integral package used                  ... LIBINT
 One Electron integrals                  ... done
 Ordering auxiliary basis shells         ... done
 Integral threshhold             Thresh  ...  2.500e-11
 Primitive cut-off               TCut    ...  2.500e-12
 Pre-screening matrix                    ... done
 Shell pair data                         ... 
 Ordering of the shell pairs             ... done (   0.000 sec) 1443 of 1485 pairs
 Determination of significant pairs      ... done (   0.000 sec)
 Creation of shell pair data             ... done (   0.000 sec)
 Storage of shell pair data              ... done (   0.001 sec)
 Shell pair data done in (   0.002 sec)
 Computing two index integrals           ... done
 Cholesky decomposition of the V-matrix  ... done


Timings:
 Total evaluation time                   ...   0.200 sec (  0.003 min)
 One electron matrix time                ...   0.012 sec (  0.000 min) =  5.9%
 Schwartz matrix evaluation time         ...   0.157 sec (  0.003 min) = 78.2%
 Two index repulsion integral time       ...   0.003 sec (  0.000 min) =  1.6%
 Cholesky decomposition of V             ...   0.003 sec (  0.000 min) =  1.3%
 Three index repulsion integral time     ...   0.000 sec (  0.000 min) =  0.0%



           ************************************************************
           *        Program running with 8 parallel MPI-processes     *
           *              working on a common directory               *
           ************************************************************
-------------------------------------------------------------------------------
                                 ORCA SCF
-------------------------------------------------------------------------------

------------
SCF SETTINGS
------------
Hamiltonian:
 Density Functional     Method          .... DFT(GTOs)
 Exchange Functional    Exchange        .... PBE
   PBE kappa parameter   XKappa         ....  0.804000
   PBE mue parameter    XMuePBE         ....  0.219520
 Correlation Functional Correlation     .... PBE
   PBE beta parameter  CBetaPBE         ....  0.066725
 LDA part of GGA corr.  LDAOpt          .... PW91-LDA
 Gradients option       PostSCFGGA      .... off
 Hybrid DFT is turned on
   Fraction HF Exchange ScalHFX         ....  0.250000
   Scaling of DF-GGA-X  ScalDFX         ....  0.750000
   Scaling of DF-GGA-C  ScalDFC         ....  1.000000
   Scaling of DF-LDA-C  ScalLDAC        ....  1.000000
   Perturbative correction              ....  0.000000
   Density functional embedding theory  .... OFF
   NL short-range parameter             ....  6.900000
 RI-approximation to the Coulomb term is turned on
   Number of auxiliary basis functions  .... 360
   RIJ-COSX (HFX calculated with COS-X)).... on


General Settings:
 Integral files         IntName         .... get_orca_ts_guess_coarse_TS_orca_opt
 Hartree-Fock type      HFTyp           .... RHF
 Total Charge           Charge          ....   -1
 Multiplicity           Mult            ....    1
 Number of Electrons    NEL             ....   46
 Basis Dimension        Dim             ....  114
 Nuclear Repulsion      ENuc            ....    206.0128484121 Eh

Convergence Acceleration:
 DIIS                   CNVDIIS         .... on
   Start iteration      DIISMaxIt       ....    12
   Startup error        DIISStart       ....  0.200000
   # of expansion vecs  DIISMaxEq       ....     5
   Bias factor          DIISBfac        ....   1.050
   Max. coefficient     DIISMaxC        ....  10.000
 Newton-Raphson         CNVNR           .... off
 SOSCF                  CNVSOSCF        .... on
   Start iteration      SOSCFMaxIt      ....   150
   Startup grad/error   SOSCFStart      ....  0.003300
 Level Shifting         CNVShift        .... on
   Level shift para.    LevelShift      ....    0.2500
   Turn off err/grad.   ShiftErr        ....    0.0010
 Zerner damping         CNVZerner       .... off
 Static damping         CNVDamp         .... on
   Fraction old density DampFac         ....    0.7000
   Max. Damping (<1)    DampMax         ....    0.9800
   Min. Damping (>=0)   DampMin         ....    0.0000
   Turn off err/grad.   DampErr         ....    0.1000
 Fernandez-Rico         CNVRico         .... off

SCF Procedure:
 Maximum # iterations   MaxIter         ....   250
 SCF integral mode      SCFMode         .... Direct
   Integral package                     .... LIBINT
 Reset frequency        DirectResetFreq ....    20
 Integral Threshold     Thresh          ....  2.500e-11 Eh
 Primitive CutOff       TCut            ....  2.500e-12 Eh

Convergence Tolerance:
 Convergence Check Mode ConvCheckMode   .... Total+1el-Energy
 Convergence forced     ConvForced      .... 0
 Energy Change          TolE            ....  1.000e-08 Eh
 1-El. energy change                    ....  1.000e-05 Eh
 Orbital Gradient       TolG            ....  1.000e-05
 Orbital Rotation angle TolX            ....  1.000e-05
 DIIS Error             TolErr          ....  5.000e-07


Diagonalization of the overlap matrix:
Smallest eigenvalue                        ... 2.431e-03
Time for diagonalization                   ...    0.003 sec
Threshold for overlap eigenvalues          ... 1.000e-08
Number of eigenvalues below threshold      ... 0
Time for construction of square roots      ...    0.002 sec
Total time needed                          ...    0.004 sec

-------------------
DFT GRID GENERATION
-------------------

General Integration Accuracy     IntAcc      ...  4.340
Radial Grid Type                 RadialGrid  ... Gauss-Chebyshev
Angular Grid (max. acc.)         AngularGrid ... Lebedev-110
Angular grid pruning method      GridPruning ... 3 (G Style)
Weight generation scheme         WeightScheme... Becke
Basis function cutoff            BFCut       ...    1.0000e-11
Integration weight cutoff        WCut        ...    1.0000e-14
Grids for H and He will be reduced by one unit

# of grid points (after initial pruning)     ...  14806 (   0.0 sec)
# of grid points (after weights+screening)   ...  14022 (   0.0 sec)
nearest neighbour list constructed           ...    0.0 sec
Grid point re-assignment to atoms done       ...    0.0 sec
Grid point division into batches done        ...    0.0 sec
Reduced shell lists constructed in    0.0 sec

Total number of grid points                  ...    14022
Total number of batches                      ...      226
Average number of points per batch           ...       62
Average number of grid points per atom       ...     1168
Average number of shells per batch           ...    47.90 (88.70%)
Average number of basis functions per batch  ...   102.30 (89.74%)
Average number of large shells per batch     ...    43.33 (90.47%)
Average number of large basis fcns per batch ...    91.07 (89.02%)
Maximum spatial batch extension              ...   3.13,  2.86,  2.34 au
Average spatial batch extension              ...   0.20,  0.20,  0.19 au

Time for grid setup =    0.040 sec

------------------------------
INITIAL GUESS: MODEL POTENTIAL
------------------------------
Loading Hartree-Fock densities                     ... done
Calculating cut-offs                               ... done
Setting up the integral package                    ... done
Initializing the effective Hamiltonian             ... done
Starting the Coulomb interaction                   ... done (   0.0 sec)
Reading the grid                                   ... done
Mapping shells                                     ... done
Starting the XC term evaluation                    ... done (   0.0 sec)
  promolecular density results
     # of electrons  =     44.999865660
     EX              =    -36.703194506
     EC              =     -1.443499367
     EX+EC           =    -38.146693874
Transforming the Hamiltonian                       ... done (   0.0 sec)
Diagonalizing the Hamiltonian                      ... done (   0.0 sec)
Back transforming the eigenvectors                 ... done (   0.0 sec)
Now organizing SCF variables                       ... done
                      ------------------
                      INITIAL GUESS DONE (   0.2 sec)
                      ------------------
--------------------
COSX GRID GENERATION
--------------------

General Integration Accuracy     IntAcc      ...  3.340
Radial Grid Type                 RadialGrid  ... Gauss-Chebyshev
Angular Grid (max. acc.)         AngularGrid ... Lebedev-50
Angular grid pruning method      GridPruning ... 3 (G Style)
Weight generation scheme         WeightScheme... Becke
Basis function cutoff            BFCut       ...    1.0000e-11
Integration weight cutoff        WCut        ...    1.0000e-14
Grids for H and He will be reduced by one unit

# of grid points (after initial pruning)     ...   5386 (   0.0 sec)
# of grid points (after weights+screening)   ...   5106 (   0.0 sec)
nearest neighbour list constructed           ...    0.0 sec
Grid point re-assignment to atoms done       ...    0.0 sec
Grid point division into batches done        ...    0.0 sec
Reduced shell lists constructed in    0.0 sec

Total number of grid points                  ...     5106
Total number of batches                      ...       87
Average number of points per batch           ...       58
Average number of grid points per atom       ...      426
Average number of shells per batch           ...    45.92 (85.03%)
Average number of basis functions per batch  ...    97.92 (85.89%)
Average number of large shells per batch     ...    41.42 (90.20%)
Average number of large basis fcns per batch ...    87.58 (89.45%)
Maximum spatial batch extension              ...   2.55,  2.52,  2.95 au
Average spatial batch extension              ...   0.25,  0.26,  0.26 au

Overlap Fitting                  UseSFitting ... on
Constructing numerical overlap ... done (      0.0 sec)
Inverting numerical overlap    ... done (      0.0 sec)
Obtaining analytic overlap     ... done (      0.0 sec)
Final contraction and storage  ... done (      0.0 sec)


General Integration Accuracy     IntAcc      ...  3.670
Radial Grid Type                 RadialGrid  ... Gauss-Chebyshev
Angular Grid (max. acc.)         AngularGrid ... Lebedev-50
Angular grid pruning method      GridPruning ... 3 (G Style)
Weight generation scheme         WeightScheme... Becke
Basis function cutoff            BFCut       ...    1.0000e-11
Integration weight cutoff        WCut        ...    1.0000e-14
Grids for H and He will be reduced by one unit

# of grid points (after initial pruning)     ...   6876 (   0.0 sec)
# of grid points (after weights+screening)   ...   6511 (   0.0 sec)
nearest neighbour list constructed           ...    0.0 sec
Grid point re-assignment to atoms done       ...    0.0 sec
Grid point division into batches done        ...    0.0 sec
Reduced shell lists constructed in    0.0 sec

Total number of grid points                  ...     6511
Total number of batches                      ...      108
Average number of points per batch           ...       60
Average number of grid points per atom       ...      543
Average number of shells per batch           ...    46.53 (86.17%)
Average number of basis functions per batch  ...    99.20 (87.02%)
Average number of large shells per batch     ...    42.00 (90.26%)
Average number of large basis fcns per batch ...    88.27 (88.98%)
Maximum spatial batch extension              ...   2.96,  3.70,  3.05 au
Average spatial batch extension              ...   0.24,  0.26,  0.25 au

Overlap Fitting                  UseSFitting ... on
Constructing numerical overlap ... done (      0.0 sec)
Inverting numerical overlap    ... done (      0.0 sec)
Obtaining analytic overlap     ... done (      0.0 sec)
Final contraction and storage  ... done (      0.0 sec)


General Integration Accuracy     IntAcc      ...  4.010
Radial Grid Type                 RadialGrid  ... Gauss-Chebyshev
Angular Grid (max. acc.)         AngularGrid ... Lebedev-110
Angular grid pruning method      GridPruning ... 3 (G Style)
Weight generation scheme         WeightScheme... Becke
Basis function cutoff            BFCut       ...    1.0000e-11
Integration weight cutoff        WCut        ...    1.0000e-14
Grids for H and He will be reduced by one unit

# of grid points (after initial pruning)     ...  12770 (   0.0 sec)
# of grid points (after weights+screening)   ...  12102 (   0.0 sec)
nearest neighbour list constructed           ...    0.0 sec
Grid point re-assignment to atoms done       ...    0.0 sec
Grid point division into batches done        ...    0.0 sec
Reduced shell lists constructed in    0.0 sec

Total number of grid points                  ...    12102
Total number of batches                      ...      194
Average number of points per batch           ...       62
Average number of grid points per atom       ...     1008
Average number of shells per batch           ...    46.15 (85.47%)
Average number of basis functions per batch  ...    98.46 (86.37%)
Average number of large shells per batch     ...    41.77 (90.50%)
Average number of large basis fcns per batch ...    88.23 (89.61%)
Maximum spatial batch extension              ...  16.67, 14.95, 12.54 au
Average spatial batch extension              ...   0.30,  0.30,  0.26 au

Overlap Fitting                  UseSFitting ... on
Constructing numerical overlap ... done (      0.0 sec)
Inverting numerical overlap    ... done (      0.0 sec)
Obtaining analytic overlap     ... done (      0.0 sec)
Final contraction and storage  ... done (      0.0 sec)

Time for X-Grid setup             =    0.150 sec

--------------------
CPCM SOLVATION MODEL
--------------------
CPCM parameters:
  Epsilon                                         ...      78.3550
  Refrac                                          ...       1.0000
  Rsolv                                           ...       1.3000
  Surface type                                    ...    GEPOL SES
  Epsilon function type                           ...         CPCM
Solvent:                                     ... WATER
SMD-CDS solvent descriptors:
  Soln                                       ...    1.3328
  Soln25                                     ...    1.3323
  Sola                                       ...    0.0000
  Solb                                       ...    0.0000
  Solg                                       ...    0.0000
  Solc                                       ...    0.0000
  Solh                                       ...    0.0000
Radii:
 Radius for C  used is    3.4960 Bohr (=   1.8500 Ang.)
 Radius for O  used is    2.8724 Bohr (=   1.5200 Ang.)
 Radius for N  used is    3.5716 Bohr (=   1.8900 Ang.)
 Radius for H  used is    2.2677 Bohr (=   1.2000 Ang.)
Calculating surface                               ...        done! (  0.0s)
GEPOL surface points                              ...          483
GEPOL Volume                                      ...     713.9236
GEPOL Surface-area                                ...     463.4967
Calculating surface distance matrix               ...        done! (  0.0s)
Performing Cholesky decomposition & store         ...        done! (  0.0s)
Overall time for CPCM initialization              ...                 0.0s
--------------
SCF ITERATIONS
--------------
ITER       Energy         Delta-E        Max-DP      RMS-DP      [F,P]     Damp
               ***  Starting incremental Fock matrix formation  ***
  0   -285.3002656172   0.000000000000 0.09703362  0.00356603  0.2744262 0.7000
  1   -285.4168030685  -0.116537451267 0.05228923  0.00242292  0.1192271 0.7000
                               ***Turning on DIIS***
  2   -285.4617885452  -0.044985476754 0.12289103  0.00410448  0.0390342 0.0000
  3   -285.5348681732  -0.073079627938 0.04127870  0.00170618  0.0584024 0.0000
  4   -285.5486029697  -0.013734796560 0.02034354  0.00057408  0.0188486 0.0000
                      *** Initiating the SOSCF procedure ***
                           *** Shutting down DIIS ***
                      *** Re-Reading the Fockian *** 
                      *** Removing any level shift *** 
ITER      Energy       Delta-E        Grad      Rot      Max-DP    RMS-DP
  5   -285.54998318  -0.0013802105  0.001107  0.001107  0.004774  0.000183
               *** Restarting incremental Fock matrix formation ***
  6   -285.55002621  -0.0000430282  0.000413  0.000964  0.002842  0.000112
  7   -285.55002890  -0.0000026958  0.000363  0.000407  0.000984  0.000033
  8   -285.55003265  -0.0000037485  0.000137  0.000287  0.000438  0.000018
  9   -285.55003233   0.0000003222  0.000210  0.000178  0.000223  0.000010
 10   -285.55003288  -0.0000005496  0.000013  0.000032  0.000065  0.000003
 11   -285.55003287   0.0000000086  0.000024  0.000020  0.000043  0.000002
                  ***Gradient check signals convergence***
              ***Rediagonalizing the Fockian in SOSCF/NRSCF***

               *****************************************************
               *                     SUCCESS                       *
               *           SCF CONVERGED AFTER  12 CYCLES          *
               *****************************************************

Setting up the final grid:

General Integration Accuracy     IntAcc      ...  4.670
Radial Grid Type                 RadialGrid  ... Gauss-Chebyshev
Angular Grid (max. acc.)         AngularGrid ... Lebedev-302
Angular grid pruning method      GridPruning ... 3 (G Style)
Weight generation scheme         WeightScheme... Becke
Basis function cutoff            BFCut       ...    1.0000e-11
Integration weight cutoff        WCut        ...    1.0000e-14
Grids for H and He will be reduced by one unit

# of grid points (after initial pruning)     ...  57636 (   0.0 sec)
# of grid points (after weights+screening)   ...  53875 (   0.0 sec)
nearest neighbour list constructed           ...    0.0 sec
Grid point re-assignment to atoms done       ...    0.0 sec
Grid point division into batches done        ...    0.2 sec
Reduced shell lists constructed in    0.2 sec

Total number of grid points                  ...    53875
Total number of batches                      ...      847
Average number of points per batch           ...       63
Average number of grid points per atom       ...     4490
Average number of shells per batch           ...    45.18 (83.66%)
Average number of basis functions per batch  ...    96.56 (84.70%)
Average number of large shells per batch     ...    40.04 (88.62%)
Average number of large basis fcns per batch ...    83.72 (86.70%)
Maximum spatial batch extension              ...  16.74, 14.61, 11.42 au
Average spatial batch extension              ...   0.23,  0.21,  0.19 au

Final grid set up in    0.2 sec
Final integration                            ... done (   0.0 sec)
Change in XC energy                          ...     0.000063758
Integrated number of electrons               ...    46.000035212
Previous integrated no of electrons          ...    46.001131467
Old exchange energy                            =     -9.429847147 Eh
New exchange energy                            =     -9.429947702 Eh
Exchange energy change after final integration =     -0.000100555 Eh
Total energy after final integration           =   -285.550069681 Eh
Final COS-X integration done in                =     0.206 sec

SMD CDS free energy correction energy :                 6.49256     Kcal/mol
Total Energy after SMD CDS correction =              -285.539723124 Eh

----------------
TOTAL SCF ENERGY
----------------

Total Energy       :         -285.53972312 Eh           -7769.93088 eV

Components:
Nuclear Repulsion  :          206.01284841 Eh            5605.89460 eV
Electronic Energy  :         -491.55257154 Eh          -13375.82549 eV
One Electron Energy:         -804.80298374 Eh          -21899.80255 eV
Two Electron Energy:          313.25041221 Eh            8523.97707 eV
CPCM Dielectric    :           -0.11318246 Eh              -3.07985 eV
SMD CDS (Gcds)     :            0.01034656 Eh               0.28154 eV

Virial components:
Potential Energy   :         -568.25757936 Eh          -15463.07486 eV
Kinetic Energy     :          282.71785623 Eh            7693.14398 eV
Virial Ratio       :            2.00998121


DFT components:
N(Alpha)           :       23.000017605889 electrons
N(Beta)            :       23.000017605889 electrons
N(Total)           :       46.000035211778 electrons
E(X)               :      -28.230748811557 Eh       
E(C)               :       -1.504560241970 Eh       
E(XC)              :      -29.735309053527 Eh       
DFET-embed. en.    :        0.000000000000 Eh       
CPCM Solvation Model Properties:
Surface-charge          :            0.96924860
Charge-correction       :           -0.00495183 Eh              -0.13475 eV
Free-energy (cav+disp)  :            0.00350418 Eh               0.09535 eV
Corrected G(solv)       :         -285.54117077 Eh           -7769.97027 eV

---------------
SCF CONVERGENCE
---------------

  Last Energy change         ...   -1.1679e-08  Tolerance :   1.0000e-08
  Last MAX-Density change    ...    4.4409e-15  Tolerance :   1.0000e-07
  Last RMS-Density change    ...    6.8325e-17  Tolerance :   5.0000e-09
  Last Orbital Gradient      ...    1.4966e-06  Tolerance :   1.0000e-05
  Last Orbital Rotation      ...    2.8569e-06  Tolerance :   1.0000e-05

             **** THE GBW FILE WAS UPDATED (get_orca_ts_guess_coarse_TS_orca_opt.gbw) ****
             **** DENSITY FILE WAS UPDATED (get_orca_ts_guess_coarse_TS_orca_opt.scfp.tmp) ****
             **** ENERGY FILE WAS UPDATED (get_orca_ts_guess_coarse_TS_orca_opt.en.tmp) ****
----------------
ORBITAL ENERGIES
----------------

  NO   OCC          E(Eh)            E(eV) 
   0   2.0000     -19.150314      -521.1065 
   1   2.0000     -14.332857      -390.0169 
   2   2.0000     -10.313598      -280.6473 
   3   2.0000     -10.215740      -277.9844 
   4   2.0000     -10.215093      -277.9668 
   5   2.0000     -10.196430      -277.4590 
   6   2.0000      -1.002069       -27.2677 
   7   2.0000      -0.847838       -23.0708 
   8   2.0000      -0.751401       -20.4467 
   9   2.0000      -0.692364       -18.8402 
  10   2.0000      -0.523723       -14.2512 
  11   2.0000      -0.464101       -12.6288 
  12   2.0000      -0.440234       -11.9794 
  13   2.0000      -0.436854       -11.8874 
  14   2.0000      -0.386862       -10.5271 
  15   2.0000      -0.379385       -10.3236 
  16   2.0000      -0.371732       -10.1153 
  17   2.0000      -0.359237        -9.7753 
  18   2.0000      -0.335147        -9.1198 
  19   2.0000      -0.298753        -8.1295 
  20   2.0000      -0.295438        -8.0393 
  21   2.0000      -0.246805        -6.7159 
  22   2.0000      -0.235488        -6.4079 
  23   0.0000       0.024942         0.6787 
  24   0.0000       0.082630         2.2485 
  25   0.0000       0.091363         2.4861 
  26   0.0000       0.097127         2.6430 
  27   0.0000       0.144426         3.9300 
  28   0.0000       0.148356         4.0370 
  29   0.0000       0.162868         4.4319 
  30   0.0000       0.175205         4.7676 
  31   0.0000       0.189718         5.1625 
  32   0.0000       0.223366         6.0781 
  33   0.0000       0.291718         7.9380 
  34   0.0000       0.303870         8.2687 
  35   0.0000       0.336530         9.1575 
  36   0.0000       0.427680        11.6378 
  37   0.0000       0.480913        13.0863 
  38   0.0000       0.496178        13.5017 
  39   0.0000       0.519997        14.1498 
  40   0.0000       0.571313        15.5462 
  41   0.0000       0.599382        16.3100 
  42   0.0000       0.623744        16.9729 
  43   0.0000       0.623984        16.9795 
  44   0.0000       0.650600        17.7037 
  45   0.0000       0.658656        17.9230 
  46   0.0000       0.675370        18.3778 
  47   0.0000       0.676809        18.4169 
  48   0.0000       0.686274        18.6745 
  49   0.0000       0.699437        19.0326 
  50   0.0000       0.717619        19.5274 
  51   0.0000       0.732193        19.9240 
  52   0.0000       0.733285        19.9537 
  53   0.0000       0.748776        20.3752 
  54   0.0000       0.763610        20.7789 
  55   0.0000       0.828481        22.5441 
  56   0.0000       0.894527        24.3413 
  57   0.0000       0.915565        24.9138 
  58   0.0000       0.934046        25.4167 
  59   0.0000       0.963007        26.2047 
  60   0.0000       1.030994        28.0548 
  61   0.0000       1.082410        29.4539 
  62   0.0000       1.137504        30.9531 
  63   0.0000       1.154277        31.4095 
  64   0.0000       1.191467        32.4215 
  65   0.0000       1.210881        32.9498 
  66   0.0000       1.357954        36.9518 
  67   0.0000       1.379732        37.5444 
  68   0.0000       1.418719        38.6053 
  69   0.0000       1.546338        42.0780 
  70   0.0000       1.551817        42.2271 
  71   0.0000       1.581559        43.0364 
  72   0.0000       1.604447        43.6592 
  73   0.0000       1.654375        45.0178 
  74   0.0000       1.698614        46.2216 
  75   0.0000       1.709524        46.5185 
  76   0.0000       1.717672        46.7402 
  77   0.0000       1.758169        47.8422 
  78   0.0000       1.789019        48.6817 
  79   0.0000       1.798256        48.9330 
  80   0.0000       1.820177        49.5295 
  81   0.0000       1.821728        49.5717 
  82   0.0000       1.899008        51.6746 
  83   0.0000       1.905659        51.8556 
  84   0.0000       1.930479        52.5310 
  85   0.0000       1.951928        53.1147 
  86   0.0000       2.045947        55.6731 
  87   0.0000       2.095243        57.0144 
  88   0.0000       2.142471        58.2996 
  89   0.0000       2.192012        59.6477 
  90   0.0000       2.234093        60.7928 
  91   0.0000       2.316980        63.0482 
  92   0.0000       2.320353        63.1400 
  93   0.0000       2.373108        64.5756 
  94   0.0000       2.403010        65.3892 
  95   0.0000       2.452550        66.7373 
  96   0.0000       2.517607        68.5076 
  97   0.0000       2.533750        68.9468 
  98   0.0000       2.541462        69.1567 
  99   0.0000       2.655648        72.2639 
 100   0.0000       2.710081        73.7451 
 101   0.0000       2.722790        74.0909 
 102   0.0000       2.787216        75.8440 
 103   0.0000       2.813818        76.5679 
 104   0.0000       2.889863        78.6372 
 105   0.0000       2.908631        79.1479 
 106   0.0000       2.941808        80.0507 
 107   0.0000       2.953334        80.3643 
 108   0.0000       2.978143        81.0394 
 109   0.0000       2.983220        81.1776 
 110   0.0000       3.205630        87.2296 
 111   0.0000       3.323045        90.4246 
 112   0.0000       3.332457        90.6808 
 113   0.0000       3.628389        98.7335 

                    ********************************
                    * MULLIKEN POPULATION ANALYSIS *
                    ********************************

-----------------------
MULLIKEN ATOMIC CHARGES
-----------------------
   0 C :   -0.032736
   1 C :   -0.006270
   2 O :   -0.493964
   3 C :   -0.391899
   4 N :   -0.333644
   5 C :   -0.047223
   6 H :    0.044070
   7 H :    0.057114
   8 H :    0.045592
   9 H :    0.060676
  10 H :    0.049155
  11 H :    0.049130
Sum of atomic charges:   -1.0000000

--------------------------------
MULLIKEN REDUCED ORBITAL CHARGES
--------------------------------
  0 C s       :     3.028287  s :     3.028287
      pz      :     1.005950  p :     2.980083
      px      :     1.004714
      py      :     0.969419
      dz2     :     0.006198  d :     0.024366
      dxz     :     0.004480
      dyz     :     0.002965
      dx2y2   :     0.004265
      dxy     :     0.006457
  1 C s       :     3.232659  s :     3.232659
      pz      :     0.872547  p :     2.675525
      px      :     0.939082
      py      :     0.863897
      dz2     :     0.024992  d :     0.098085
      dxz     :     0.029128
      dyz     :     0.022540
      dx2y2   :     0.009634
      dxy     :     0.011792
  2 O s       :     3.777958  s :     3.777958
      pz      :     1.374137  p :     4.701936
      px      :     1.734805
      py      :     1.592994
      dz2     :     0.005782  d :     0.014070
      dxz     :     0.003011
      dyz     :     0.004276
      dx2y2   :     0.000531
      dxy     :     0.000471
  3 C s       :     3.603140  s :     3.603140
      pz      :     0.847689  p :     2.745517
      px      :     0.908568
      py      :     0.989261
      dz2     :     0.004453  d :     0.043241
      dxz     :     0.005207
      dyz     :     0.009555
      dx2y2   :     0.013672
      dxy     :     0.010354
  4 N s       :     3.660841  s :     3.660841
      pz      :     1.171224  p :     3.648205
      px      :     1.213599
      py      :     1.263382
      dz2     :     0.002703  d :     0.024598
      dxz     :     0.002738
      dyz     :     0.005162
      dx2y2   :     0.007232
      dxy     :     0.006763
  5 C s       :     3.036234  s :     3.036234
      pz      :     0.992098  p :     2.986590
      px      :     0.968248
      py      :     1.026245
      dz2     :     0.006956  d :     0.024399
      dxz     :     0.005228
      dyz     :     0.002018
      dx2y2   :     0.003341
      dxy     :     0.006855
  6 H s       :     0.932597  s :     0.932597
      pz      :     0.007134  p :     0.023334
      px      :     0.011949
      py      :     0.004251
  7 H s       :     0.918725  s :     0.918725
      pz      :     0.006269  p :     0.024161
      px      :     0.006783
      py      :     0.011109
  8 H s       :     0.931020  s :     0.931020
      pz      :     0.014425  p :     0.023388
      px      :     0.004767
      py      :     0.004197
  9 H s       :     0.915222  s :     0.915222
      pz      :     0.005660  p :     0.024102
      px      :     0.008788
      py      :     0.009655
 10 H s       :     0.927677  s :     0.927677
      pz      :     0.004630  p :     0.023168
      px      :     0.005814
      py      :     0.012724
 11 H s       :     0.927585  s :     0.927585
      pz      :     0.014016  p :     0.023286
      px      :     0.004350
      py      :     0.004920


                     *******************************
                     * LOEWDIN POPULATION ANALYSIS *
                     *******************************

----------------------
LOEWDIN ATOMIC CHARGES
----------------------
   0 C :   -0.100440
   1 C :    0.057697
   2 O :   -0.409424
   3 C :   -0.328040
   4 N :   -0.328624
   5 C :   -0.102962
   6 H :    0.032346
   7 H :    0.039439
   8 H :    0.032968
   9 H :    0.040096
  10 H :    0.033216
  11 H :    0.033729

-------------------------------
LOEWDIN REDUCED ORBITAL CHARGES
-------------------------------
  0 C s       :     2.870415  s :     2.870415
      pz      :     1.066527  p :     3.163936
      px      :     1.053128
      py      :     1.044282
      dz2     :     0.017227  d :     0.066089
      dxz     :     0.011792
      dyz     :     0.007451
      dx2y2   :     0.011156
      dxy     :     0.018463
  1 C s       :     2.910707  s :     2.910707
      pz      :     0.963267  p :     2.815792
      px      :     0.956179
      py      :     0.896346
      dz2     :     0.056287  d :     0.215805
      dxz     :     0.065702
      dyz     :     0.047784
      dx2y2   :     0.020221
      dxy     :     0.025810
  2 O s       :     3.570825  s :     3.570825
      pz      :     1.477459  p :     4.813730
      px      :     1.730422
      py      :     1.605849
      dz2     :     0.011358  d :     0.024870
      dxz     :     0.004650
      dyz     :     0.007385
      dx2y2   :     0.000734
      dxy     :     0.000743
  3 C s       :     3.319640  s :     3.319640
      pz      :     0.851607  p :     2.920226
      px      :     0.962083
      py      :     1.106536
      dz2     :     0.010468  d :     0.088174
      dxz     :     0.009618
      dyz     :     0.017538
      dx2y2   :     0.023836
      dxy     :     0.026714
  4 N s       :     3.469443  s :     3.469443
      pz      :     1.165404  p :     3.817969
      px      :     1.265627
      py      :     1.386938
      dz2     :     0.005228  d :     0.041213
      dxz     :     0.003974
      dyz     :     0.007540
      dx2y2   :     0.010270
      dxy     :     0.014200
  5 C s       :     2.871140  s :     2.871140
      pz      :     1.054750  p :     3.165891
      px      :     1.041684
      py      :     1.069457
      dz2     :     0.018727  d :     0.065931
      dxz     :     0.015204
      dyz     :     0.004653
      dx2y2   :     0.009850
      dxy     :     0.017496
  6 H s       :     0.901822  s :     0.901822
      pz      :     0.018948  p :     0.065832
      px      :     0.034482
      py      :     0.012403
  7 H s       :     0.894768  s :     0.894768
      pz      :     0.015593  p :     0.065793
      px      :     0.018307
      py      :     0.031893
  8 H s       :     0.900714  s :     0.900714
      pz      :     0.040353  p :     0.066318
      px      :     0.013178
      py      :     0.012786
  9 H s       :     0.894036  s :     0.894036
      pz      :     0.014718  p :     0.065868
      px      :     0.025404
      py      :     0.025746
 10 H s       :     0.901060  s :     0.901060
      pz      :     0.012166  p :     0.065724
      px      :     0.018254
      py      :     0.035304
 11 H s       :     0.899977  s :     0.899977
      pz      :     0.040613  p :     0.066294
      px      :     0.012987
      py      :     0.012694


                      *****************************
                      * MAYER POPULATION ANALYSIS *
                      *****************************

  NA   - Mulliken gross atomic population
  ZA   - Total nuclear charge
  QA   - Mulliken gross atomic charge
  VA   - Mayer's total valence
  BVA  - Mayer's bonded valence
  FA   - Mayer's free valence

  ATOM       NA         ZA         QA         VA         BVA        FA
  0 C      6.0327     6.0000    -0.0327     3.8064     3.8064    -0.0000
  1 C      6.0063     6.0000    -0.0063     4.2972     4.2972    -0.0000
  2 O      8.4940     8.0000    -0.4940     1.9660     1.9660     0.0000
  3 C      6.3919     6.0000    -0.3919     3.4032     3.4032    -0.0000
  4 N      7.3336     7.0000    -0.3336     3.0121     3.0121     0.0000
  5 C      6.0472     6.0000    -0.0472     3.8054     3.8054    -0.0000
  6 H      0.9559     1.0000     0.0441     1.0063     1.0063    -0.0000
  7 H      0.9429     1.0000     0.0571     0.9935     0.9935    -0.0000
  8 H      0.9544     1.0000     0.0456     0.9983     0.9983    -0.0000
  9 H      0.9393     1.0000     0.0607     0.9926     0.9926     0.0000
 10 H      0.9508     1.0000     0.0492     1.0055     1.0055    -0.0000
 11 H      0.9509     1.0000     0.0491     0.9971     0.9971    -0.0000

  Mayer bond orders larger than 0.1
B(  0-C ,  1-C ) :   1.0032 B(  0-C ,  6-H ) :   0.9598 B(  0-C ,  7-H ) :   0.9495 
B(  0-C ,  8-H ) :   0.9559 B(  1-C ,  2-O ) :   1.8137 B(  1-C ,  3-C ) :   0.3723 
B(  1-C ,  5-C ) :   1.0013 B(  3-C ,  4-N ) :   2.9686 B(  5-C ,  9-H ) :   0.9493 
B(  5-C , 10-H ) :   0.9611 B(  5-C , 11-H ) :   0.9561 

-------
TIMINGS
-------

Total SCF time: 0 days 0 hours 0 min 6 sec 

Total time                  ....       6.497 sec
Sum of individual times     ....       6.343 sec  ( 97.6%)

Fock matrix formation       ....       5.799 sec  ( 89.3%)
  Split-RI-J                ....       1.443 sec  ( 24.9% of F)
  Chain of spheres X        ....       1.586 sec  ( 27.3% of F)
  COS-X 1 center corr.      ....       0.000 sec  (  0.0% of F)
  XC integration            ....       0.208 sec  (  3.6% of F)
    Basis function eval.    ....       0.075 sec  ( 36.0% of XC)
    Density eval.           ....       0.030 sec  ( 14.7% of XC)
    XC-Functional eval.     ....       0.018 sec  (  8.5% of XC)
    XC-Potential eval.      ....       0.047 sec  ( 22.6% of XC)
Diagonalization             ....       0.007 sec  (  0.1%)
Density matrix formation    ....       0.002 sec  (  0.0%)
Population analysis         ....       0.003 sec  (  0.0%)
Initial guess               ....       0.128 sec  (  2.0%)
Orbital Transformation      ....       0.000 sec  (  0.0%)
Orbital Orthonormalization  ....       0.000 sec  (  0.0%)
DIIS solution               ....       0.002 sec  (  0.0%)
SOSCF solution              ....       0.005 sec  (  0.1%)
Grid generation             ....       0.396 sec  (  6.1%)


-------------------------------------------------------------------------------
                          DFT DISPERSION CORRECTION                            
                                                                               
                              DFTD3 V3.1  Rev 1                                
                          USING Becke-Johnson damping                          
-------------------------------------------------------------------------------
The PBE0 functional is recognized
Active option DFTDOPT                   ...         4   

molecular C6(AA) [au] = 1490.510990 


            DFT-D V3
 parameters
 s6 scaling factor         :     1.0000 
 a1 scaling factor         :     0.4145 
 s8 scaling factor         :     1.2177 
 a2 scaling factor         :     4.8593 
 ad hoc parameters k1-k3   :    16.0000     1.3333    -4.0000 

 Edisp/kcal,au: -5.179886436248  -0.008254673591 
 E6   /kcal   :  -3.294420940 
 E8   /kcal   :  -1.885465496 
 % E8         :  36.399745809 

-------------------------   ----------------
Dispersion correction           -0.008254674
-------------------------   ----------------


-------------------------   --------------------
FINAL SINGLE POINT ENERGY      -285.547977798065
-------------------------   --------------------



           ************************************************************
           *        Program running with 8 parallel MPI-processes     *
           *              working on a common directory               *
           ************************************************************
------------------------------------------------------------------------------
                         ORCA SCF GRADIENT CALCULATION
------------------------------------------------------------------------------

Gradient of the Kohn-Sham DFT energy:
Kohn-Sham wavefunction type      ... RKS
Hartree-Fock exchange scaling    ...    0.250
Number of operators              ...    1
Number of atoms                  ...   12
Basis set dimensions             ...  114
Integral neglect threshold       ... 2.5e-11
Integral primitive cutoff        ... 2.5e-12

Nuclear repulsion gradient       ... done
One Electron Gradient            ... done
Pre-screening matrix             ... done
RI-J gradient                    ... done
COSX-gradient                    ... done
Exchange-correlation gradient    ... done
Dispersion correction            ... done

------------------
CARTESIAN GRADIENT
------------------

   1   C   :   -0.000287692   -0.001009685   -0.001222649
   2   C   :   -0.004908724    0.002688719   -0.011923958
   3   O   :    0.000679768    0.006402724    0.018807466
   4   C   :    0.016898251   -0.023544523    0.006388076
   5   N   :   -0.015867388    0.023476108   -0.005978130
   6   C   :    0.000507782    0.000019442   -0.001793908
   7   H   :   -0.004690554    0.000107001    0.002274774
   8   H   :    0.001983279   -0.004903605    0.001441207
   9   H   :   -0.001445499   -0.001090344   -0.005284800
  10   H   :    0.003999529   -0.003970182    0.001332721
  11   H   :    0.002255957    0.004698447    0.000429526
  12   H   :   -0.000066494   -0.000141626   -0.005485054

Difference to translation invariance:
           :   -0.0009417852    0.0027324756   -0.0010147288

Norm of the cartesian gradient     ...    0.0497347384
RMS gradient                       ...    0.0082891231
MAX gradient                       ...    0.0235445227

-------
TIMINGS
-------

Total SCF gradient time            ...        1.184 sec

One electron gradient       ....       0.012 sec  (  1.0%)
Prescreening matrices       ....       0.016 sec  (  1.3%)
RI-J Coulomb gradient       ....       0.164 sec  ( 13.9%)
COSX gradient               ....       0.308 sec  ( 26.0%)
XC gradient                 ....       0.173 sec  ( 14.6%)
CPCM gradient               ....       0.098 sec  (  8.3%)
   A-Matrix (El+Nuc)        ....       0.004 sec  (  0.4%)
   Potential                ....       0.094 sec  (  7.9%)


           ************************************************************
           *        Program running with 8 parallel MPI-processes     *
           *              working on a common directory               *
           ************************************************************

-------------------------------------------------------------------------------
                               ORCA SCF HESSIAN
-------------------------------------------------------------------------------

Hessian of the Kohn-Sham DFT energy:
Kohn-Sham wavefunction type                      ... RKS
Hartree-Fock exchange scaling                    ...    0.250
Number of operators                              ...    1
Number of atoms                                  ...   12
Basis set dimensions                             ...  114
Integral neglect threshold                       ... 2.5e-11
Integral primitive cutoff                        ... 2.5e-12

Setting up DFT Hessian calculations              ... 
Electron density on the grid                     ... found on disk
Electron density on the final grid               ... found on disk
Building xc-kernel on the grid                   ... done   (      0.0 sec)
Building xc-kernel on the final grid             ... done   (      0.0 sec)
                                                     done   (      0.1 sec)

Nuclear repulsion Hessian                        ... done   (      0.0 sec)
C-PCM contribution to the Fock matrix            ... done   (      1.4 sec)

----------------------------------------------
Forming right-hand sides of CP-SCF equations     ...
----------------------------------------------
One electron integral derivatives                ... done   (      0.1 sec)
Transforming the overlap derivative matrices     ... done   (      0.0 sec)
Adding tr(S(x)F(y) C-PCM term to the hessian     ... done   (      0.3 sec)
Making the Q(x) pseudodensities                  ... done   (      0.0 sec)
Adding the E*S(x)*S(y) terms to the Hessian      ... done   (      0.0 sec)
Calculating energy weighted overlap derivatives  ... done   (      0.0 sec)
Two electron integral derivatives (RI)           ... done   (      0.7 sec)
Exchange-correlation integral derivatives        ... done   (      1.7 sec)
tr(F(y)Q(x)) contribution to the Hessian         ... done   (      0.0 sec)
Response fock operator R(S(x)) (RIJCOSX)         ... done   (      1.2 sec)
XC Response fock operator R(S(x))                ... done   (      0.6 sec)
tr(F(y)S(x)) contribution to the Hessian         ... done   (      0.0 sec)
Transforming and finalizing RHSs                 ... done   (      0.0 sec)

----------------------------------------------
Solving the CP-SCF equations (RIJCOSX)           ...
----------------------------------------------
     CP-SCF ITERATION   0: 
     CP-SCF ITERATION   1:      0.009083719637
     CP-SCF ITERATION   2:      0.000605370310
     CP-SCF ITERATION   3:      0.000113730820
     CP-SCF ITERATION   4:      0.000008694507
     CP-SCF ITERATION   5:      0.000000432830
     CP-SCF ITERATION   6:      0.000000025738
     CP-SCF ITERATION   7:      0.000000009514

                                                 ... done   (      8.8 sec)
Forming perturbed density Hessian contributions  ... done   (      0.0 sec)
Calculating [Q*(d^2 A/dXdY)*Q  ] C-PCM term      ... done   (      0.0 sec)
Calculating [d^2(V_N)/(dXdY)*Q ] C-PCM term      ... done   (      0.0 sec)
Calculating [d^2(V_el)/(dXdY)*Q] C-PCM term      ... done   (      0.1 sec)
Calculating C-PCM term that depends on dQ/dX     ... done   (      0.0 sec)
2nd integral derivative contribs (RI)            ... done   (      3.2 sec)
Exchange-correlation Hessian                     ... done   (      1.8 sec)
Dispersion correction in the Hessian             ... done   (      1.0 sec)
Dipol derivatives                                ... done   (      0.1 sec)

Total SCF Hessian time: 0 days 0 hours 0 min 21 sec 

Writing the Hessian file to the disk             ... done


Maximum memory used throughout the entire calculation: 127.6 MB

-----------------------
VIBRATIONAL FREQUENCIES
-----------------------

Scaling factor for frequencies =  1.000000000  (already applied!)

   0:         0.00 cm**-1
   1:         0.00 cm**-1
   2:         0.00 cm**-1
   3:         0.00 cm**-1
   4:         0.00 cm**-1
   5:         0.00 cm**-1
   6:      -192.81 cm**-1 ***imaginary mode***
   7:       179.12 cm**-1
   8:       198.00 cm**-1
   9:       321.79 cm**-1
  10:       340.35 cm**-1
  11:       365.42 cm**-1
  12:       373.31 cm**-1
  13:       422.74 cm**-1
  14:       528.30 cm**-1
  15:       528.53 cm**-1
  16:       791.66 cm**-1
  17:       900.97 cm**-1
  18:       970.22 cm**-1
  19:      1059.97 cm**-1
  20:      1067.09 cm**-1
  21:      1216.33 cm**-1
  22:      1362.80 cm**-1
  23:      1371.24 cm**-1
  24:      1421.65 cm**-1
  25:      1425.68 cm**-1
  26:      1430.58 cm**-1
  27:      1442.28 cm**-1
  28:      1574.73 cm**-1
  29:      2123.24 cm**-1
  30:      2966.47 cm**-1
  31:      2970.18 cm**-1
  32:      3062.37 cm**-1
  33:      3067.36 cm**-1
  34:      3104.09 cm**-1
  35:      3109.90 cm**-1


------------
NORMAL MODES
------------

These modes are the Cartesian displacements weighted by the diagonal matrix
M(i,i)=1/sqrt(m[i]) where m[i] is the mass of the displaced atom
Thus, these vectors are normalized but *not* orthogonal

                  0          1          2          3          4          5    
      0       0.000000   0.000000   0.000000   0.000000   0.000000   0.000000
      1       0.000000   0.000000   0.000000   0.000000   0.000000   0.000000
      2       0.000000   0.000000   0.000000   0.000000   0.000000   0.000000
      3       0.000000   0.000000   0.000000   0.000000   0.000000   0.000000
      4       0.000000   0.000000   0.000000   0.000000   0.000000   0.000000
      5       0.000000   0.000000   0.000000   0.000000   0.000000   0.000000
      6       0.000000   0.000000   0.000000   0.000000   0.000000   0.000000
      7       0.000000   0.000000   0.000000   0.000000   0.000000   0.000000
      8       0.000000   0.000000   0.000000   0.000000   0.000000   0.000000
      9       0.000000   0.000000   0.000000   0.000000   0.000000   0.000000
     10       0.000000   0.000000   0.000000   0.000000   0.000000   0.000000
     11       0.000000   0.000000   0.000000   0.000000   0.000000   0.000000
     12       0.000000   0.000000   0.000000   0.000000   0.000000   0.000000
     13       0.000000   0.000000   0.000000   0.000000   0.000000   0.000000
     14       0.000000   0.000000   0.000000   0.000000   0.000000   0.000000
     15       0.000000   0.000000   0.000000   0.000000   0.000000   0.000000
     16       0.000000   0.000000   0.000000   0.000000   0.000000   0.000000
     17       0.000000   0.000000   0.000000   0.000000   0.000000   0.000000
     18       0.000000   0.000000   0.000000   0.000000   0.000000   0.000000
     19       0.000000   0.000000   0.000000   0.000000   0.000000   0.000000
     20       0.000000   0.000000   0.000000   0.000000   0.000000   0.000000
     21       0.000000   0.000000   0.000000   0.000000   0.000000   0.000000
     22       0.000000   0.000000   0.000000   0.000000   0.000000   0.000000
     23       0.000000   0.000000   0.000000   0.000000   0.000000   0.000000
     24       0.000000   0.000000   0.000000   0.000000   0.000000   0.000000
     25       0.000000   0.000000   0.000000   0.000000   0.000000   0.000000
     26       0.000000   0.000000   0.000000   0.000000   0.000000   0.000000
     27       0.000000   0.000000   0.000000   0.000000   0.000000   0.000000
     28       0.000000   0.000000   0.000000   0.000000   0.000000   0.000000
     29       0.000000   0.000000   0.000000   0.000000   0.000000   0.000000
     30       0.000000   0.000000   0.000000   0.000000   0.000000   0.000000
     31       0.000000   0.000000   0.000000   0.000000   0.000000   0.000000
     32       0.000000   0.000000   0.000000   0.000000   0.000000   0.000000
     33       0.000000   0.000000   0.000000   0.000000   0.000000   0.000000
     34       0.000000   0.000000   0.000000   0.000000   0.000000   0.000000
     35       0.000000   0.000000   0.000000   0.000000   0.000000   0.000000
                  6          7          8          9         10         11    
      0       0.062005   0.118346  -0.134588  -0.120888  -0.005556   0.029502
      1      -0.090967  -0.199221   0.155001   0.052751  -0.014002  -0.071387
      2       0.088943   0.114080  -0.029651   0.038850   0.006836   0.103707
      3       0.283739  -0.066193  -0.001476   0.033318  -0.012853  -0.017128
      4      -0.344872  -0.041966   0.035052  -0.051890  -0.007229  -0.013510
      5       0.243041   0.017669   0.080662   0.000920   0.003973   0.005225
      6       0.100345  -0.055612   0.221983   0.031558  -0.020810  -0.080340
      7      -0.129697  -0.030628  -0.270337  -0.052787  -0.013530  -0.049276
      8       0.069805   0.012890   0.196700  -0.007687   0.006743   0.020642
      9      -0.277642  -0.109323   0.029072   0.019202   0.099554   0.307906
     10       0.292671  -0.069812   0.044282  -0.117886   0.064810   0.184587
     11      -0.341881   0.027216   0.208272  -0.182238  -0.024570  -0.098769
     12      -0.267435   0.261460  -0.009691   0.046495  -0.027506  -0.094612
     13       0.353132   0.166389  -0.141238  -0.022462  -0.016462  -0.064494
     14      -0.162115  -0.068313  -0.378760   0.112134   0.006732   0.033090
     15       0.089649  -0.168173  -0.102324   0.015235  -0.018382  -0.086242
     16      -0.074512   0.162768   0.186191   0.136364  -0.003378   0.047194
     17       0.081119  -0.098531  -0.046012   0.003074  -0.002701  -0.082701
     18       0.077058   0.145368  -0.105440  -0.197964   0.153080  -0.043017
     19       0.000967  -0.346022   0.202818   0.358224  -0.195230   0.007070
     20       0.092504   0.184482   0.015880  -0.146212   0.318464  -0.037158
     21      -0.077529   0.299661  -0.225826  -0.392363   0.184587   0.015549
     22      -0.217557  -0.096518   0.052741   0.008484  -0.051889   0.049091
     23      -0.004985   0.102104  -0.140817   0.307505  -0.338757   0.396054
     24       0.079452   0.061839  -0.199885   0.029684  -0.312672   0.185617
     25       0.063613  -0.264655   0.291940  -0.093242   0.183376  -0.345794
     26       0.073103   0.132684  -0.037132   0.032573   0.036518   0.110277
     27       0.213621  -0.013208  -0.018521   0.248770   0.157878  -0.119126
     28      -0.035953   0.270446   0.191534   0.408824   0.278641  -0.136276
     29      -0.085227  -0.179453  -0.211585   0.131352   0.267408  -0.427705
     30       0.004988  -0.308971  -0.140411  -0.286897  -0.246765   0.034741
     31      -0.043008   0.235936   0.195990   0.298883   0.152628  -0.041305
     32       0.110970  -0.136735   0.017935  -0.120276  -0.334379   0.130280
     33      -0.053745  -0.250110  -0.204408   0.084911   0.028540  -0.272605
     34      -0.022757   0.141095   0.307544  -0.061641  -0.403042   0.395289
     35       0.109743  -0.078511  -0.044383   0.019849   0.046333  -0.094850
                 12         13         14         15         16         17    
      0       0.038770  -0.082549   0.114679  -0.008336  -0.170100  -0.030294
      1      -0.023896  -0.080876   0.148067  -0.098141  -0.208236   0.101291
      2      -0.026204   0.123303   0.087584  -0.046991  -0.025113   0.050031
      3      -0.006308  -0.031522  -0.053113  -0.190492  -0.077608  -0.079266
      4       0.007536  -0.023627   0.207240   0.084585   0.150414  -0.048842
      5      -0.005429  -0.164312  -0.102047  -0.045466   0.057957   0.021980
      6      -0.001012   0.000079  -0.055211   0.261645   0.020610  -0.005778
      7      -0.004867  -0.063211  -0.227439   0.000129   0.041701  -0.003441
      8       0.001926  -0.147490   0.087424  -0.009683   0.167519   0.002675
      9      -0.002565  -0.016670  -0.081827   0.029456  -0.016101  -0.006319
     10       0.070606   0.086471  -0.041712   0.026781   0.004256  -0.003937
     11       0.103773   0.132404  -0.133540  -0.141643  -0.049013   0.001590
     12      -0.025606  -0.032615  -0.011313  -0.030891  -0.015097   0.002021
     13       0.019751   0.028695   0.050979   0.029821   0.024496   0.001414
     14      -0.032770  -0.052928   0.020129   0.023217   0.001376  -0.000523
     15      -0.009430   0.143894   0.046190  -0.146916   0.228724   0.057332
     16      -0.045961   0.062053  -0.049146  -0.000537   0.043327  -0.085503
     17      -0.022438   0.061476  -0.040364   0.166130  -0.134000  -0.058786
     18      -0.149883   0.041793   0.195526  -0.112179  -0.264034  -0.141314
     19       0.096907   0.086694   0.114099  -0.411637  -0.443098  -0.378568
     20      -0.380987   0.318843   0.234579  -0.177907  -0.134608  -0.078715
     21      -0.107235  -0.039764   0.337257   0.225579  -0.106100   0.342997
     22       0.057610  -0.003982   0.356668   0.066655  -0.199313   0.287136
     23       0.359473   0.237950   0.265056   0.012702  -0.085700  -0.018174
     24       0.410421  -0.322700  -0.014608   0.180142  -0.108297   0.305470
     25      -0.261463  -0.339209  -0.164471  -0.165837  -0.191618   0.124189
     26      -0.062661   0.196980   0.152611  -0.073586  -0.049034  -0.009038
     27       0.099741   0.110043  -0.187392  -0.303416   0.173086   0.376378
     28       0.167434   0.096724  -0.168723  -0.031989  -0.024657   0.164457
     29       0.233345   0.208000   0.180966   0.427262  -0.164816  -0.178758
     30      -0.147197   0.021940   0.311278  -0.134402   0.427242  -0.347653
     31       0.065334   0.084999  -0.146712  -0.034915  -0.013307   0.074400
     32      -0.342513   0.317101  -0.235011   0.354635  -0.327437   0.212674
     33       0.022159   0.483917   0.082502   0.189494   0.178831   0.225379
     34      -0.421751   0.154770  -0.240429   0.010114  -0.008252   0.204136
     35       0.025914  -0.023990  -0.020982   0.097880  -0.127003  -0.139716
                 18         19         20         21         22         23    
      0       0.051613   0.002957  -0.103277   0.075784  -0.049066   0.086059
      1      -0.015660   0.011909   0.066058   0.017492  -0.075302   0.111179
      2       0.095534  -0.125311   0.008017  -0.057145  -0.015002   0.000731
      3      -0.025339   0.040913   0.074509  -0.283033  -0.009123  -0.075663
      4      -0.016575  -0.042020  -0.098282  -0.177698  -0.010654  -0.046336
      5       0.007938   0.044675   0.050611   0.077927  -0.005458   0.022137
      6      -0.017316  -0.006295  -0.013376   0.044400   0.001308   0.007830
      7      -0.010228   0.050960  -0.001762   0.028117   0.007745   0.003915
      8       0.005881   0.092931  -0.053215  -0.011586   0.016880  -0.004625
      9       0.011947   0.001216   0.008872   0.012500   0.000412   0.002594
     10       0.007476  -0.003262  -0.006898   0.007866   0.000132   0.001662
     11      -0.003326  -0.002147   0.017059  -0.003566   0.000085  -0.000772
     12      -0.003555   0.001870   0.011010  -0.002880  -0.000326  -0.000527
[...]
     33      -0.055219  -0.189702  -0.234794   0.068533   0.026320  -0.064298
     34      -0.018928   0.083072   0.345961  -0.456859  -0.146175   0.522088
     35       0.113848  -0.056767  -0.059545   0.063080   0.010486  -0.054638
                 12         13         14         15         16         17    
      0       0.106958  -0.054684   0.101181  -0.061138   0.172414  -0.034363
      1      -0.127085  -0.081769   0.104013  -0.148702   0.197798   0.103505
      2       0.083838   0.122713   0.048266  -0.072654   0.018720   0.050105
      3      -0.035771  -0.039191  -0.116537  -0.149847   0.068124  -0.065749
      4      -0.006568  -0.007667   0.225666  -0.026804  -0.144793  -0.035924
      5       0.022750  -0.165959  -0.077992   0.014635  -0.053225   0.017307
      6      -0.129116  -0.003367   0.078965   0.251866  -0.021266  -0.011934
      7      -0.030528  -0.073644  -0.218306   0.095294  -0.034596  -0.006993
      8       0.034089  -0.137714   0.098621  -0.044209  -0.155073   0.006030
      9       0.299527  -0.008361  -0.045775   0.075079   0.010188  -0.009878
     10       0.267955   0.114466  -0.033515   0.055772  -0.008439  -0.007111
     11      -0.015714   0.105458  -0.223212  -0.071215   0.048043   0.002316
     12      -0.051728  -0.047762  -0.037431  -0.018534   0.019404   0.000511
     13      -0.045908   0.034824   0.056508  -0.002949  -0.022510   0.001830
     14       0.001556  -0.041361   0.024224   0.010920  -0.000120  -0.000510
     15      -0.137208   0.129121  -0.048232  -0.154816  -0.221685   0.060393
     16       0.003284   0.038761  -0.035092   0.024856  -0.048022  -0.091511
     17      -0.119510   0.058911   0.035878   0.152763   0.119522  -0.058689
     18       0.034592   0.061151   0.114855  -0.197971   0.273167  -0.149374
     19      -0.217145   0.062613  -0.089314  -0.446053   0.445695  -0.379423
     20      -0.031200   0.306490   0.110418  -0.260248   0.133954  -0.073581
     21       0.236981   0.026232   0.405769   0.066394   0.109601   0.348916
     22       0.053700   0.042392   0.352703  -0.098937   0.196534   0.287003
     23       0.318276   0.292571   0.212826  -0.126521   0.090380  -0.021327
     24       0.269048  -0.274735   0.085628   0.180868   0.110038   0.300643
     25      -0.385005  -0.397739  -0.169445  -0.047073   0.188796   0.116274
     26       0.089638   0.199158   0.087182  -0.128651   0.041378  -0.005465
     27      -0.039787   0.067988  -0.335784  -0.167189  -0.159971   0.392008
     28       0.024522   0.071953  -0.167395   0.071837   0.031765   0.156455
     29      -0.262907   0.251091   0.314693   0.282741   0.165942  -0.180510
     30      -0.143564   0.028544   0.223531  -0.294899  -0.448578  -0.344040
     31       0.026252   0.056847  -0.153867   0.054667   0.023636   0.078467
     32      -0.266606   0.290713  -0.076947   0.421192   0.337214   0.199460
     33      -0.371512   0.487604   0.075940   0.136861  -0.162402   0.225140
     34      -0.019281   0.088798  -0.203810   0.124565   0.016655   0.196643
     35      -0.068672  -0.022734   0.036329   0.081061   0.108626  -0.138726
                 18         19         20         21         22         23    
      0      -0.050613  -0.008615  -0.104771   0.061336   0.058793   0.090886
      1       0.015911   0.017536   0.071220   0.009407   0.086748   0.107674
      2      -0.102569  -0.129602   0.021788  -0.049337   0.016766  -0.003814
      3       0.022402   0.046833   0.072008  -0.261168   0.005854  -0.099041
      4       0.014249  -0.049157  -0.103231  -0.157831   0.004298  -0.059416
      5      -0.007150   0.057856   0.041292   0.068826   0.005117   0.025710
      6       0.023203  -0.005957  -0.014193   0.038760  -0.001271   0.009708
      7       0.013196   0.051337  -0.005119   0.023907  -0.007291   0.005892
      8      -0.007519   0.093469  -0.065489  -0.008848  -0.018446  -0.002254
      9      -0.014344   0.001563   0.006805   0.011983  -0.000061   0.003775
     10      -0.010364  -0.006567  -0.011647   0.008977   0.000097   0.002962
     11       0.004709  -0.003027   0.019268  -0.004001   0.000476  -0.001280
     12       0.001915   0.004073   0.015894  -0.001963   0.000515  -0.000538
     13       0.003155  -0.003335  -0.016590  -0.003065  -0.000485  -0.000994
     14      -0.001306   0.002487   0.003507   0.001215   0.000385   0.000393
     15       0.031284  -0.059708  -0.010024   0.048063  -0.097085   0.122446
     16      -0.028868  -0.013963   0.127100   0.057834  -0.005481   0.024781
     17       0.110843  -0.113828  -0.002884   0.020140   0.060330  -0.052374
     18       0.083497   0.190962  -0.166907   0.246526  -0.061051   0.012621
     19      -0.078723   0.099203  -0.443900   0.423865  -0.353616  -0.402575
     20       0.161783   0.220509  -0.004716   0.193475  -0.104337  -0.032505
     21       0.217207   0.090148   0.332037   0.102441  -0.336396  -0.437326
     22       0.280946   0.209847   0.295067   0.177690  -0.219436  -0.191229
     23       0.170035   0.198394  -0.009154   0.243491  -0.141339   0.023318
     24      -0.220613  -0.277463   0.217815   0.008910  -0.164543  -0.209462
     25      -0.483780  -0.467855  -0.094298   0.223846  -0.334696  -0.245844
     26      -0.006144  -0.015146  -0.007565  -0.049763   0.105786   0.096145
     27       0.261269  -0.133760  -0.372692   0.105716   0.274531  -0.320333
     28       0.004788   0.073309  -0.132590  -0.053456   0.152839  -0.266071
     29      -0.300807   0.254879   0.175748  -0.306930  -0.307771   0.166815
     30      -0.102192  -0.078599   0.435027   0.386914   0.285783  -0.295264
     31       0.074567  -0.060112  -0.078959  -0.048402  -0.152362   0.202627
     32      -0.158522   0.289465  -0.165572  -0.368369  -0.204660   0.108768
     33      -0.499761   0.484106  -0.012102   0.227209   0.401937  -0.303673
     34       0.057003  -0.001464  -0.227799  -0.087939   0.009013  -0.082222
     35       0.201653  -0.218910   0.055104  -0.012887  -0.045553   0.046189
                 24         25         26         27         28         29    
      0      -0.018764   0.030076   0.024424   0.029923  -0.010043   0.000967
      1       0.007589  -0.026752   0.018373  -0.009107  -0.047279  -0.005154
      2       0.030977  -0.010285   0.035178   0.026067  -0.040036   0.001353
      3      -0.001584   0.021025  -0.052235   0.013857  -0.027837  -0.002011
      4      -0.006889   0.016581  -0.028763  -0.023961   0.293182  -0.001517
      5      -0.033389  -0.000678   0.013966   0.008609   0.576021  -0.018312
      6       0.002394  -0.003974   0.007037  -0.001708  -0.014740   0.001431
      7       0.009907  -0.004406   0.003488   0.004672  -0.135999   0.003247
      8       0.033688  -0.005176  -0.003169   0.003177  -0.363662   0.013822
      9      -0.000349  -0.000683   0.001476   0.000259  -0.000820  -0.499551
     10       0.000014  -0.000564   0.001196  -0.000596  -0.007571   0.549244
     11      -0.002770   0.000514  -0.000494   0.001451   0.001548  -0.176813
     12      -0.001912   0.000328  -0.000276   0.001180   0.019677   0.422739
     13       0.002263  -0.000151  -0.000358  -0.001218  -0.019518  -0.464132
     14      -0.000165  -0.000013   0.000147   0.000226   0.008708   0.148927
     15       0.010122  -0.012359   0.008873   0.006966   0.031674   0.004626
     16       0.039336   0.033244   0.004013  -0.016779  -0.022829  -0.004230
     17       0.018560  -0.006965  -0.049870   0.024804  -0.051598   0.001266
     18      -0.033659  -0.121199  -0.130621  -0.231376   0.061504   0.004150
     19       0.280968  -0.175045   0.247995   0.122540   0.307450   0.002192
     20      -0.066551  -0.238897  -0.301307  -0.471995   0.056694  -0.001451
     21       0.174432   0.028751   0.210157   0.277135   0.087157  -0.004991
     22      -0.078558   0.155635  -0.026768   0.116450  -0.049999  -0.012025
     23      -0.411082   0.380173  -0.322124  -0.036306  -0.142342   0.000542
     24       0.145373  -0.414678  -0.175169  -0.458725  -0.045982   0.004218
     25      -0.293690   0.340744  -0.247021   0.014882  -0.280063  -0.000645
     26       0.037020   0.016142   0.097940   0.099733  -0.005040   0.004225
     27      -0.130134   0.082720   0.227375  -0.189517  -0.049167   0.015654
     28      -0.286661  -0.017214   0.312665  -0.159153  -0.132848  -0.000692
     29      -0.418848  -0.283950   0.224614   0.077807  -0.101954  -0.005644
     30      -0.244794   0.005334   0.316994  -0.158444  -0.258760  -0.005715
     31       0.139944  -0.032388  -0.195744   0.124260   0.114697  -0.003402
     32       0.121193   0.351072   0.322299  -0.385569   0.139195   0.001232
     33       0.203358   0.024092  -0.348519   0.163889   0.249505  -0.000530
     34      -0.427922  -0.467912  -0.079781   0.324859  -0.097308  -0.002183
     35       0.046444   0.065293   0.041358  -0.063278  -0.085741   0.006087
                 30         31         32         33         34         35    
      0      -0.006701  -0.005622  -0.026131  -0.066843   0.009624   0.038894
      1      -0.039006  -0.036975   0.014253   0.034508  -0.003640  -0.011763
      2       0.002396   0.002566  -0.016951  -0.035657  -0.013948  -0.083958
      3       0.003220  -0.000356   0.001778  -0.000879   0.001201   0.000486
      4       0.001845   0.001235  -0.000260   0.002676   0.000799   0.000018
      5      -0.000759   0.002337  -0.000147  -0.000470   0.000842  -0.001741
      6      -0.000184  -0.000013  -0.000182   0.000132  -0.000293  -0.000116
      7      -0.000091  -0.000139   0.000050  -0.000304  -0.000244   0.000060
      8       0.000043  -0.000433   0.000015   0.000086  -0.000339   0.000606
      9      -0.000233   0.000103   0.000176   0.000464  -0.000090   0.000021
     10      -0.000158  -0.000268   0.000369  -0.000233  -0.000110   0.000067
     11       0.000051   0.000100  -0.000276   0.000404  -0.000271   0.000385
     12       0.000024   0.000087   0.000060  -0.000197   0.000058  -0.000037
     13       0.000009  -0.000069  -0.000132   0.000185  -0.000007   0.000044
     14      -0.000003  -0.000005   0.000055  -0.000100   0.000057  -0.000100
     15      -0.033435   0.036025   0.018431  -0.005512   0.037125  -0.007377
     16       0.009313  -0.010577  -0.067442   0.029255   0.055051  -0.007971
     17       0.010149  -0.010567   0.047120  -0.016756   0.065587  -0.013133
     18       0.275833   0.256731   0.168190   0.461391  -0.128298  -0.599910
     19      -0.039324  -0.034073  -0.017592  -0.047654   0.014718   0.068175
     20      -0.151561  -0.140067  -0.098319  -0.264987   0.068932   0.323380
     21      -0.267556  -0.252230   0.107397   0.256485  -0.006731   0.014557
     22       0.456539   0.430789  -0.188009  -0.455032   0.013131  -0.017443
     23      -0.205381  -0.193692   0.083356   0.201477  -0.007558  -0.001981
     24       0.054408   0.049091   0.033308   0.073401   0.018102   0.119320
     25       0.035452   0.031638   0.030386   0.068832   0.012392   0.086244
     26       0.323511   0.296175   0.217749   0.490943   0.103892   0.683543
     27       0.317660  -0.342560  -0.384866   0.153525  -0.020633   0.013611
     28      -0.360234   0.388019   0.424976  -0.167643   0.035040  -0.017480
     29       0.163268  -0.175710  -0.189795   0.074887  -0.005723   0.006010
     30       0.133497  -0.144610   0.235149  -0.108433  -0.287325   0.045232
     31       0.288264  -0.306505   0.462110  -0.213677  -0.589893   0.092248
     32       0.042466  -0.043971   0.075314  -0.033019  -0.077598   0.012412
     33      -0.068603   0.073301  -0.088644   0.031381  -0.141564   0.027954
     34      -0.045663   0.048381  -0.078346   0.028549  -0.102221   0.020825
     35      -0.313986   0.330521  -0.443753   0.156058  -0.699486   0.141472


-----------
IR SPECTRUM
-----------

 Mode    freq (cm**-1)   T**2         TX         TY         TZ
-------------------------------------------------------------------
   7:        80.71    1.373605  ( -0.143769  -0.985031   0.618587)
   8:        99.94   15.606855  ( -2.329517   2.947777  -1.220990)
   9:       245.90    0.468942  (  0.261968   0.622439   0.113509)
  10:       264.46    4.349144  ( -1.017250   1.709516   0.626020)
  11:       325.61    4.449401  ( -0.200242   0.629386   2.003292)
  12:       345.18    1.570761  ( -0.026360  -1.251334   0.065040)
  13:       412.69    4.407984  ( -1.168443   1.502640  -0.885889)
  14:       511.19   74.830019  ( -3.711063   6.940939  -3.589066)
  15:       521.13   40.456777  ( -6.089026  -1.727139   0.630504)
  16:       815.56   38.457087  (  3.361001  -4.118009   3.194176)
  17:       890.68    3.202136  ( -1.558510  -0.856996   0.196824)
  18:       957.22    0.050659  (  0.214695   0.062902  -0.024673)
  19:      1050.57   27.872278  (  2.773468  -4.488673  -0.178801)
  20:      1056.35  150.316889  (  6.648810  -7.720998   6.818827)
  21:      1225.07   80.632545  ( -7.612150  -4.418463   1.779017)
  22:      1350.65    7.412606  (  1.332223  -1.910367  -1.410065)
  23:      1364.59  109.626416  ( -8.836429  -5.172044   2.189499)
  24:      1416.09   64.943049  ( -0.355371  -3.150089  -7.409028)
  25:      1418.41    2.948434  ( -0.401907   0.056614   1.668442)
  26:      1424.27    8.008363  ( -2.280978  -1.350073   0.991367)
  27:      1434.40    5.705965  ( -1.193641   0.701695  -1.946487)
  28:      1608.04  525.834717  (  3.286819   4.504523  22.242770)
  29:      2226.86    3.662068  ( -1.159791   1.512819  -0.168326)
  30:      3038.81   13.026644  ( -2.754055  -2.124587   0.963305)
  31:      3041.60   29.596829  (  3.140971  -4.403892   0.580400)
  32:      3136.03   13.201767  ( -0.473852  -3.057421   1.905101)
  33:      3139.49   42.364573  ( -4.312639   3.662815  -3.217065)
  34:      3172.06   19.594395  (  2.329846   2.560581   2.758558)
  35:      3177.55   28.348941  (  1.509401  -1.034816  -4.999981)

The first frequency considered to be a vibration is 7
The total number of vibrations considered is 29


--------------------------
THERMOCHEMISTRY AT 298.15K
--------------------------

Temperature         ... 298.15 K
Pressure            ... 1.00 atm
Total Mass          ... 84.10 AMU

Throughout the following assumptions are being made:
  (1) The electronic state is orbitally nondegenerate
  (2) There are no thermally accessible electronically excited states
  (3) Hindered rotations indicated by low frequency modes are not
      treated as such but are treated as vibrations and this may
      cause some error
  (4) All equations used are the standard statistical mechanics
      equations for an ideal gas
  (5) All vibrations are strictly harmonic

freq.      80.71  E(vib)   ...       0.48 
freq.      99.94  E(vib)   ...       0.46 
freq.     245.90  E(vib)   ...       0.31 
freq.     264.46  E(vib)   ...       0.29 
freq.     325.61  E(vib)   ...       0.24 
freq.     345.18  E(vib)   ...       0.23 
freq.     412.69  E(vib)   ...       0.19 
freq.     511.19  E(vib)   ...       0.14 
freq.     521.13  E(vib)   ...       0.13 
freq.     815.56  E(vib)   ...       0.05 
freq.     890.68  E(vib)   ...       0.04 
freq.     957.22  E(vib)   ...       0.03 
freq.    1050.57  E(vib)   ...       0.02 
freq.    1056.35  E(vib)   ...       0.02 
freq.    1225.07  E(vib)   ...       0.01 
freq.    1350.65  E(vib)   ...       0.01 
freq.    1364.59  E(vib)   ...       0.01 
freq.    1416.09  E(vib)   ...       0.00 
freq.    1418.41  E(vib)   ...       0.00 
freq.    1424.27  E(vib)   ...       0.00 
freq.    1434.40  E(vib)   ...       0.00 
freq.    1608.04  E(vib)   ...       0.00 
freq.    2226.86  E(vib)   ...       0.00 
freq.    3038.81  E(vib)   ...       0.00 
freq.    3041.60  E(vib)   ...       0.00 
freq.    3136.03  E(vib)   ...       0.00 
freq.    3139.49  E(vib)   ...       0.00 
freq.    3172.06  E(vib)   ...       0.00 
freq.    3177.55  E(vib)   ...       0.00 

------------
INNER ENERGY
------------

The inner energy is: U= E(el) + E(ZPE) + E(vib) + E(rot) + E(trans)
    E(el)   - is the total energy from the electronic structure calculation
              = E(kin-el) + E(nuc-el) + E(el-el) + E(nuc-nuc)
    E(ZPE)  - the the zero temperature vibrational energy from the frequency calculation
    E(vib)  - the the finite temperature correction to E(ZPE) due to population
              of excited vibrational states
    E(rot)  - is the rotational thermal energy
    E(trans)- is the translational thermal energy

Summary of contributions to the inner energy U:
Electronic energy                ...   -285.54857809 Eh
Zero point energy                ...      0.09055971 Eh      56.83 kcal/mol
Thermal vibrational correction   ...      0.00424031 Eh       2.66 kcal/mol
Thermal rotational correction    ...      0.00141627 Eh       0.89 kcal/mol
Thermal translational correction ...      0.00141627 Eh       0.89 kcal/mol
-----------------------------------------------------------------------
Total thermal energy                   -285.45094553 Eh


Summary of corrections to the electronic energy:
(perhaps to be used in another calculation)
Total thermal correction                  0.00707285 Eh       4.44 kcal/mol
Non-thermal (ZPE) correction              0.09055971 Eh      56.83 kcal/mol
-----------------------------------------------------------------------
Total correction                          0.09763256 Eh      61.27 kcal/mol


--------
ENTHALPY
--------

The enthalpy is H = U + kB*T
                kB is Boltzmann's constant
Total free energy                 ...   -285.45094553 Eh 
Thermal Enthalpy correction       ...      0.00094421 Eh       0.59 kcal/mol
-----------------------------------------------------------------------
Total Enthalpy                    ...   -285.45000132 Eh


Note: Rotational entropy computed according to Herzberg 
Infrared and Raman Spectra, Chapter V,1, Van Nostrand Reinhold, 1945 
Point Group:  C1, Symmetry Number:   1  
Rotational constants in cm-1:     0.164919     0.080940     0.077780 

Vibrational entropy computed according to the QRRHO of S. Grimme
Chem.Eur.J. 2012 18 9955


-------
ENTROPY
-------

The entropy contributions are T*S = T*(S(el)+S(vib)+S(rot)+S(trans))
     S(el)   - electronic entropy
     S(vib)  - vibrational entropy
     S(rot)  - rotational entropy
     S(trans)- translational entropy
The entropies will be listed as mutliplied by the temperature to get
units of energy

Electronic entropy                ...      0.00000000 Eh      0.00 kcal/mol
Vibrational entropy               ...      0.00724903 Eh      4.55 kcal/mol
Rotational entropy                ...      0.01275418 Eh      8.00 kcal/mol
Translational entropy             ...      0.01862596 Eh     11.69 kcal/mol
-----------------------------------------------------------------------
Final entropy term                ...      0.03862916 Eh     24.24 kcal/mol


-------------------
GIBBS FREE ENTHALPY
-------------------

The Gibbs free enthalpy is G = H - T*S

Total enthalpy                    ...   -285.45000132 Eh 
Total entropy correction          ...     -0.03862916 Eh    -24.24 kcal/mol
-----------------------------------------------------------------------
Final Gibbs free enthalpy         ...   -285.48863049 Eh

For completeness - the Gibbs free enthalpy minus the electronic energy
G-E(el)                           ...      0.05994761 Eh     37.62 kcal/mol


Timings for individual modules:

Sum of individual times         ...      135.027 sec (=   2.250 min)
GTO integral calculation        ...        7.920 sec (=   0.132 min)   5.9 %
SCF iterations                  ...       58.299 sec (=   0.972 min)  43.2 %
SCF Gradient evaluation         ...       14.403 sec (=   0.240 min)  10.7 %
Geometry relaxation             ...        0.623 sec (=   0.010 min)   0.5 %
Analytical frequency calculation...       53.782 sec (=   0.896 min)  39.8 %
                             ****ORCA TERMINATED NORMALLY****
TOTAL RUN TIME: 0 days 0 hours 2 minutes 17 seconds 821 msec
