
                                 *****************
                                 * O   R   C   A *
                                 *****************

           --- An Ab Initio, DFT and Semiempirical electronic structure package ---

                  #######################################################
                  #                        -***-                        #
                  #          Department of theory and spectroscopy      #
                  #               Directorship: Frank Neese             #
                  #        Max Planck Institute fuer Kohlenforschung    #
                  #                Kaiser Wilhelm Platz 1               #
                  #                 D-45470 Muelheim/Ruhr               #
                  #                      Germany                        #
                  #                                                     #
                  #                  All rights reserved                #
                  #                        -***-                        #
                  #######################################################


                         Program Version 4.1.1  - RELEASE  -


 With contributions from (in alphabetic order):
   Daniel Aravena         : Magnetic Properties
   Michael Atanasov       : Ab Initio Ligand Field Theory
   Alexander A. Auer      : GIAO ZORA
   Ute Becker             : Parallelization
   Giovanni Bistoni       : ED, Open-shell LED
   Martin Brehm           : Molecular dynamics
   Dmytro Bykov           : SCF Hessian
   Vijay G. Chilkuri      : MRCI spin determinant printing
   Dipayan Datta          : RHF DLPNO-CCSD density
   Achintya Kumar Dutta   : EOM-CC, STEOM-CC
   Dmitry Ganyushin       : Spin-Orbit,Spin-Spin,Magnetic field MRCI
   Miquel Garcia          : C-PCM Hessian
   Yang Guo               : DLPNO-NEVPT2, CIM, IAO-localization
   Andreas Hansen         : Spin unrestricted coupled pair/coupled cluster methods
   Benjamin Helmich-Paris : CASSCF linear response (MC-RPA)
   Lee Huntington         : MR-EOM, pCC
   Robert Izsak           : Overlap fitted RIJCOSX, COSX-SCS-MP3, EOM
   Christian Kollmar      : KDIIS, OOCD, Brueckner-CCSD(T), CCSD density
   Simone Kossmann        : Meta GGA functionals, TD-DFT gradient, OOMP2, MP2 Hessian
   Martin Krupicka        : AUTO-CI
   Lucas Lang             : DCDCAS
   Dagmar Lenk            : GEPOL surface, SMD
   Dimitrios Liakos       : Extrapolation schemes; parallel MDCI
   Dimitrios Manganas     : ROCIS; embedding schemes
   Dimitrios Pantazis     : SARC Basis sets
   Taras Petrenko         : DFT Hessian,TD-DFT gradient, ASA, ECA, R-Raman, ABS, FL, XAS/XES, NRVS
   Peter Pinski           : DLPNO-MP2, DLPNO-MP2 Gradient
   Christoph Reimann      : Effective Core Potentials
   Marius Retegan         : Local ZFS, SOC
   Christoph Riplinger    : Optimizer, TS searches, QM/MM, DLPNO-CCSD(T), (RO)-DLPNO pert. Triples
   Tobias Risthaus        : Range-separated hybrids, TD-DFT gradient, RPA, STAB
   Michael Roemelt        : Restricted open shell CIS
   Masaaki Saitow         : Open-shell DLPNO
   Barbara Sandhoefer     : DKH picture change effects
   Avijit Sen             : IP-ROCIS
   Kantharuban Sivalingam : CASSCF convergence, NEVPT2, FIC-MRCI
   Bernardo de Souza      : ESD, SOC TD-DFT
   Georgi Stoychev        : AutoAux, RI-MP2 NMR
   Willem Van den Heuvel  : Paramagnetic NMR
   Boris Wezisla          : Elementary symmetry handling
   Frank Wennmohs         : Technical directorship


 We gratefully acknowledge several colleagues who have allowed us to
 interface, adapt or use parts of their codes:
   Stefan Grimme, W. Hujo, H. Kruse,             : VdW corrections, initial TS optimization,
                  C. Bannwarth                     DFT functionals, gCP, sTDA/sTD-DF
   Ed Valeev                                     : LibInt (2-el integral package), F12 methods
   Garnet Chan, S. Sharma, J. Yang, R. Olivares  : DMRG
   Ulf Ekstrom                                   : XCFun DFT Library
   Mihaly Kallay                                 : mrcc  (arbitrary order and MRCC methods)
   Andreas Klamt, Michael Diedenhofen            : otool_cosmo (COSMO solvation model)
   Jiri Pittner, Ondrej Demel                    : Mk-CCSD
   Frank Weinhold                                : gennbo (NPA and NBO analysis)
   Christopher J. Cramer and Donald G. Truhlar   : smd solvation model
   Lars Goerigk                                  : TD-DFT with DH, B97 family of functionals
   V. Asgeirsson, H. Jonsson                     : NEB implementation
   FAccTs GmbH                                   : IRC, NEB, NEB-TS, Multilevel


 Your calculation uses the libint2 library for the computation of 2-el integrals
 For citations please refer to: http://libint.valeyev.net

 This ORCA versions uses:
   CBLAS   interface :  Fast vector & matrix operations
   LAPACKE interface :  Fast linear algebra routines
   SCALAPACK package :  Parallel linear algebra routines


Your calculation utilizes the atom-pairwise dispersion correction
with the Becke-Johnson damping scheme (D3BJ)
Cite in your paper:
S.Grimme, S.Ehrlich, L.Goerigk, J Comput Chem, (2011), 32, 1456–1465 
S.Grimme, J.Antony, S.Ehrlich and H.Krieg, J.Chem.Phys., 132, (2010), 154104 
   

Your calculation utilizes the SMD solvation module
Please cite in your paper:
A.V. Marenich, C.J. Cramer, D.G. Truhlar J. Phys. Chem. B, 113, (2009), 6378 

----- Orbital basis set information -----
Your calculation utilizes the basis: def2-SVP
   F. Weigend and R. Ahlrichs, Phys. Chem. Chem. Phys. 7, 3297 (2005).

----- AuxJ basis set information -----
Your calculation utilizes the auxiliary basis: def2/J
   F. Weigend, Phys. Chem. Chem. Phys. 8, 1057 (2006).

================================================================================
                                        WARNINGS
                       Please study these warnings very carefully!
================================================================================


WARNING: Geometry Optimization
  ===> : Switching off AutoStart
         For restart on a previous wavefunction, please use MOREAD

INFO   : the flag for use of LIBINT has been found!

================================================================================
                                       INPUT FILE
================================================================================
NAME = get_template_ts_guess_breaking_bonds_TS_orca_opt.inp
|  1> ! OptTS Freq PBE0 RIJCOSX D3BJ def2-SVP def2/J PAL8
|  2> %cpcm
|  3>  smd true
|  4>  SMDsolvent "water"
|  5>  end
|  6> %geom
|  7> Calc_Hess true
|  8> Recalc_Hess 40
|  9> Trust 0.2
| 10> MaxIter 100
| 11> end
| 12> %geom
| 13> modify_internal
| 14> { B 1 3 A } end
| 15> end
| 16> %geom MaxIter 100 end
| 17> %scf 
| 18> maxiter 250 
| 19> end
| 20> % maxcore 4000
| 21> *xyz -1 1
| 22> C  -0.77740300 -1.09616200  0.21719600 
| 23> C   0.08647100  0.11012100  0.54513700 
| 24> O   0.12659600  0.50712500  1.73419600 
| 25> C  -1.05494500  1.47545900 -0.49479200 
| 26> N  -1.82387700  2.32209800 -0.75362500 
| 27> C   1.34889100  0.21732000 -0.29089400 
| 28> H  -1.74606800 -1.01691900  0.72980300 
| 29> H  -0.26031800 -1.99046800  0.60809700 
| 30> H  -0.94045200 -1.22667800 -0.86165900 
| 31> H   2.04763200 -0.56242700  0.05970600 
| 32> H   1.82806100  1.19381500 -0.12894100 
| 33> H   1.16521200  0.06671700 -1.36432400 
| 34> *
| 35> 
| 36>                          ****END OF INPUT****
================================================================================

                       *****************************
                       * Geometry Optimization Run *
                       *****************************

Geometry optimization settings:
Update method            Update   .... Bofill
Choice of coordinates    CoordSys .... Z-matrix Internals
Initial Hessian          InHess   .... Almoef's Model

Convergence Tolerances:
Energy Change            TolE     ....  5.0000e-06 Eh
Max. Gradient            TolMAXG  ....  3.0000e-04 Eh/bohr
RMS Gradient             TolRMSG  ....  1.0000e-04 Eh/bohr
Max. Displacement        TolMAXD  ....  4.0000e-03 bohr
RMS Displacement         TolRMSD  ....  2.0000e-03 bohr

------------------------------------------------------------------------------
                        ORCA OPTIMIZATION COORDINATE SETUP
------------------------------------------------------------------------------

The optimization will be done in new redundant internal coordinates
Making redundant internal coordinates   ...  (new redundants) Bond   3,  1 is already included
done
Following TS mode number                ...     0
Evaluating the initial hessian          ...  (Is done on the fly) done
Evaluating the coordinates              ...  done
Calculating the B-matrix                .... done
Calculating the G-matrix                .... done
Diagonalizing the G-matrix              .... done
The first mode is                       ....   21
The number of degrees of freedom        ....   30

    -----------------------------------------------------------------
                    Redundant Internal Coordinates


    -----------------------------------------------------------------
         Definition                    Initial Value    d2E/dq (diagonal element)
    -----------------------------------------------------------------
      1. B(C   1,C   0)                  1.5195         0.000000   
      2. B(O   2,C   1)                  1.2542         0.000000   
      3. B(C   3,C   1)                  2.0612         0.000000   
      4. B(N   4,C   3)                  1.1726         0.000000   
      5. B(C   5,C   1)                  1.5179         0.000000   
      6. B(H   6,C   0)                  1.0988         0.000000   
      7. B(H   7,C   0)                  1.1045         0.000000   
      8. B(H   8,C   0)                  1.0989         0.000000   
      9. B(H   9,C   5)                  1.1042         0.000000   
     10. B(H  10,C   5)                  1.0997         0.000000   
     11. B(H  11,C   5)                  1.0994         0.000000   
     12. A(H   7,C   0,H   8)          108.7087         0.000000   
     13. A(C   1,C   0,H   8)          112.9873         0.000000   
     14. A(H   6,C   0,H   7)          107.8181         0.000000   
     15. A(C   1,C   0,H   7)          107.4718         0.000000   
     16. A(C   1,C   0,H   6)          110.0752         0.000000   
     17. A(H   6,C   0,H   8)          109.6196         0.000000   
     18. A(O   2,C   1,C   5)          118.2415         0.000000   
     19. A(C   0,C   1,O   2)          118.2992         0.000000   
     20. A(C   3,C   1,C   5)           97.8102         0.000000   
     21. A(C   0,C   1,C   5)          114.2057         0.000000   
     22. A(O   2,C   1,C   3)          106.6402         0.000000   
     23. A(C   0,C   1,C   3)           95.8625         0.000000   
     24. A(C   1,C   3,N   4)          162.3174         0.000000   
     25. A(H  10,C   5,H  11)          109.7688         0.000000   
     26. A(H   9,C   5,H  11)          108.6035         0.000000   
     27. A(C   1,C   5,H  11)          112.9007         0.000000   
     28. A(H   9,C   5,H  10)          107.7321         0.000000   
     29. A(C   1,C   5,H  10)          110.1191         0.000000   
     30. A(C   1,C   5,H   9)          107.5504         0.000000   
     31. D(O   2,C   1,C   0,H   8)    166.4378         0.000000   
     32. D(C   3,C   1,C   0,H   8)     53.9662         0.000000   
     33. D(C   5,C   1,C   0,H   6)   -170.2459         0.000000   
     34. D(C   5,C   1,C   0,H   8)    -47.3331         0.000000   
     35. D(C   3,C   1,C   0,H   6)    -68.9467         0.000000   
     36. D(C   3,C   1,C   0,H   7)    173.8868         0.000000   
     37. D(O   2,C   1,C   0,H   7)    -73.6416         0.000000   
     38. D(C   5,C   1,C   0,H   7)     72.5876         0.000000   
     39. D(O   2,C   1,C   0,H   6)     43.5249         0.000000   
     40. D(N   4,C   3,C   1,C   5)   -143.9571         0.000000   
     41. D(N   4,C   3,C   1,O   2)    -21.3081         0.000000   
     42. D(N   4,C   3,C   1,C   0)    100.5681         0.000000   
     43. D(H   9,C   5,C   1,C   3)   -172.9440         0.000000   
     44. D(H   9,C   5,C   1,O   2)     73.3669         0.000000   
     45. D(H   9,C   5,C   1,C   0)    -72.8829         0.000000   
     46. D(H  11,C   5,C   1,C   3)    -53.1541         0.000000   
     47. D(H  11,C   5,C   1,O   2)   -166.8431         0.000000   
     48. D(H  11,C   5,C   1,C   0)     46.9070         0.000000   
     49. D(H  10,C   5,C   1,C   3)     69.9234         0.000000   
     50. D(H  10,C   5,C   1,O   2)    -43.7656         0.000000   
     51. D(H  10,C   5,C   1,C   0)    169.9845         0.000000   
    -----------------------------------------------------------------

Number of atoms                         .... 12
Number of degrees of freedom            .... 51

         *************************************************************
         *                GEOMETRY OPTIMIZATION CYCLE   1            *
         *************************************************************
---------------------------------
CARTESIAN COORDINATES (ANGSTROEM)
---------------------------------
  C     -0.777403   -1.096162    0.217196
  C      0.086471    0.110121    0.545137
  O      0.126596    0.507125    1.734196
  C     -1.054945    1.475459   -0.494792
  N     -1.823877    2.322098   -0.753625
  C      1.348891    0.217320   -0.290894
  H     -1.746068   -1.016919    0.729803
  H     -0.260318   -1.990468    0.608097
  H     -0.940452   -1.226678   -0.861659
  H      2.047632   -0.562427    0.059706
  H      1.828061    1.193815   -0.128941
  H      1.165212    0.066717   -1.364324

----------------------------
CARTESIAN COORDINATES (A.U.)
----------------------------
  NO LB      ZA    FRAG     MASS         X           Y           Z
   0 C     6.0000    0    12.011   -1.469079   -2.071446    0.410441
   1 C     6.0000    0    12.011    0.163407    0.208099    1.030160
   2 O     8.0000    0    15.999    0.239232    0.958327    3.277156
   3 C     6.0000    0    12.011   -1.993557    2.788213   -0.935021
   4 N     7.0000    0    14.007   -3.446628    4.388129   -1.424145
   5 C     6.0000    0    12.011    2.549035    0.410675   -0.549710
   6 H     1.0000    0     1.008   -3.299590   -1.921698    1.379128
   7 H     1.0000    0     1.008   -0.491930   -3.761439    1.149137
   8 H     1.0000    0     1.008   -1.777197   -2.318085   -1.628300
   9 H     1.0000    0     1.008    3.869464   -1.062833    0.112828
  10 H     1.0000    0     1.008    3.454535    2.255983   -0.243663
  11 H     1.0000    0     1.008    2.201932    0.126077   -2.578199

--------------------------------
INTERNAL COORDINATES (ANGSTROEM)
--------------------------------
 C      0   0   0     0.000000000000     0.00000000     0.00000000
 C      1   0   0     1.519520405735     0.00000000     0.00000000
 O      2   1   0     1.254226254358   118.29915990     0.00000000
 C      2   1   3     2.061172157861    95.86254837   247.52839651
 N      4   2   1     1.172624636802   162.31737135   100.56810834
 C      2   1   3     1.517940616415   114.20573874   146.22915102
 H      1   2   3     1.098798103258   110.07515688    43.52490522
 H      1   2   3     1.104519674185   107.47175079   286.35840307
 H      1   2   3     1.098884668053   112.98731515   166.43775700
 H      6   2   1     1.104157927604   107.55044834   287.11707235
 H      6   2   1     1.099715939747   110.11911723   169.98448488
 H      6   2   1     1.099395835698   112.90072039    46.90698426

---------------------------
INTERNAL COORDINATES (A.U.)
---------------------------
 C      0   0   0     0.000000000000     0.00000000     0.00000000
 C      1   0   0     2.871477421745     0.00000000     0.00000000
 O      2   1   0     2.370144130711   118.29915990     0.00000000
 C      2   1   3     3.895050893221    95.86254837   247.52839651
 N      4   2   1     2.215939421444   162.31737135   100.56810834
 C      2   1   3     2.868492052580   114.20573874   146.22915102
 H      1   2   3     2.076427491629   110.07515688    43.52490522
 H      1   2   3     2.087239693738   107.47175079   286.35840307
 H      1   2   3     2.076591075385   112.98731515   166.43775700
 H      6   2   1     2.086556091769   107.55044834   287.11707235
 H      6   2   1     2.078161951230   110.11911723   169.98448488
 H      6   2   1     2.077557042243   112.90072039    46.90698426

---------------------
BASIS SET INFORMATION
---------------------
There are 4 groups of distinct atoms

 Group   1 Type C   : 7s4p1d contracted to 3s2p1d pattern {511/31/1}
 Group   2 Type O   : 7s4p1d contracted to 3s2p1d pattern {511/31/1}
 Group   3 Type N   : 7s4p1d contracted to 3s2p1d pattern {511/31/1}
 Group   4 Type H   : 4s1p contracted to 2s1p pattern {31/1}

Atom   0C    basis set group =>   1
Atom   1C    basis set group =>   1
Atom   2O    basis set group =>   2
Atom   3C    basis set group =>   1
Atom   4N    basis set group =>   3
Atom   5C    basis set group =>   1
Atom   6H    basis set group =>   4
Atom   7H    basis set group =>   4
Atom   8H    basis set group =>   4
Atom   9H    basis set group =>   4
Atom  10H    basis set group =>   4
Atom  11H    basis set group =>   4
-------------------------------
AUXILIARY BASIS SET INFORMATION
-------------------------------
There are 4 groups of distinct atoms

 Group   1 Type C   : 12s5p4d2f1g contracted to 6s4p3d1f1g pattern {711111/2111/211/2/1}
 Group   2 Type O   : 12s5p4d2f1g contracted to 6s4p3d1f1g pattern {711111/2111/211/2/1}
 Group   3 Type N   : 12s5p4d2f1g contracted to 6s4p3d1f1g pattern {711111/2111/211/2/1}
 Group   4 Type H   : 5s2p1d contracted to 3s1p1d pattern {311/2/1}

Atom   0C    basis set group =>   1
Atom   1C    basis set group =>   1
Atom   2O    basis set group =>   2
Atom   3C    basis set group =>   1
Atom   4N    basis set group =>   3
Atom   5C    basis set group =>   1
Atom   6H    basis set group =>   4
Atom   7H    basis set group =>   4
Atom   8H    basis set group =>   4
Atom   9H    basis set group =>   4
Atom  10H    basis set group =>   4
Atom  11H    basis set group =>   4


           ************************************************************
           *        Program running with 8 parallel MPI-processes     *
           *              working on a common directory               *
           ************************************************************
------------------------------------------------------------------------------
                           ORCA GTO INTEGRAL CALCULATION
                           -- RI-GTO INTEGRALS CHOSEN --
------------------------------------------------------------------------------

                         BASIS SET STATISTICS AND STARTUP INFO

Gaussian basis set:
 # of primitive gaussian shells          ...  102
 # of primitive gaussian functions       ...  186
 # of contracted shells                  ...   54
 # of contracted basis functions         ...  114
 Highest angular momentum                ...    2
 Maximum contraction depth               ...    5
Auxiliary gaussian basis set:
 # of primitive gaussian shells          ...  192
 # of primitive gaussian functions       ...  516
 # of contracted shells                  ...  120
 # of contracted aux-basis functions     ...  360
 Highest angular momentum                ...    4
 Maximum contraction depth               ...    7
Ratio of auxiliary to basis functions    ...  3.16
Integral package used                  ... LIBINT
 One Electron integrals                  ... done
 Ordering auxiliary basis shells         ... done
 Integral threshhold             Thresh  ...  2.500e-11
 Primitive cut-off               TCut    ...  2.500e-12
 Pre-screening matrix                    ... done
 Shell pair data                         ... 
 Ordering of the shell pairs             ... done (   0.000 sec) 1449 of 1485 pairs
 Determination of significant pairs      ... done (   0.000 sec)
 Creation of shell pair data             ... done (   0.000 sec)
 Storage of shell pair data              ... done (   0.000 sec)
 Shell pair data done in (   0.001 sec)
 Computing two index integrals           ... done
 Cholesky decomposition of the V-matrix  ... done


Timings:
 Total evaluation time                   ...   0.188 sec (  0.003 min)
 One electron matrix time                ...   0.015 sec (  0.000 min) =  8.2%
 Schwartz matrix evaluation time         ...   0.150 sec (  0.003 min) = 79.8%
 Two index repulsion integral time       ...   0.003 sec (  0.000 min) =  1.7%
 Cholesky decomposition of V             ...   0.003 sec (  0.000 min) =  1.4%
 Three index repulsion integral time     ...   0.000 sec (  0.000 min) =  0.0%



           ************************************************************
           *        Program running with 8 parallel MPI-processes     *
           *              working on a common directory               *
           ************************************************************
-------------------------------------------------------------------------------
                                 ORCA SCF
-------------------------------------------------------------------------------

------------
SCF SETTINGS
------------
Hamiltonian:
 Density Functional     Method          .... DFT(GTOs)
 Exchange Functional    Exchange        .... PBE
   PBE kappa parameter   XKappa         ....  0.804000
   PBE mue parameter    XMuePBE         ....  0.219520
 Correlation Functional Correlation     .... PBE
   PBE beta parameter  CBetaPBE         ....  0.066725
 LDA part of GGA corr.  LDAOpt          .... PW91-LDA
 Gradients option       PostSCFGGA      .... off
 Hybrid DFT is turned on
   Fraction HF Exchange ScalHFX         ....  0.250000
   Scaling of DF-GGA-X  ScalDFX         ....  0.750000
   Scaling of DF-GGA-C  ScalDFC         ....  1.000000
   Scaling of DF-LDA-C  ScalLDAC        ....  1.000000
   Perturbative correction              ....  0.000000
   Density functional embedding theory  .... OFF
   NL short-range parameter             ....  6.900000
 RI-approximation to the Coulomb term is turned on
   Number of auxiliary basis functions  .... 360
   RIJ-COSX (HFX calculated with COS-X)).... on


General Settings:
 Integral files         IntName         .... get_template_ts_guess_breaking_bonds_TS_orca_opt
 Hartree-Fock type      HFTyp           .... RHF
 Total Charge           Charge          ....   -1
 Multiplicity           Mult            ....    1
 Number of Electrons    NEL             ....   46
 Basis Dimension        Dim             ....  114
 Nuclear Repulsion      ENuc            ....    208.8828006779 Eh

Convergence Acceleration:
 DIIS                   CNVDIIS         .... on
   Start iteration      DIISMaxIt       ....    12
   Startup error        DIISStart       ....  0.200000
   # of expansion vecs  DIISMaxEq       ....     5
   Bias factor          DIISBfac        ....   1.050
   Max. coefficient     DIISMaxC        ....  10.000
 Newton-Raphson         CNVNR           .... off
 SOSCF                  CNVSOSCF        .... on
   Start iteration      SOSCFMaxIt      ....   150
   Startup grad/error   SOSCFStart      ....  0.003300
 Level Shifting         CNVShift        .... on
   Level shift para.    LevelShift      ....    0.2500
   Turn off err/grad.   ShiftErr        ....    0.0010
 Zerner damping         CNVZerner       .... off
 Static damping         CNVDamp         .... on
   Fraction old density DampFac         ....    0.7000
   Max. Damping (<1)    DampMax         ....    0.9800
   Min. Damping (>=0)   DampMin         ....    0.0000
   Turn off err/grad.   DampErr         ....    0.1000
 Fernandez-Rico         CNVRico         .... off

SCF Procedure:
 Maximum # iterations   MaxIter         ....   250
 SCF integral mode      SCFMode         .... Direct
   Integral package                     .... LIBINT
 Reset frequency        DirectResetFreq ....    20
 Integral Threshold     Thresh          ....  2.500e-11 Eh
 Primitive CutOff       TCut            ....  2.500e-12 Eh

Convergence Tolerance:
 Convergence Check Mode ConvCheckMode   .... Total+1el-Energy
 Convergence forced     ConvForced      .... 0
 Energy Change          TolE            ....  1.000e-08 Eh
 1-El. energy change                    ....  1.000e-05 Eh
 Orbital Gradient       TolG            ....  1.000e-05
 Orbital Rotation angle TolX            ....  1.000e-05
 DIIS Error             TolErr          ....  5.000e-07


Diagonalization of the overlap matrix:
Smallest eigenvalue                        ... 2.113e-03
Time for diagonalization                   ...    0.003 sec
Threshold for overlap eigenvalues          ... 1.000e-08
Number of eigenvalues below threshold      ... 0
Time for construction of square roots      ...    0.001 sec
Total time needed                          ...    0.005 sec

-------------------
DFT GRID GENERATION
-------------------

General Integration Accuracy     IntAcc      ...  4.340
Radial Grid Type                 RadialGrid  ... Gauss-Chebyshev
Angular Grid (max. acc.)         AngularGrid ... Lebedev-110
Angular grid pruning method      GridPruning ... 3 (G Style)
Weight generation scheme         WeightScheme... Becke
Basis function cutoff            BFCut       ...    1.0000e-11
Integration weight cutoff        WCut        ...    1.0000e-14
Grids for H and He will be reduced by one unit

# of grid points (after initial pruning)     ...  14806 (   0.0 sec)
# of grid points (after weights+screening)   ...  14001 (   0.0 sec)
nearest neighbour list constructed           ...    0.0 sec
Grid point re-assignment to atoms done       ...    0.0 sec
Grid point division into batches done        ...    0.0 sec
Reduced shell lists constructed in    0.0 sec

Total number of grid points                  ...    14001
Total number of batches                      ...      226
Average number of points per batch           ...       61
Average number of grid points per atom       ...     1167
Average number of shells per batch           ...    46.67 (86.42%)
Average number of basis functions per batch  ...    99.73 (87.49%)
Average number of large shells per batch     ...    42.07 (90.14%)
Average number of large basis fcns per batch ...    88.67 (88.90%)
Maximum spatial batch extension              ...  17.39, 15.65, 12.86 au
Average spatial batch extension              ...   0.28,  0.26,  0.23 au

Time for grid setup =    0.038 sec

------------------------------
INITIAL GUESS: MODEL POTENTIAL
------------------------------
Loading Hartree-Fock densities                     ... done
Calculating cut-offs                               ... done
Setting up the integral package                    ... done
Initializing the effective Hamiltonian             ... done
Starting the Coulomb interaction                   ... done (   0.0 sec)
Reading the grid                                   ... done
Mapping shells                                     ... done
Starting the XC term evaluation                    ... done (   0.0 sec)
  promolecular density results
     # of electrons  =     45.000524057
     EX              =    -36.733291316
     EC              =     -1.449182663
     EX+EC           =    -38.182473979
Transforming the Hamiltonian                       ... done (   0.0 sec)
Diagonalizing the Hamiltonian                      ... done (   0.0 sec)
Back transforming the eigenvectors                 ... done (   0.0 sec)
Now organizing SCF variables                       ... done
                      ------------------
                      INITIAL GUESS DONE (   0.2 sec)
                      ------------------
--------------------
COSX GRID GENERATION
--------------------

General Integration Accuracy     IntAcc      ...  3.340
Radial Grid Type                 RadialGrid  ... Gauss-Chebyshev
Angular Grid (max. acc.)         AngularGrid ... Lebedev-50
Angular grid pruning method      GridPruning ... 3 (G Style)
Weight generation scheme         WeightScheme... Becke
Basis function cutoff            BFCut       ...    1.0000e-11
Integration weight cutoff        WCut        ...    1.0000e-14
Grids for H and He will be reduced by one unit

# of grid points (after initial pruning)     ...   5386 (   0.0 sec)
# of grid points (after weights+screening)   ...   5102 (   0.0 sec)
nearest neighbour list constructed           ...    0.0 sec
Grid point re-assignment to atoms done       ...    0.0 sec
Grid point division into batches done        ...    0.0 sec
Reduced shell lists constructed in    0.0 sec

Total number of grid points                  ...     5102
Total number of batches                      ...       86
Average number of points per batch           ...       59
Average number of grid points per atom       ...      425
Average number of shells per batch           ...    46.33 (85.80%)
Average number of basis functions per batch  ...    98.83 (86.70%)
Average number of large shells per batch     ...    41.58 (89.75%)
Average number of large basis fcns per batch ...    87.92 (88.95%)
Maximum spatial batch extension              ...   2.62,  2.62,  2.61 au
Average spatial batch extension              ...   0.25,  0.25,  0.25 au

Overlap Fitting                  UseSFitting ... on
Constructing numerical overlap ... done (      0.0 sec)
Inverting numerical overlap    ... done (      0.0 sec)
Obtaining analytic overlap     ... done (      0.0 sec)
Final contraction and storage  ... done (      0.0 sec)


General Integration Accuracy     IntAcc      ...  3.670
Radial Grid Type                 RadialGrid  ... Gauss-Chebyshev
Angular Grid (max. acc.)         AngularGrid ... Lebedev-50
Angular grid pruning method      GridPruning ... 3 (G Style)
Weight generation scheme         WeightScheme... Becke
Basis function cutoff            BFCut       ...    1.0000e-11
Integration weight cutoff        WCut        ...    1.0000e-14
Grids for H and He will be reduced by one unit

# of grid points (after initial pruning)     ...   6876 (   0.0 sec)
# of grid points (after weights+screening)   ...   6505 (   0.0 sec)
nearest neighbour list constructed           ...    0.0 sec
Grid point re-assignment to atoms done       ...    0.0 sec
Grid point division into batches done        ...    0.0 sec
Reduced shell lists constructed in    0.0 sec

Total number of grid points                  ...     6505
Total number of batches                      ...      106
Average number of points per batch           ...       61
Average number of grid points per atom       ...      542
Average number of shells per batch           ...    46.87 (86.79%)
Average number of basis functions per batch  ...    99.80 (87.54%)
Average number of large shells per batch     ...    42.73 (91.18%)
Average number of large basis fcns per batch ...    90.47 (90.65%)
Maximum spatial batch extension              ...   2.74,  3.90,  3.73 au
Average spatial batch extension              ...   0.25,  0.28,  0.24 au

Overlap Fitting                  UseSFitting ... on
Constructing numerical overlap ... done (      0.0 sec)
Inverting numerical overlap    ... done (      0.0 sec)
Obtaining analytic overlap     ... done (      0.0 sec)
Final contraction and storage  ... done (      0.0 sec)


General Integration Accuracy     IntAcc      ...  4.010
Radial Grid Type                 RadialGrid  ... Gauss-Chebyshev
Angular Grid (max. acc.)         AngularGrid ... Lebedev-110
Angular grid pruning method      GridPruning ... 3 (G Style)
Weight generation scheme         WeightScheme... Becke
Basis function cutoff            BFCut       ...    1.0000e-11
Integration weight cutoff        WCut        ...    1.0000e-14
Grids for H and He will be reduced by one unit

# of grid points (after initial pruning)     ...  12770 (   0.0 sec)
# of grid points (after weights+screening)   ...  12095 (   0.0 sec)
nearest neighbour list constructed           ...    0.0 sec
Grid point re-assignment to atoms done       ...    0.0 sec
Grid point division into batches done        ...    0.0 sec
Reduced shell lists constructed in    0.0 sec

Total number of grid points                  ...    12095
Total number of batches                      ...      194
Average number of points per batch           ...       62
Average number of grid points per atom       ...     1008
Average number of shells per batch           ...    46.50 (86.11%)
Average number of basis functions per batch  ...    99.27 (87.08%)
Average number of large shells per batch     ...    42.04 (90.41%)
Average number of large basis fcns per batch ...    88.96 (89.62%)
Maximum spatial batch extension              ...  16.67, 14.94, 11.86 au
Average spatial batch extension              ...   0.30,  0.29,  0.26 au

Overlap Fitting                  UseSFitting ... on
Constructing numerical overlap ... done (      0.0 sec)
Inverting numerical overlap    ... done (      0.0 sec)
Obtaining analytic overlap     ... done (      0.0 sec)
Final contraction and storage  ... done (      0.0 sec)

Time for X-Grid setup             =    0.119 sec

--------------------
CPCM SOLVATION MODEL
--------------------
CPCM parameters:
  Epsilon                                         ...      78.3550
  Refrac                                          ...       1.0000
  Rsolv                                           ...       1.3000
  Surface type                                    ...    GEPOL SES
  Epsilon function type                           ...         CPCM
Solvent:                                     ... WATER
SMD-CDS solvent descriptors:
  Soln                                       ...    1.3328
  Soln25                                     ...    1.3323
  Sola                                       ...    0.0000
  Solb                                       ...    0.0000
  Solg                                       ...    0.0000
  Solc                                       ...    0.0000
  Solh                                       ...    0.0000
Radii:
 Radius for C  used is    3.4960 Bohr (=   1.8500 Ang.)
 Radius for O  used is    2.8724 Bohr (=   1.5200 Ang.)
 Radius for N  used is    3.5716 Bohr (=   1.8900 Ang.)
 Radius for H  used is    2.2677 Bohr (=   1.2000 Ang.)
Calculating surface                               ...        done! (  0.0s)
GEPOL surface points                              ...          480
GEPOL Volume                                      ...     704.9851
GEPOL Surface-area                                ...     457.6589
Calculating surface distance matrix               ...        done! (  0.0s)
Performing Cholesky decomposition & store         ...        done! (  0.0s)
Overall time for CPCM initialization              ...                 0.0s
--------------
SCF ITERATIONS
--------------
ITER       Energy         Delta-E        Max-DP      RMS-DP      [F,P]     Damp
               ***  Starting incremental Fock matrix formation  ***
  0   -285.2919902336   0.000000000000 0.09629755  0.00370205  0.2836362 0.7000
  1   -285.4122050095  -0.120214775904 0.05471855  0.00254938  0.1243729 0.7000
                               ***Turning on DIIS***
  2   -285.4591128512  -0.046907841750 0.11322960  0.00428688  0.0403621 0.0000
  3   -285.5346574469  -0.075544595696 0.04688420  0.00180876  0.0616678 0.0000
  4   -285.5491123484  -0.014454901509 0.02018568  0.00059527  0.0182781 0.0000
                      *** Initiating the SOSCF procedure ***
                           *** Shutting down DIIS ***
                      *** Re-Reading the Fockian *** 
                      *** Removing any level shift *** 
ITER      Energy       Delta-E        Grad      Rot      Max-DP    RMS-DP
  5   -285.55045555  -0.0013432012  0.001065  0.001065  0.004188  0.000191
               *** Restarting incremental Fock matrix formation ***
  6   -285.55049616  -0.0000406106  0.000417  0.001085  0.003389  0.000123
  7   -285.55049897  -0.0000028119  0.000336  0.000295  0.000968  0.000030
  8   -285.55050255  -0.0000035755  0.000066  0.000158  0.000358  0.000013
  9   -285.55050242   0.0000001256  0.000119  0.000100  0.000131  0.000006
 10   -285.55050262  -0.0000001988  0.000009  0.000022  0.000048  0.000002
 11   -285.55050262   0.0000000031  0.000014  0.000012  0.000024  0.000001
                  ***Gradient check signals convergence***
              ***Rediagonalizing the Fockian in SOSCF/NRSCF***

               *****************************************************
               *                     SUCCESS                       *
               *           SCF CONVERGED AFTER  12 CYCLES          *
               *****************************************************

Setting up the final grid:

General Integration Accuracy     IntAcc      ...  4.670
Radial Grid Type                 RadialGrid  ... Gauss-Chebyshev
Angular Grid (max. acc.)         AngularGrid ... Lebedev-302
Angular grid pruning method      GridPruning ... 3 (G Style)
Weight generation scheme         WeightScheme... Becke
Basis function cutoff            BFCut       ...    1.0000e-11
Integration weight cutoff        WCut        ...    1.0000e-14
Grids for H and He will be reduced by one unit

# of grid points (after initial pruning)     ...  57636 (   0.0 sec)
# of grid points (after weights+screening)   ...  53788 (   0.0 sec)
nearest neighbour list constructed           ...    0.0 sec
Grid point re-assignment to atoms done       ...    0.0 sec
Grid point division into batches done        ...    0.2 sec
Reduced shell lists constructed in    0.2 sec

Total number of grid points                  ...    53788
Total number of batches                      ...      846
Average number of points per batch           ...       63
Average number of grid points per atom       ...     4482
Average number of shells per batch           ...    44.90 (83.14%)
Average number of basis functions per batch  ...    96.09 (84.29%)
Average number of large shells per batch     ...    39.95 (88.99%)
Average number of large basis fcns per batch ...    83.75 (87.15%)
Maximum spatial batch extension              ...  18.21, 14.28, 11.42 au
Average spatial batch extension              ...   0.23,  0.21,  0.19 au

Final grid set up in    0.2 sec
Final integration                            ... done (   0.1 sec)
Change in XC energy                          ...     0.000130186
Integrated number of electrons               ...    46.000011157
Previous integrated no of electrons          ...    46.001129163
Old exchange energy                            =     -9.444919287 Eh
New exchange energy                            =     -9.445163652 Eh
Exchange energy change after final integration =     -0.000244365 Eh
Total energy after final integration           =   -285.550616799 Eh
Final COS-X integration done in                =     0.215 sec

SMD CDS free energy correction energy :                 6.43139     Kcal/mol
Total Energy after SMD CDS correction =              -285.540367734 Eh

----------------
TOTAL SCF ENERGY
----------------

Total Energy       :         -285.54036773 Eh           -7769.94842 eV

Components:
Nuclear Repulsion  :          208.88280068 Eh            5683.98997 eV
Electronic Energy  :         -494.42316841 Eh          -13453.93840 eV
One Electron Energy:         -810.58756286 Eh          -22057.20895 eV
Two Electron Energy:          316.16439445 Eh            8603.27055 eV
CPCM Dielectric    :           -0.11231045 Eh              -3.05612 eV
SMD CDS (Gcds)     :            0.01024906 Eh               0.27889 eV

Virial components:
Potential Energy   :         -568.46212498 Eh          -15468.64083 eV
Kinetic Energy     :          282.92175725 Eh            7698.69241 eV
Virial Ratio       :            2.00925560


DFT components:
N(Alpha)           :       23.000005578453 electrons
N(Beta)            :       23.000005578453 electrons
N(Total)           :       46.000011156906 electrons
E(X)               :      -28.270589440866 Eh       
E(C)               :       -1.509364241454 Eh       
E(XC)              :      -29.779953682321 Eh       
DFET-embed. en.    :        0.000000000000 Eh       
CPCM Solvation Model Properties:
Surface-charge          :            0.96923555
Charge-correction       :           -0.00500693 Eh              -0.13625 eV
Free-energy (cav+disp)  :            0.00348656 Eh               0.09487 eV
Corrected G(solv)       :         -285.54188811 Eh           -7769.98979 eV

---------------
SCF CONVERGENCE
---------------

  Last Energy change         ...   -2.5394e-09  Tolerance :   1.0000e-08
  Last MAX-Density change    ...    2.2204e-15  Tolerance :   1.0000e-07
  Last RMS-Density change    ...    5.4736e-17  Tolerance :   5.0000e-09
  Last Orbital Gradient      ...    1.6078e-06  Tolerance :   1.0000e-05
  Last Orbital Rotation      ...    4.7955e-06  Tolerance :   1.0000e-05

             **** THE GBW FILE WAS UPDATED (get_template_ts_guess_breaking_bonds_TS_orca_opt.gbw) ****
             **** DENSITY FILE WAS UPDATED (get_template_ts_guess_breaking_bonds_TS_orca_opt.scfp.tmp) ****
             **** ENERGY FILE WAS UPDATED (get_template_ts_guess_breaking_bonds_TS_orca_opt.en.tmp) ****
----------------
ORBITAL ENERGIES
----------------

  NO   OCC          E(Eh)            E(eV) 
   0   2.0000     -19.139673      -520.8170 
   1   2.0000     -14.333944      -390.0464 
   2   2.0000     -10.306833      -280.4632 
   3   2.0000     -10.209946      -277.8268 
   4   2.0000     -10.209769      -277.8219 
   5   2.0000     -10.197886      -277.4986 
   6   2.0000      -0.999220       -27.1902 
   7   2.0000      -0.857461       -23.3327 
   8   2.0000      -0.752776       -20.4841 
   9   2.0000      -0.693180       -18.8624 
  10   2.0000      -0.524920       -14.2838 
  11   2.0000      -0.468992       -12.7619 
  12   2.0000      -0.439679       -11.9643 
  13   2.0000      -0.435762       -11.8577 
  14   2.0000      -0.387628       -10.5479 
  15   2.0000      -0.377521       -10.2729 
  16   2.0000      -0.371448       -10.1076 
  17   2.0000      -0.358123        -9.7450 
  18   2.0000      -0.336458        -9.1555 
  19   2.0000      -0.305020        -8.3000 
  20   2.0000      -0.301004        -8.1907 
  21   2.0000      -0.244020        -6.6401 
  22   2.0000      -0.229222        -6.2374 
  23   0.0000       0.035431         0.9641 
  24   0.0000       0.084468         2.2985 
  25   0.0000       0.095706         2.6043 
  26   0.0000       0.098709         2.6860 
  27   0.0000       0.145985         3.9724 
  28   0.0000       0.150731         4.1016 
  29   0.0000       0.166385         4.5276 
  30   0.0000       0.178255         4.8506 
  31   0.0000       0.194248         5.2858 
  32   0.0000       0.229041         6.2325 
  33   0.0000       0.293725         7.9927 
  34   0.0000       0.308255         8.3880 
  35   0.0000       0.341517         9.2931 
  36   0.0000       0.430656        11.7187 
  37   0.0000       0.482876        13.1397 
  38   0.0000       0.505434        13.7536 
  39   0.0000       0.525922        14.3111 
  40   0.0000       0.574265        15.6266 
  41   0.0000       0.600808        16.3488 
  42   0.0000       0.626760        17.0550 
  43   0.0000       0.634329        17.2610 
  44   0.0000       0.650203        17.6929 
  45   0.0000       0.664762        18.0891 
  46   0.0000       0.679539        18.4912 
  47   0.0000       0.681658        18.5489 
  48   0.0000       0.691100        18.8058 
  49   0.0000       0.704881        19.1808 
  50   0.0000       0.722038        19.6476 
  51   0.0000       0.736742        20.0478 
  52   0.0000       0.738417        20.0933 
  53   0.0000       0.755181        20.5495 
  54   0.0000       0.779522        21.2119 
  55   0.0000       0.844733        22.9864 
  56   0.0000       0.898407        24.4469 
  57   0.0000       0.917896        24.9772 
  58   0.0000       0.939847        25.5745 
  59   0.0000       0.974418        26.5153 
  60   0.0000       1.029004        28.0006 
  61   0.0000       1.098540        29.8928 
  62   0.0000       1.147083        31.2137 
  63   0.0000       1.155162        31.4336 
  64   0.0000       1.194549        32.5053 
  65   0.0000       1.228645        33.4331 
  66   0.0000       1.365609        37.1601 
  67   0.0000       1.380376        37.5619 
  68   0.0000       1.433400        39.0048 
  69   0.0000       1.552211        42.2378 
  70   0.0000       1.556467        42.3536 
  71   0.0000       1.581944        43.0469 
  72   0.0000       1.608105        43.7588 
  73   0.0000       1.661427        45.2097 
  74   0.0000       1.704116        46.3714 
  75   0.0000       1.718243        46.7558 
  76   0.0000       1.719269        46.7837 
  77   0.0000       1.755387        47.7665 
  78   0.0000       1.799236        48.9597 
  79   0.0000       1.811360        49.2896 
  80   0.0000       1.830360        49.8066 
  81   0.0000       1.834953        49.9316 
  82   0.0000       1.915422        52.1213 
  83   0.0000       1.922023        52.3009 
  84   0.0000       1.949169        53.0396 
  85   0.0000       1.964875        53.4670 
  86   0.0000       2.055608        55.9359 
  87   0.0000       2.106001        57.3072 
  88   0.0000       2.152861        58.5823 
  89   0.0000       2.205063        60.0028 
  90   0.0000       2.242731        61.0278 
  91   0.0000       2.320983        63.1572 
  92   0.0000       2.324507        63.2531 
  93   0.0000       2.386438        64.9383 
  94   0.0000       2.419642        65.8418 
  95   0.0000       2.467863        67.1540 
  96   0.0000       2.544583        69.2416 
  97   0.0000       2.558885        69.6308 
  98   0.0000       2.582356        70.2695 
  99   0.0000       2.678934        72.8975 
 100   0.0000       2.725474        74.1639 
 101   0.0000       2.734522        74.4101 
 102   0.0000       2.808523        76.4238 
 103   0.0000       2.829554        76.9961 
 104   0.0000       2.905244        79.0557 
 105   0.0000       2.931083        79.7588 
 106   0.0000       2.957383        80.4745 
 107   0.0000       2.970102        80.8206 
 108   0.0000       2.995885        81.5222 
 109   0.0000       2.996854        81.5485 
 110   0.0000       3.226416        87.7952 
 111   0.0000       3.348048        91.1050 
 112   0.0000       3.351834        91.2080 
 113   0.0000       3.644569        99.1738 

                    ********************************
                    * MULLIKEN POPULATION ANALYSIS *
                    ********************************

-----------------------
MULLIKEN ATOMIC CHARGES
-----------------------
   0 C :   -0.015506
   1 C :   -0.029294
   2 O :   -0.510156
   3 C :   -0.367025
   4 N :   -0.312097
   5 C :   -0.029122
   6 H :    0.038385
   7 H :    0.048891
   8 H :    0.039802
   9 H :    0.051403
  10 H :    0.042837
  11 H :    0.041883
Sum of atomic charges:   -1.0000000

--------------------------------
MULLIKEN REDUCED ORBITAL CHARGES
--------------------------------
  0 C s       :     3.009294  s :     3.009294
      pz      :     1.001308  p :     2.981069
      px      :     1.006602
      py      :     0.973160
      dz2     :     0.006571  d :     0.025143
      dxz     :     0.004324
      dyz     :     0.003131
      dx2y2   :     0.004713
      dxy     :     0.006403
  1 C s       :     3.230948  s :     3.230948
      pz      :     0.879073  p :     2.696218
      px      :     0.949305
      py      :     0.867839
      dz2     :     0.025359  d :     0.102129
      dxz     :     0.030740
      dyz     :     0.024274
      dx2y2   :     0.009655
      dxy     :     0.012101
  2 O s       :     3.768725  s :     3.768725
      pz      :     1.370111  p :     4.727226
      px      :     1.746058
      py      :     1.611057
      dz2     :     0.006058  d :     0.014205
      dxz     :     0.003083
      dyz     :     0.004215
      dx2y2   :     0.000444
      dxy     :     0.000405
  3 C s       :     3.551752  s :     3.551752
      pz      :     0.856644  p :     2.771306
      px      :     0.941565
      py      :     0.973097
      dz2     :     0.004595  d :     0.043967
      dxz     :     0.006981
      dyz     :     0.008160
      dx2y2   :     0.014565
      dxy     :     0.009666
  4 N s       :     3.642307  s :     3.642307
      pz      :     1.167651  p :     3.643941
      px      :     1.226230
      py      :     1.250060
      dz2     :     0.002880  d :     0.025849
      dxz     :     0.003808
      dyz     :     0.004530
      dx2y2   :     0.007667
      dxy     :     0.006965
  5 C s       :     3.017361  s :     3.017361
      pz      :     0.992626  p :     2.986637
      px      :     0.969987
      py      :     1.024024
      dz2     :     0.007245  d :     0.025125
      dxz     :     0.005071
      dyz     :     0.002128
      dx2y2   :     0.003515
      dxy     :     0.007167
  6 H s       :     0.937925  s :     0.937925
      pz      :     0.007035  p :     0.023690
      px      :     0.012293
      py      :     0.004361
  7 H s       :     0.926546  s :     0.926546
      pz      :     0.006421  p :     0.024563
      px      :     0.006869
      py      :     0.011272
  8 H s       :     0.936449  s :     0.936449
      pz      :     0.014642  p :     0.023749
      px      :     0.004826
      py      :     0.004280
  9 H s       :     0.924059  s :     0.924059
      pz      :     0.005924  p :     0.024538
      px      :     0.008697
      py      :     0.009917
 10 H s       :     0.933581  s :     0.933581
      pz      :     0.004864  p :     0.023583
      px      :     0.005973
      py      :     0.012747
 11 H s       :     0.934432  s :     0.934432
      pz      :     0.014267  p :     0.023685
      px      :     0.004371
      py      :     0.005048


                     *******************************
                     * LOEWDIN POPULATION ANALYSIS *
                     *******************************

----------------------
LOEWDIN ATOMIC CHARGES
----------------------
   0 C :   -0.097404
   1 C :    0.037575
   2 O :   -0.428258
   3 C :   -0.291509
   4 N :   -0.311073
   5 C :   -0.099877
   6 H :    0.029284
   7 H :    0.034761
   8 H :    0.030365
   9 H :    0.035329
  10 H :    0.030095
  11 H :    0.030710

-------------------------------
LOEWDIN REDUCED ORBITAL CHARGES
-------------------------------
  0 C s       :     2.863044  s :     2.863044
      pz      :     1.064975  p :     3.165995
      px      :     1.054246
      py      :     1.046775
      dz2     :     0.018256  d :     0.068364
      dxz     :     0.011427
      dyz     :     0.007982
      dx2y2   :     0.012274
      dxy     :     0.018424
  1 C s       :     2.899102  s :     2.899102
      pz      :     0.968989  p :     2.836461
      px      :     0.966094
      py      :     0.901378
      dz2     :     0.057552  d :     0.226862
      dxz     :     0.070041
      dyz     :     0.051843
      dx2y2   :     0.020606
      dxy     :     0.026820
  2 O s       :     3.563359  s :     3.563359
      pz      :     1.476149  p :     4.839610
      px      :     1.740919
      py      :     1.622542
      dz2     :     0.012041  d :     0.025289
      dxz     :     0.004872
      dyz     :     0.007118
      dx2y2   :     0.000612
      dxy     :     0.000647
  3 C s       :     3.273728  s :     3.273728
      pz      :     0.859553  p :     2.926851
      px      :     1.015453
      py      :     1.051845
      dz2     :     0.010734  d :     0.090930
      dxz     :     0.013163
      dyz     :     0.015523
      dx2y2   :     0.024523
      dxy     :     0.026986
  4 N s       :     3.456249  s :     3.456249
      pz      :     1.162965  p :     3.811649
      px      :     1.305170
      py      :     1.343514
      dz2     :     0.005452  d :     0.043175
      dxz     :     0.005604
      dyz     :     0.006682
      dx2y2   :     0.010286
      dxy     :     0.015151
  5 C s       :     2.863175  s :     2.863175
      pz      :     1.055968  p :     3.168511
      px      :     1.043525
      py      :     1.069018
      dz2     :     0.019608  d :     0.068191
      dxz     :     0.014802
      dyz     :     0.005001
      dx2y2   :     0.010470
      dxy     :     0.018309
  6 H s       :     0.903680  s :     0.903680
      pz      :     0.018641  p :     0.067036
      px      :     0.035441
      py      :     0.012954
  7 H s       :     0.898125  s :     0.898125
      pz      :     0.016092  p :     0.067114
      px      :     0.018597
      py      :     0.032425
  8 H s       :     0.902120  s :     0.902120
      pz      :     0.040891  p :     0.067515
      px      :     0.013380
      py      :     0.013244
  9 H s       :     0.897430  s :     0.897430
      pz      :     0.015470  p :     0.067241
      px      :     0.025312
      py      :     0.026459
 10 H s       :     0.903053  s :     0.903053
      pz      :     0.012775  p :     0.066852
      px      :     0.018937
      py      :     0.035140
 11 H s       :     0.901867  s :     0.901867
      pz      :     0.041079  p :     0.067423
      px      :     0.013293
      py      :     0.013051


                      *****************************
                      * MAYER POPULATION ANALYSIS *
                      *****************************

  NA   - Mulliken gross atomic population
  ZA   - Total nuclear charge
  QA   - Mulliken gross atomic charge
  VA   - Mayer's total valence
  BVA  - Mayer's bonded valence
  FA   - Mayer's free valence

  ATOM       NA         ZA         QA         VA         BVA        FA
  0 C      6.0155     6.0000    -0.0155     3.7978     3.7978    -0.0000
  1 C      6.0293     6.0000    -0.0293     4.3328     4.3328     0.0000
  2 O      8.5102     8.0000    -0.5102     1.9479     1.9479     0.0000
  3 C      6.3670     6.0000    -0.3670     3.4973     3.4973    -0.0000
  4 N      7.3121     7.0000    -0.3121     3.0574     3.0574    -0.0000
  5 C      6.0291     6.0000    -0.0291     3.7969     3.7969     0.0000
  6 H      0.9616     1.0000     0.0384     1.0084     1.0084     0.0000
  7 H      0.9511     1.0000     0.0489     0.9968     0.9968     0.0000
  8 H      0.9602     1.0000     0.0398     0.9987     0.9987     0.0000
  9 H      0.9486     1.0000     0.0514     0.9954     0.9954    -0.0000
 10 H      0.9572     1.0000     0.0428     1.0068     1.0068    -0.0000
 11 H      0.9581     1.0000     0.0419     0.9984     0.9984     0.0000

  Mayer bond orders larger than 0.1
B(  0-C ,  1-C ) :   1.0020 B(  0-C ,  6-H ) :   0.9594 B(  0-C ,  7-H ) :   0.9505 
B(  0-C ,  8-H ) :   0.9546 B(  1-C ,  2-O ) :   1.7932 B(  1-C ,  3-C ) :   0.4276 
B(  1-C ,  5-C ) :   0.9991 B(  3-C ,  4-N ) :   3.0071 B(  5-C ,  9-H ) :   0.9507 
B(  5-C , 10-H ) :   0.9618 B(  5-C , 11-H ) :   0.9558 

-------
TIMINGS
-------

Total SCF time: 0 days 0 hours 0 min 7 sec 

Total time                  ....       7.663 sec
Sum of individual times     ....       7.501 sec  ( 97.9%)

Fock matrix formation       ....       6.991 sec  ( 91.2%)
  Split-RI-J                ....       1.594 sec  ( 22.8% of F)
  Chain of spheres X        ....       2.206 sec  ( 31.6% of F)
  COS-X 1 center corr.      ....       0.000 sec  (  0.0% of F)
  XC integration            ....       0.345 sec  (  4.9% of F)
    Basis function eval.    ....       0.100 sec  ( 29.0% of XC)
    Density eval.           ....       0.041 sec  ( 12.0% of XC)
    XC-Functional eval.     ....       0.023 sec  (  6.7% of XC)
    XC-Potential eval.      ....       0.069 sec  ( 20.1% of XC)
Diagonalization             ....       0.010 sec  (  0.1%)
Density matrix formation    ....       0.003 sec  (  0.0%)
Population analysis         ....       0.003 sec  (  0.0%)
Initial guess               ....       0.121 sec  (  1.6%)
Orbital Transformation      ....       0.000 sec  (  0.0%)
Orbital Orthonormalization  ....       0.000 sec  (  0.0%)
DIIS solution               ....       0.003 sec  (  0.0%)
SOSCF solution              ....       0.006 sec  (  0.1%)
Grid generation             ....       0.364 sec  (  4.7%)


-------------------------------------------------------------------------------
                          DFT DISPERSION CORRECTION                            
                                                                               
                              DFTD3 V3.1  Rev 1                                
                          USING Becke-Johnson damping                          
-------------------------------------------------------------------------------
The PBE0 functional is recognized
Active option DFTDOPT                   ...         4   

molecular C6(AA) [au] = 1460.089897 


            DFT-D V3
 parameters
 s6 scaling factor         :     1.0000 
 a1 scaling factor         :     0.4145 
 s8 scaling factor         :     1.2177 
 a2 scaling factor         :     4.8593 
 ad hoc parameters k1-k3   :    16.0000     1.3333    -4.0000 

 Edisp/kcal,au: -5.162636586604  -0.008227184209 
 E6   /kcal   :  -3.284823811 
 E8   /kcal   :  -1.877812775 
 % E8         :  36.373134999 

-------------------------   ----------------
Dispersion correction           -0.008227184
-------------------------   ----------------


-------------------------   --------------------
FINAL SINGLE POINT ENERGY      -285.548594918683
-------------------------   --------------------



           ************************************************************
           *        Program running with 8 parallel MPI-processes     *
           *              working on a common directory               *
           ************************************************************
------------------------------------------------------------------------------
                         ORCA SCF GRADIENT CALCULATION
------------------------------------------------------------------------------

Gradient of the Kohn-Sham DFT energy:
Kohn-Sham wavefunction type      ... RKS
Hartree-Fock exchange scaling    ...    0.250
Number of operators              ...    1
Number of atoms                  ...   12
Basis set dimensions             ...  114
Integral neglect threshold       ... 2.5e-11
Integral primitive cutoff        ... 2.5e-12

Nuclear repulsion gradient       ... done
One Electron Gradient            ... done
Pre-screening matrix             ... done
RI-J gradient                    ... done
COSX-gradient                    ... done
Exchange-correlation gradient    ... done
Dispersion correction            ... done

------------------
CARTESIAN GRADIENT
------------------

   1   C   :   -0.000150276    0.000219844   -0.000244517
   2   C   :   -0.000111979    0.000138550   -0.000076102
   3   O   :   -0.000081060   -0.000034510   -0.000034901
   4   C   :   -0.000019852    0.000319943    0.000108890
   5   N   :    0.000007283    0.000411719    0.000201463
   6   C   :   -0.000089098    0.000173903   -0.000048538
   7   H   :   -0.000159900    0.000193015   -0.000238265
   8   H   :   -0.000216678    0.000129362   -0.000370773
   9   H   :   -0.000158524    0.000371600   -0.000266707
  10   H   :   -0.000136653    0.000092248   -0.000173329
  11   H   :   -0.000058159    0.000141487    0.000070000
  12   H   :   -0.000091990    0.000336274   -0.000087101

Difference to translation invariance:
           :   -0.0012668852    0.0024934346   -0.0011598793

Norm of the cartesian gradient     ...    0.0011455428
RMS gradient                       ...    0.0001909238
MAX gradient                       ...    0.0004117194

-------
TIMINGS
-------

Total SCF gradient time            ...        1.070 sec

One electron gradient       ....       0.005 sec  (  0.5%)
Prescreening matrices       ....       0.009 sec  (  0.9%)
RI-J Coulomb gradient       ....       0.131 sec  ( 12.2%)
COSX gradient               ....       0.264 sec  ( 24.7%)
XC gradient                 ....       0.184 sec  ( 17.2%)
CPCM gradient               ....       0.126 sec  ( 11.8%)
   A-Matrix (El+Nuc)        ....       0.007 sec  (  0.7%)
   Potential                ....       0.119 sec  ( 11.1%)


           ************************************************************
           *        Program running with 8 parallel MPI-processes     *
           *              working on a common directory               *
           ************************************************************

-------------------------------------------------------------------------------
                               ORCA SCF HESSIAN
-------------------------------------------------------------------------------

Hessian of the Kohn-Sham DFT energy:
Kohn-Sham wavefunction type                      ... RKS
Hartree-Fock exchange scaling                    ...    0.250
Number of operators                              ...    1
Number of atoms                                  ...   12
Basis set dimensions                             ...  114
Integral neglect threshold                       ... 2.5e-11
Integral primitive cutoff                        ... 2.5e-12

Setting up DFT Hessian calculations              ... 
Electron density on the grid                     ... found on disk
Electron density on the final grid               ... found on disk
Building xc-kernel on the grid                   ... done   (      0.0 sec)
Building xc-kernel on the final grid             ... done   (      0.0 sec)
                                                     done   (      0.1 sec)

Nuclear repulsion Hessian                        ... done   (      0.0 sec)
C-PCM contribution to the Fock matrix            ... done   (      1.6 sec)

----------------------------------------------
Forming right-hand sides of CP-SCF equations     ...
----------------------------------------------
One electron integral derivatives                ... done   (      0.1 sec)
Transforming the overlap derivative matrices     ... done   (      0.0 sec)
Adding tr(S(x)F(y) C-PCM term to the hessian     ... done   (      0.3 sec)
Making the Q(x) pseudodensities                  ... done   (      0.0 sec)
Adding the E*S(x)*S(y) terms to the Hessian      ... done   (      0.0 sec)
Calculating energy weighted overlap derivatives  ... done   (      0.0 sec)
Two electron integral derivatives (RI)           ... done   (      0.8 sec)
Exchange-correlation integral derivatives        ... done   (      1.7 sec)
tr(F(y)Q(x)) contribution to the Hessian         ... done   (      0.0 sec)
Response fock operator R(S(x)) (RIJCOSX)         ... done   (      1.2 sec)
XC Response fock operator R(S(x))                ... done   (      0.7 sec)
tr(F(y)S(x)) contribution to the Hessian         ... done   (      0.0 sec)
Transforming and finalizing RHSs                 ... done   (      0.0 sec)

----------------------------------------------
Solving the CP-SCF equations (RIJCOSX)           ...
----------------------------------------------
     CP-SCF ITERATION   0: 
     CP-SCF ITERATION   1:      0.008513469275
     CP-SCF ITERATION   2:      0.000649506564
     CP-SCF ITERATION   3:      0.000114889649
     CP-SCF ITERATION   4:      0.000008207804
     CP-SCF ITERATION   5:      0.000000437680
     CP-SCF ITERATION   6:      0.000000027219
     CP-SCF ITERATION   7:      0.000000009887

                                                 ... done   (      9.2 sec)
Forming perturbed density Hessian contributions  ... done   (      0.0 sec)
Calculating [Q*(d^2 A/dXdY)*Q  ] C-PCM term      ... done   (      0.0 sec)
Calculating [d^2(V_N)/(dXdY)*Q ] C-PCM term      ... done   (      0.0 sec)
Calculating [d^2(V_el)/(dXdY)*Q] C-PCM term      ... done   (      0.1 sec)
Calculating C-PCM term that depends on dQ/dX     ... done   (      0.0 sec)
2nd integral derivative contribs (RI)            ... done   (      3.3 sec)
Exchange-correlation Hessian                     ... done   (      1.8 sec)
Dispersion correction in the Hessian             ... done   (      1.0 sec)
Dipol derivatives                                ... done   (      0.2 sec)

Total SCF Hessian time: 0 days 0 hours 0 min 22 sec 

Writing the Hessian file to the disk             ... done


Maximum memory used throughout the entire calculation: 127.6 MB

-----------------------
VIBRATIONAL FREQUENCIES
-----------------------

Scaling factor for frequencies =  1.000000000  (already applied!)

   0:         0.00 cm**-1
   1:         0.00 cm**-1
   2:         0.00 cm**-1
   3:         0.00 cm**-1
   4:         0.00 cm**-1
   5:         0.00 cm**-1
   6:      -237.94 cm**-1 ***imaginary mode***
   7:        80.91 cm**-1
   8:       102.52 cm**-1
   9:       244.39 cm**-1
  10:       264.47 cm**-1
  11:       325.18 cm**-1
  12:       344.29 cm**-1
  13:       412.37 cm**-1
  14:       511.77 cm**-1
  15:       521.35 cm**-1
  16:       815.46 cm**-1
  17:       890.41 cm**-1
  18:       956.58 cm**-1
  19:      1050.49 cm**-1
  20:      1056.26 cm**-1
  21:      1224.60 cm**-1
  22:      1350.60 cm**-1
  23:      1364.52 cm**-1
  24:      1416.15 cm**-1
  25:      1418.42 cm**-1
  26:      1424.08 cm**-1
  27:      1434.57 cm**-1
  28:      1608.28 cm**-1
  29:      2226.46 cm**-1
  30:      3038.97 cm**-1
  31:      3041.78 cm**-1
  32:      3135.95 cm**-1
  33:      3139.50 cm**-1
  34:      3171.84 cm**-1
  35:      3177.77 cm**-1


------------
NORMAL MODES
------------

These modes are the Cartesian displacements weighted by the diagonal matrix
M(i,i)=1/sqrt(m[i]) where m[i] is the mass of the displaced atom
Thus, these vectors are normalized but *not* orthogonal

                  0          1          2          3          4          5    
      0       0.000000   0.000000   0.000000   0.000000   0.000000   0.000000
      1       0.000000   0.000000   0.000000   0.000000   0.000000   0.000000
      2       0.000000   0.000000   0.000000   0.000000   0.000000   0.000000
      3       0.000000   0.000000   0.000000   0.000000   0.000000   0.000000
      4       0.000000   0.000000   0.000000   0.000000   0.000000   0.000000
      5       0.000000   0.000000   0.000000   0.000000   0.000000   0.000000
      6       0.000000   0.000000   0.000000   0.000000   0.000000   0.000000
      7       0.000000   0.000000   0.000000   0.000000   0.000000   0.000000
      8       0.000000   0.000000   0.000000   0.000000   0.000000   0.000000
      9       0.000000   0.000000   0.000000   0.000000   0.000000   0.000000
     10       0.000000   0.000000   0.000000   0.000000   0.000000   0.000000
     11       0.000000   0.000000   0.000000   0.000000   0.000000   0.000000
     12       0.000000   0.000000   0.000000   0.000000   0.000000   0.000000
     13       0.000000   0.000000   0.000000   0.000000   0.000000   0.000000
     14       0.000000   0.000000   0.000000   0.000000   0.000000   0.000000
     15       0.000000   0.000000   0.000000   0.000000   0.000000   0.000000
     16       0.000000   0.000000   0.000000   0.000000   0.000000   0.000000
     17       0.000000   0.000000   0.000000   0.000000   0.000000   0.000000
     18       0.000000   0.000000   0.000000   0.000000   0.000000   0.000000
     19       0.000000   0.000000   0.000000   0.000000   0.000000   0.000000
     20       0.000000   0.000000   0.000000   0.000000   0.000000   0.000000
     21       0.000000   0.000000   0.000000   0.000000   0.000000   0.000000
     22       0.000000   0.000000   0.000000   0.000000   0.000000   0.000000
     23       0.000000   0.000000   0.000000   0.000000   0.000000   0.000000
     24       0.000000   0.000000   0.000000   0.000000   0.000000   0.000000
     25       0.000000   0.000000   0.000000   0.000000   0.000000   0.000000
     26       0.000000   0.000000   0.000000   0.000000   0.000000   0.000000
     27       0.000000   0.000000   0.000000   0.000000   0.000000   0.000000
     28       0.000000   0.000000   0.000000   0.000000   0.000000   0.000000
     29       0.000000   0.000000   0.000000   0.000000   0.000000   0.000000
     30       0.000000   0.000000   0.000000   0.000000   0.000000   0.000000
     31       0.000000   0.000000   0.000000   0.000000   0.000000   0.000000
     32       0.000000   0.000000   0.000000   0.000000   0.000000   0.000000
     33       0.000000   0.000000   0.000000   0.000000   0.000000   0.000000
     34       0.000000   0.000000   0.000000   0.000000   0.000000   0.000000
     35       0.000000   0.000000   0.000000   0.000000   0.000000   0.000000
                  6          7          8          9         10         11    
      0       0.038295  -0.125391  -0.083336  -0.022757  -0.055441  -0.107858
      1      -0.065811   0.204853   0.110359   0.008486   0.027586   0.024488
      2       0.075503  -0.106832  -0.014616  -0.009922   0.006302   0.084810
      3       0.298995   0.052221   0.009393  -0.004247   0.014461   0.010003
      4      -0.361442   0.061663   0.018019  -0.007896  -0.020484  -0.041940
      5       0.247501  -0.023634   0.095530   0.002835   0.001918   0.004973
      6       0.072475   0.032907   0.205962  -0.000905   0.034406  -0.009048
      7      -0.086913   0.025720  -0.240997  -0.016384  -0.050821  -0.054695
      8       0.048286  -0.008723   0.178280   0.005008   0.009701   0.004808
      9      -0.202943   0.204641  -0.020964   0.038932   0.004656   0.123706
     10       0.287619   0.132771   0.123004   0.021481  -0.033160  -0.073528
     11      -0.385407  -0.027477   0.276610  -0.010797  -0.022321  -0.193313
     12      -0.302648  -0.260829  -0.026924  -0.002482   0.016324   0.049031
     13       0.294456  -0.256012  -0.103469  -0.011545  -0.011836  -0.063698
     14      -0.087477   0.083482  -0.437128   0.004455   0.014410   0.070253
     15       0.107311   0.134519  -0.092621  -0.002219  -0.004025  -0.022742
     16      -0.077153  -0.144804   0.121570   0.005284   0.068664   0.162045
     17       0.082151   0.077739  -0.050826   0.007336  -0.015845  -0.010212
     18       0.046240  -0.153969  -0.013408   0.095893  -0.225690   0.046491
     19       0.069245   0.361032   0.059624  -0.110679   0.313322   0.082238
     20       0.059252  -0.184482   0.126008   0.233976  -0.360754   0.368404
     21      -0.151071  -0.305587  -0.072383   0.102116  -0.348233  -0.085683
     22      -0.222386   0.115711   0.015974  -0.042565   0.045953  -0.053904
     23      -0.020748  -0.071458  -0.244077  -0.289992   0.434678  -0.122983
     24       0.074544  -0.060268  -0.232673  -0.267921   0.297510  -0.426076
     25       0.108207   0.237818   0.307761   0.186646  -0.221750   0.124761
     26       0.058050  -0.120811  -0.016654   0.006778  -0.017504   0.121822
     27       0.260382  -0.033905  -0.078337   0.188701   0.160459   0.045866
     28      -0.026026  -0.280057   0.022276   0.328650   0.278791   0.088775
     29      -0.096276   0.110699  -0.298482   0.343770   0.124002  -0.306076
     30       0.002936   0.297090  -0.029750  -0.255692  -0.202652  -0.080757
     31      -0.035095  -0.235079   0.069226   0.190554   0.194003   0.140917
     32       0.101501   0.140696   0.081563  -0.368479  -0.186911   0.291439
     33      -0.057324   0.189316  -0.233822   0.070057   0.026462  -0.074594
     34      -0.023003  -0.082480   0.344048  -0.458081  -0.146903   0.523683
     35       0.112066   0.059428  -0.058283   0.058239   0.009114  -0.049820
                 12         13         14         15         16         17    
      0       0.107615  -0.057147   0.098261  -0.059173   0.169780  -0.036030
      1      -0.127123  -0.083164   0.102649  -0.149940   0.198973   0.102998
      2       0.083690   0.120588   0.049851  -0.076779   0.024694   0.050873
      3      -0.036538  -0.035859  -0.119339  -0.147712   0.071567  -0.065794
      4      -0.006423  -0.005748   0.224227  -0.031963  -0.143276  -0.037476
      5       0.021021  -0.166949  -0.076957   0.012398  -0.053784   0.015576
      6      -0.128273   0.001194   0.083186   0.250304  -0.017549  -0.012003
      7      -0.032100  -0.072761  -0.216556   0.101885  -0.033052  -0.007171
      8       0.030525  -0.138137   0.097337  -0.039019  -0.156371   0.005334
      9       0.294633  -0.011126  -0.041034   0.075920   0.009680  -0.009777
     10       0.270824   0.110508  -0.029612   0.057584  -0.008960  -0.007229
     11      -0.002601   0.104420  -0.227902  -0.065588   0.048974   0.002073
     12      -0.053163  -0.047622  -0.037259  -0.017960   0.019384   0.000586
     13      -0.044319   0.036057   0.054886  -0.004210  -0.022312   0.001759
     14      -0.002106  -0.040716   0.026177   0.010333  -0.000572  -0.000445
     15      -0.133413   0.127280  -0.051790  -0.157572  -0.224143   0.061957
     16       0.001240   0.040159  -0.035961   0.022028  -0.051154  -0.090242
     17      -0.121385   0.062231   0.036697   0.149110   0.115008  -0.058645
     18       0.035867   0.054471   0.112783  -0.189239   0.265833  -0.141793
     19      -0.214532   0.061569  -0.096470  -0.443527   0.448597  -0.378729
     20      -0.038971   0.309671   0.108743  -0.272111   0.145927  -0.080779
     21       0.229467   0.017537   0.399438   0.064808   0.103863   0.346269
     22       0.053076   0.037643   0.353025  -0.100655   0.194229   0.293100
     23       0.329082   0.292354   0.220974  -0.129365   0.094125  -0.010394
     24       0.278118  -0.275881   0.087199   0.182537   0.105839   0.298338
     25      -0.387364  -0.401765  -0.169335  -0.041347   0.189821   0.119943
     26       0.087865   0.188142   0.083675  -0.127300   0.046115   0.001751
     27      -0.036827   0.062835  -0.344263  -0.168197  -0.165297   0.393980
     28       0.023431   0.070431  -0.173806   0.069015   0.026697   0.161966
     29      -0.259438   0.252527   0.309431   0.274442   0.162603  -0.169467
     30      -0.133972   0.020848   0.220637  -0.307589  -0.453742  -0.349696
     31       0.024803   0.054494  -0.150945   0.048716   0.014935   0.073329
     32      -0.267795   0.293455  -0.066580   0.416837   0.326845   0.194022
     33      -0.365918   0.487158   0.078843   0.132532  -0.167643   0.226816
     34      -0.024610   0.095596  -0.201571   0.128061   0.013010   0.200456
     35      -0.076297  -0.011174   0.036405   0.085139   0.106937  -0.131301
                 18         19         20         21         22         23    
      0      -0.048882  -0.007530  -0.105934   0.062395   0.057827   0.089463
      1       0.016772   0.020083   0.069370   0.010645   0.087709   0.108479
      2      -0.102830  -0.129581   0.022278  -0.048046   0.019184  -0.000373
      3       0.022174   0.047413   0.071447  -0.261179   0.004885  -0.099082
      4       0.014576  -0.050930  -0.102019  -0.161631   0.003832  -0.061007
      5      -0.006631   0.058922   0.040820   0.061539   0.005424   0.022919
      6       0.023177  -0.008727  -0.012608   0.038799  -0.000696   0.009740
      7       0.013425   0.050216  -0.005183   0.024477  -0.007010   0.006111
      8      -0.007049   0.092753  -0.067033  -0.007933  -0.018473  -0.001910
      9      -0.014328   0.001749   0.006651   0.012040  -0.000045   0.003797
     10      -0.010517  -0.006549  -0.011621   0.009175   0.000113   0.003022
     11       0.004248  -0.002615   0.019805  -0.003592   0.000467  -0.001154
     12       0.001910   0.004289   0.015787  -0.001969   0.000502  -0.000543
     13       0.003183  -0.003638  -0.016543  -0.003101  -0.000492  -0.001005
     14      -0.001208   0.002437   0.003157   0.001120   0.000386   0.000358
     15       0.029645  -0.057424  -0.010359   0.047259  -0.097546   0.123827
     16      -0.030012  -0.011510   0.127212   0.058170  -0.006930   0.026533
     17       0.111190  -0.114710  -0.000154   0.021844   0.058019  -0.049961
     18       0.081857   0.185537  -0.162757   0.238137  -0.054571   0.017926
     19      -0.080231   0.094542  -0.447029   0.426119  -0.352896  -0.397885
     20       0.161911   0.226440  -0.016652   0.203978  -0.111364  -0.040029
     21       0.210164   0.087462   0.327065   0.096107  -0.332306  -0.432262
     22       0.280078   0.210937   0.297340   0.174310  -0.222377  -0.196755
     23       0.177476   0.203549  -0.000836   0.247232  -0.151399   0.010906
     24      -0.214051  -0.270078   0.221124   0.006525  -0.162924  -0.208055
     25      -0.485097  -0.473302  -0.086522   0.225467  -0.340093  -0.250041
     26      -0.017504  -0.027529  -0.004958  -0.046134   0.098029   0.088608
     27       0.267776  -0.143037  -0.373537   0.111272   0.278219  -0.323396
     28       0.010892   0.066825  -0.138286  -0.048158   0.157626  -0.270702
     29      -0.295951   0.253744   0.163366  -0.303514  -0.299780   0.160174
     30      -0.098756  -0.079452   0.440334   0.395263   0.289536  -0.299638
     31       0.076313  -0.065520  -0.072989  -0.040340  -0.146129   0.199210
     32      -0.160525   0.284678  -0.160640  -0.360562  -0.201234   0.107435
     33      -0.505664   0.486646  -0.016360   0.226288   0.401726  -0.307725
     34       0.050126   0.002792  -0.228678  -0.086157   0.012418  -0.084691
     35       0.192039  -0.206971   0.053812  -0.008906  -0.036543   0.038650
                 24         25         26         27         28         29    
      0      -0.023551   0.027750   0.023223   0.029576  -0.008717   0.001025
      1       0.010177  -0.025185   0.017371  -0.008928  -0.046971  -0.005143
      2       0.031834  -0.006414   0.035350   0.027000  -0.040765   0.001338
      3      -0.003575   0.021256  -0.051378   0.013210  -0.043201  -0.001588
      4      -0.008853   0.015994  -0.028474  -0.024285   0.286264  -0.001466
      5      -0.033278  -0.004603   0.012104   0.008897   0.578236  -0.018514
      6       0.002061  -0.003691   0.006976  -0.001713  -0.005373   0.001057
      7       0.010107  -0.003122   0.003455   0.004617  -0.131921   0.003171
      8       0.034372  -0.000731  -0.002997   0.003067  -0.365269   0.013888
      9      -0.000228  -0.000727   0.001429   0.000271  -0.000759  -0.499829
     10       0.000115  -0.000566   0.001185  -0.000592  -0.007215   0.551054
     11      -0.002864   0.000142  -0.000464   0.001476   0.002061  -0.170146
     12      -0.001936   0.000079  -0.000296   0.001174   0.019697   0.423000
     13       0.002247   0.000139  -0.000323  -0.001219  -0.019731  -0.465715
     14      -0.000128  -0.000028   0.000135   0.000204   0.008448   0.143278
     15       0.011142  -0.011106   0.009085   0.006756   0.032884   0.004627
     16       0.034402   0.037920   0.005546  -0.017208  -0.021853  -0.004182
     17       0.019941  -0.003270  -0.049881   0.024013  -0.051067   0.001325
     18      -0.020145  -0.117925  -0.127264  -0.226174   0.056710   0.004064
     19       0.302853  -0.137598   0.247598   0.132992   0.307760   0.002289
     20      -0.028626  -0.248006  -0.295881  -0.476664   0.063074  -0.001418
     21       0.178646   0.041776   0.213328   0.280123   0.089290  -0.004891
     22      -0.089025   0.140116  -0.017943   0.119772  -0.047745  -0.012090
     23      -0.457391   0.330506  -0.312585  -0.036882  -0.142629   0.000339
     24       0.204962  -0.396350  -0.171937  -0.460036  -0.041225   0.004167
     25      -0.334647   0.297042  -0.244741   0.001644  -0.280583  -0.000548
     26       0.032371   0.018119   0.089365   0.093017  -0.010292   0.004244
     27      -0.130074   0.067597   0.225019  -0.187202  -0.045275   0.015756
     28      -0.277258  -0.055449   0.313496  -0.156994  -0.131515  -0.000410
     29      -0.383485  -0.339084   0.226953   0.076750  -0.105898  -0.005204
     30      -0.245616  -0.040274   0.313700  -0.146691  -0.262535  -0.005643
     31       0.140101  -0.015007  -0.200712   0.125785   0.110803  -0.003462
     32       0.070438   0.355204   0.337801  -0.384079   0.136686   0.000970
[...]
     33      -0.057104   0.189257  -0.233614   0.069958   0.026354  -0.075709
     34      -0.022989  -0.082762   0.343924  -0.458241  -0.146443   0.523772
     35       0.112054   0.059391  -0.058310   0.058349   0.009086  -0.050127
                 12         13         14         15         16         17    
      0       0.107958  -0.057193   0.098424  -0.058883   0.169797  -0.036030
      1      -0.127083  -0.083164   0.103064  -0.149659   0.198989   0.102970
      2       0.083256   0.120648   0.050114  -0.076630   0.024719   0.050866
      3      -0.036511  -0.035781  -0.118838  -0.148053   0.071532  -0.065819
      4      -0.006295  -0.005834   0.224284  -0.031326  -0.143296  -0.037412
      5       0.021087  -0.166938  -0.077065   0.012134  -0.053743   0.015560
      6      -0.128189   0.001125   0.082345   0.250538  -0.017539  -0.012008
      7      -0.031736  -0.072786  -0.216840   0.101259  -0.033074  -0.007171
      8       0.030492  -0.138133   0.097417  -0.038757  -0.156349   0.005375
      9       0.293784  -0.010906  -0.041182   0.075748   0.009643  -0.009774
     10       0.270942   0.110583  -0.029634   0.057584  -0.009000  -0.007231
     11      -0.001852   0.104288  -0.227749  -0.066183   0.049029   0.002059
     12      -0.053102  -0.047716  -0.037183  -0.018013   0.019389   0.000572
     13      -0.044224   0.036018   0.054756  -0.004124  -0.022270   0.001770
     14      -0.002322  -0.040636   0.026243   0.010426  -0.000616  -0.000445
     15      -0.133283   0.127269  -0.051326  -0.157733  -0.224122   0.061995
     16       0.000606   0.040204  -0.035976   0.021943  -0.051164  -0.090276
     17      -0.121324   0.062195   0.036239   0.149192   0.114940  -0.058651
     18       0.035641   0.054527   0.113365  -0.188935   0.265814  -0.141839
     19      -0.214731   0.061667  -0.095066  -0.443808   0.448506  -0.378766
     20      -0.040452   0.309903   0.109688  -0.271808   0.145860  -0.080763
     21       0.229581   0.017474   0.399185   0.065963   0.103904   0.346180
     22       0.053234   0.037622   0.353340  -0.099616   0.194225   0.293006
     23       0.329062   0.292273   0.221420  -0.128623   0.094056  -0.010436
     24       0.279615  -0.276151   0.086557   0.182869   0.105943   0.298335
     25      -0.387275  -0.401694  -0.169334  -0.041947   0.189945   0.119944
     26       0.087298   0.188264   0.084151  -0.127055   0.046113   0.001754
     27      -0.037018   0.062915  -0.343849  -0.169193  -0.165115   0.394074
     28       0.022908   0.070502  -0.173876   0.068584   0.026798   0.161842
     29      -0.258320   0.252168   0.308507   0.275292   0.162464  -0.169445
     30      -0.133481   0.020743   0.221557  -0.307073  -0.453969  -0.349705
     31       0.024154   0.054619  -0.151160   0.048414   0.015119   0.073481
     32      -0.268786   0.293509  -0.067707   0.416636   0.326845   0.193939
     33      -0.365648   0.486998   0.078423   0.132814  -0.167557   0.226942
     34      -0.026444   0.095767  -0.201878   0.127434   0.013105   0.200409
     35      -0.076119  -0.011168   0.036182   0.085233   0.106834  -0.131353
                 18         19         20         21         22         23    
      0      -0.048851  -0.007291  -0.105951   0.062408   0.057883   0.089425
      1       0.016772   0.019931   0.069458   0.010645   0.087772   0.108414
      2      -0.102847  -0.129607   0.021992  -0.048042   0.019179  -0.000394
      3       0.022176   0.047258   0.071503  -0.261214   0.004831  -0.099111
      4       0.014579  -0.050719  -0.102152  -0.161604   0.003809  -0.061008
      5      -0.006620   0.058845   0.040970   0.061503   0.005433   0.022895
      6       0.023175  -0.008716  -0.012611   0.038805  -0.000689   0.009745
      7       0.013423   0.050234  -0.005090   0.024481  -0.007010   0.006120
      8      -0.007035   0.092878  -0.066872  -0.007912  -0.018472  -0.001886
      9      -0.014319   0.001728   0.006632   0.012029  -0.000042   0.003794
     10      -0.010527  -0.006528  -0.011658   0.009182   0.000116   0.003027
     11       0.004248  -0.002641   0.019852  -0.003594   0.000467  -0.001155
     12       0.001899   0.004265   0.015815  -0.001958   0.000502  -0.000541
     13       0.003194  -0.003603  -0.016531  -0.003111  -0.000493  -0.001008
     14      -0.001210   0.002422   0.003127   0.001121   0.000385   0.000359
     15       0.029618  -0.057394  -0.010462   0.047253  -0.097482   0.123917
     16      -0.030034  -0.011771   0.127181   0.058149  -0.006897   0.026512
     17       0.111176  -0.114723  -0.000387   0.021847   0.057976  -0.049998
     18       0.081880   0.185840  -0.162393   0.238158  -0.054583   0.017964
     19      -0.080164   0.095463  -0.446906   0.426143  -0.353140  -0.397629
     20       0.161942   0.226433  -0.016095   0.203933  -0.111351  -0.039853
     21       0.210141   0.086765   0.327322   0.096087  -0.332569  -0.432047
     22       0.280125   0.210331   0.297890   0.174343  -0.222566  -0.196636
     23       0.177446   0.203463  -0.000402   0.247194  -0.151404   0.011011
     24      -0.214085  -0.270494   0.220617   0.006516  -0.163064  -0.207913
     25      -0.485119  -0.473061  -0.087548   0.225401  -0.340235  -0.249788
     26      -0.017446  -0.027455  -0.004985  -0.046153   0.098127   0.088560
     27       0.267887  -0.142351  -0.373748   0.111452   0.278154  -0.323693
     28       0.010815   0.067171  -0.137976  -0.048145   0.157370  -0.270683
     29      -0.295849   0.253350   0.163747  -0.303497  -0.299637   0.160450
     30      -0.098835  -0.080410   0.440148   0.395314   0.289304  -0.299729
     31       0.076333  -0.065317  -0.073277  -0.040522  -0.146121   0.199394
     32      -0.160495   0.285047  -0.159963  -0.360502  -0.201091   0.107514
     33      -0.505647   0.486791  -0.015443   0.226284   0.401493  -0.308091
     34       0.050331   0.003060  -0.228636  -0.086082   0.012357  -0.084642
     35       0.191910  -0.207024   0.053460  -0.008864  -0.036461   0.038653
                 24         25         26         27         28         29    
      0      -0.023439   0.027794   0.023291   0.029572  -0.008700   0.001019
      1       0.010139  -0.025213   0.017331  -0.008944  -0.046960  -0.005140
      2       0.031860  -0.006541   0.035319   0.026980  -0.040754   0.001338
      3      -0.003593   0.021275  -0.051343   0.013256  -0.043320  -0.001568
      4      -0.008850   0.016047  -0.028455  -0.024260   0.286304  -0.001466
      5      -0.033278  -0.004507   0.012152   0.008888   0.578176  -0.018518
      6       0.002056  -0.003698   0.006968  -0.001721  -0.005320   0.001050
      7       0.010106  -0.003158   0.003439   0.004614  -0.131950   0.003173
      8       0.034363  -0.000840  -0.003047   0.003072  -0.365235   0.013882
      9      -0.000226  -0.000726   0.001427   0.000268  -0.000787  -0.500423
     10       0.000118  -0.000567   0.001184  -0.000596  -0.007228   0.550735
     11      -0.002870   0.000149  -0.000458   0.001479   0.002118  -0.169431
     12      -0.001938   0.000083  -0.000290   0.001176   0.019723   0.423506
     13       0.002244   0.000133  -0.000329  -0.001216  -0.019716  -0.465444
     14      -0.000125  -0.000027   0.000136   0.000201   0.008410   0.142671
     15       0.011128  -0.011136   0.009071   0.006742   0.032911   0.004628
     16       0.034535   0.037831   0.005487  -0.017172  -0.021865  -0.004187
     17       0.019851  -0.003321  -0.049894   0.024053  -0.051075   0.001331
     18      -0.020626  -0.117626  -0.127457  -0.226126   0.056764   0.004055
     19       0.302750  -0.138772   0.247124   0.132693   0.307771   0.002282
     20      -0.029758  -0.247419  -0.296401  -0.476644   0.063074  -0.001419
     21       0.179045   0.040891   0.213352   0.280032   0.089211  -0.004876
     22      -0.088741   0.140355  -0.017672   0.119852  -0.047815  -0.012072
     23      -0.456828   0.332036  -0.311699  -0.036538  -0.142649   0.000347
     24       0.203603  -0.396558  -0.172843  -0.460131  -0.041175   0.004167
     25      -0.334113   0.298161  -0.244001   0.001967  -0.280592  -0.000545
     26       0.032604   0.017847   0.089418   0.092943  -0.010250   0.004235
     27      -0.129456   0.068059   0.225148  -0.187446  -0.045308   0.015766
     28      -0.276983  -0.054798   0.313793  -0.157304  -0.131555  -0.000411
     29      -0.384189  -0.338159   0.227395   0.076281  -0.105890  -0.005201
     30      -0.245166  -0.039674   0.313801  -0.146929  -0.262544  -0.005652
     31       0.139794  -0.015322  -0.200859   0.125943   0.110923  -0.003453
     32       0.072024   0.355028   0.337691  -0.384104   0.136608   0.000968
     33       0.199091   0.059102  -0.349411   0.157713   0.250498  -0.000815
     34      -0.362565  -0.516156  -0.095343   0.327888  -0.095725  -0.002204
     35       0.037020   0.063808   0.034388  -0.055112  -0.081135   0.005945
                 30         31         32         33         34         35    
      0      -0.006366  -0.005191  -0.025081  -0.067261   0.009352   0.040182
      1      -0.039478  -0.036610   0.013704   0.034557  -0.003152  -0.009811
      2       0.001729   0.001899  -0.016428  -0.036061  -0.012875  -0.083849
      3       0.003203  -0.000460   0.001784  -0.000885   0.001165   0.000528
      4       0.001896   0.001187  -0.000289   0.002661   0.000801   0.000057
      5      -0.000649   0.002352  -0.000110  -0.000434   0.000891  -0.001727
      6      -0.000180   0.000003  -0.000182   0.000132  -0.000284  -0.000132
      7      -0.000093  -0.000132   0.000056  -0.000300  -0.000247   0.000048
      8       0.000036  -0.000434   0.000013   0.000074  -0.000356   0.000600
      9      -0.000228   0.000105   0.000172   0.000456  -0.000073   0.000018
     10      -0.000160  -0.000259   0.000376  -0.000225  -0.000106   0.000066
     11       0.000043   0.000103  -0.000275   0.000403  -0.000272   0.000383
     12       0.000024   0.000089   0.000063  -0.000193   0.000059  -0.000041
     13       0.000008  -0.000071  -0.000133   0.000185  -0.000010   0.000045
     14      -0.000003  -0.000009   0.000053  -0.000097   0.000053  -0.000097
     15      -0.033356   0.036733   0.018031  -0.005112   0.035309  -0.006591
     16       0.008702  -0.010124  -0.068459   0.028408   0.054465  -0.007179
     17       0.009446  -0.010046   0.046742  -0.015716   0.067338  -0.012577
     18       0.282611   0.257280   0.164097   0.471747  -0.121731  -0.604278
     19      -0.033792  -0.028274  -0.013437  -0.038092   0.011277   0.055319
     20      -0.149432  -0.135042  -0.092380  -0.260687   0.062869   0.313181
     21      -0.272579  -0.251398   0.104579   0.261044  -0.006770   0.015929
     22       0.460482   0.425073  -0.181088  -0.458333   0.013021  -0.019169
     23      -0.204643  -0.188806   0.079288   0.200316  -0.007286  -0.001156
     24       0.048776   0.042991   0.027893   0.063767   0.014942   0.106928
     25       0.031235   0.027177   0.026185   0.061859   0.010104   0.077378
     26       0.328032   0.293889   0.209476   0.492212   0.096748   0.691612
     27       0.312753  -0.344673  -0.386962   0.147545  -0.020468   0.013264
     28      -0.355572   0.391411   0.428163  -0.161366   0.034673  -0.016942
     29       0.162692  -0.178954  -0.193298   0.072907  -0.005439   0.005916
     30       0.129515  -0.143515   0.231694  -0.102520  -0.281340   0.040797
     31       0.286323  -0.311262   0.465736  -0.206638  -0.590706   0.085045
     32       0.048870  -0.051993   0.087179  -0.036881  -0.091768   0.013495
     33      -0.060678   0.066416  -0.078589   0.026483  -0.126132   0.023240
     34      -0.041295   0.044776  -0.073195   0.025471  -0.094024   0.017968
     35      -0.311992   0.335740  -0.447837   0.149633  -0.706559   0.133778


-----------
IR SPECTRUM
-----------

 Mode    freq (cm**-1)   T**2         TX         TY         TZ
-------------------------------------------------------------------
   7:        80.86    1.283607  (  0.161254   0.959344  -0.580743)
   8:       102.60   15.086372  ( -2.293605   2.897161  -1.196747)
   9:       244.36    0.462444  (  0.240137   0.624049   0.123859)
  10:       264.49    4.182645  ( -1.020189   1.651373   0.644071)
  11:       325.08    4.516994  ( -0.239223   0.574921   2.032051)
  12:       344.28    1.551007  ( -0.041705  -1.244659  -0.009566)
  13:       412.34    4.566689  ( -1.186208   1.533630  -0.898654)
  14:       511.81   73.625071  ( -3.741652   6.878359  -3.509030)
  15:       521.35   39.995903  ( -6.013377  -1.883456   0.536462)
  16:       815.46   38.590593  (  3.360429  -4.134097   3.194894)
  17:       890.40    3.298674  ( -1.557683  -0.915580   0.184415)
  18:       956.59    0.045750  (  0.200459   0.067883  -0.030944)
  19:      1050.49   29.332623  (  2.917833  -4.562012  -0.083187)
  20:      1056.25  149.098912  (  6.553250  -7.705036   6.840047)
  21:      1224.58   80.694732  ( -7.601925  -4.512668   1.594145)
  22:      1350.58    7.475656  (  1.315932  -1.935070  -1.414030)
  23:      1364.50  109.782697  ( -8.834138  -5.288905   1.941182)
  24:      1416.14   67.421253  ( -0.105631  -3.053231  -7.621540)
  25:      1418.40    0.748651  ( -0.444628  -0.354878   0.651935)
  26:      1424.08    7.868676  ( -2.243646  -1.374980   0.971678)
  27:      1434.57    5.652970  ( -1.181834   0.701502  -1.940137)
  28:      1608.23  523.841189  (  2.712898   4.322641  22.311346)
  29:      2226.46    3.826779  ( -1.191728   1.540561  -0.182308)
  30:      3038.97   13.071389  ( -2.720957  -2.213013   0.877699)
  31:      3041.79   29.426552  (  3.204731  -4.337688   0.583704)
  32:      3135.94   13.901941  ( -0.450256  -3.169036   1.912177)
  33:      3139.53   41.529189  ( -4.301440   3.609975  -3.161468)
  34:      3171.89   19.917659  (  2.227709   2.576694   2.883682)
  35:      3177.79   27.866157  (  1.634729  -0.893462  -4.939184)

The first frequency considered to be a vibration is 7
The total number of vibrations considered is 29


--------------------------
THERMOCHEMISTRY AT 298.15K
--------------------------

Temperature         ... 298.15 K
Pressure            ... 1.00 atm
Total Mass          ... 84.10 AMU

Throughout the following assumptions are being made:
  (1) The electronic state is orbitally nondegenerate
  (2) There are no thermally accessible electronically excited states
  (3) Hindered rotations indicated by low frequency modes are not
      treated as such but are treated as vibrations and this may
      cause some error
  (4) All equations used are the standard statistical mechanics
      equations for an ideal gas
  (5) All vibrations are strictly harmonic

freq.      80.86  E(vib)   ...       0.48 
freq.     102.60  E(vib)   ...       0.46 
freq.     244.36  E(vib)   ...       0.31 
freq.     264.49  E(vib)   ...       0.29 
freq.     325.08  E(vib)   ...       0.24 
freq.     344.28  E(vib)   ...       0.23 
freq.     412.34  E(vib)   ...       0.19 
freq.     511.81  E(vib)   ...       0.14 
freq.     521.35  E(vib)   ...       0.13 
freq.     815.46  E(vib)   ...       0.05 
freq.     890.40  E(vib)   ...       0.04 
freq.     956.59  E(vib)   ...       0.03 
freq.    1050.49  E(vib)   ...       0.02 
freq.    1056.25  E(vib)   ...       0.02 
freq.    1224.58  E(vib)   ...       0.01 
freq.    1350.58  E(vib)   ...       0.01 
freq.    1364.50  E(vib)   ...       0.01 
freq.    1416.14  E(vib)   ...       0.00 
freq.    1418.40  E(vib)   ...       0.00 
freq.    1424.08  E(vib)   ...       0.00 
freq.    1434.57  E(vib)   ...       0.00 
freq.    1608.23  E(vib)   ...       0.00 
freq.    2226.46  E(vib)   ...       0.00 
freq.    3038.97  E(vib)   ...       0.00 
freq.    3041.79  E(vib)   ...       0.00 
freq.    3135.94  E(vib)   ...       0.00 
freq.    3139.53  E(vib)   ...       0.00 
freq.    3171.89  E(vib)   ...       0.00 
freq.    3177.79  E(vib)   ...       0.00 

------------
INNER ENERGY
------------

The inner energy is: U= E(el) + E(ZPE) + E(vib) + E(rot) + E(trans)
    E(el)   - is the total energy from the electronic structure calculation
              = E(kin-el) + E(nuc-el) + E(el-el) + E(nuc-nuc)
    E(ZPE)  - the the zero temperature vibrational energy from the frequency calculation
    E(vib)  - the the finite temperature correction to E(ZPE) due to population
              of excited vibrational states
    E(rot)  - is the rotational thermal energy
    E(trans)- is the translational thermal energy

Summary of contributions to the inner energy U:
Electronic energy                ...   -285.54859515 Eh
Zero point energy                ...      0.09055676 Eh      56.83 kcal/mol
Thermal vibrational correction   ...      0.00423868 Eh       2.66 kcal/mol
Thermal rotational correction    ...      0.00141627 Eh       0.89 kcal/mol
Thermal translational correction ...      0.00141627 Eh       0.89 kcal/mol
-----------------------------------------------------------------------
Total thermal energy                   -285.45096717 Eh


Summary of corrections to the electronic energy:
(perhaps to be used in another calculation)
Total thermal correction                  0.00707122 Eh       4.44 kcal/mol
Non-thermal (ZPE) correction              0.09055676 Eh      56.83 kcal/mol
-----------------------------------------------------------------------
Total correction                          0.09762798 Eh      61.26 kcal/mol


--------
ENTHALPY
--------

The enthalpy is H = U + kB*T
                kB is Boltzmann's constant
Total free energy                 ...   -285.45096717 Eh 
Thermal Enthalpy correction       ...      0.00094421 Eh       0.59 kcal/mol
-----------------------------------------------------------------------
Total Enthalpy                    ...   -285.45002297 Eh


Note: Rotational entropy computed according to Herzberg 
Infrared and Raman Spectra, Chapter V,1, Van Nostrand Reinhold, 1945 
Point Group:  C1, Symmetry Number:   1  
Rotational constants in cm-1:     0.164894     0.080964     0.077842 

Vibrational entropy computed according to the QRRHO of S. Grimme
Chem.Eur.J. 2012 18 9955


-------
ENTROPY
-------

The entropy contributions are T*S = T*(S(el)+S(vib)+S(rot)+S(trans))
     S(el)   - electronic entropy
     S(vib)  - vibrational entropy
     S(rot)  - rotational entropy
     S(trans)- translational entropy
The entropies will be listed as mutliplied by the temperature to get
units of energy

Electronic entropy                ...      0.00000000 Eh      0.00 kcal/mol
Vibrational entropy               ...      0.00724568 Eh      4.55 kcal/mol
Rotational entropy                ...      0.01275373 Eh      8.00 kcal/mol
Translational entropy             ...      0.01862596 Eh     11.69 kcal/mol
-----------------------------------------------------------------------
Final entropy term                ...      0.03862537 Eh     24.24 kcal/mol


-------------------
GIBBS FREE ENTHALPY
-------------------

The Gibbs free enthalpy is G = H - T*S

Total enthalpy                    ...   -285.45002297 Eh 
Total entropy correction          ...     -0.03862537 Eh    -24.24 kcal/mol
-----------------------------------------------------------------------
Final Gibbs free enthalpy         ...   -285.48864834 Eh

For completeness - the Gibbs free enthalpy minus the electronic energy
G-E(el)                           ...      0.05994681 Eh     37.62 kcal/mol


Timings for individual modules:

Sum of individual times         ...       63.176 sec (=   1.053 min)
GTO integral calculation        ...        1.646 sec (=   0.027 min)   2.6 %
SCF iterations                  ...       12.748 sec (=   0.212 min)  20.2 %
SCF Gradient evaluation         ...        1.714 sec (=   0.029 min)   2.7 %
Geometry relaxation             ...        0.302 sec (=   0.005 min)   0.5 %
Analytical frequency calculation...       46.765 sec (=   0.779 min)  74.0 %
                             ****ORCA TERMINATED NORMALLY****
TOTAL RUN TIME: 0 days 0 hours 1 minutes 5 seconds 84 msec
