
                                 *****************
                                 * O   R   C   A *
                                 *****************

           --- An Ab Initio, DFT and Semiempirical electronic structure package ---

                  #######################################################
                  #                        -***-                        #
                  #          Department of theory and spectroscopy      #
                  #               Directorship: Frank Neese             #
                  #        Max Planck Institute fuer Kohlenforschung    #
                  #                Kaiser Wilhelm Platz 1               #
                  #                 D-45470 Muelheim/Ruhr               #
                  #                      Germany                        #
                  #                                                     #
                  #                  All rights reserved                #
                  #                        -***-                        #
                  #######################################################


                         Program Version 4.1.1  - RELEASE  -


 With contributions from (in alphabetic order):
   Daniel Aravena         : Magnetic Properties
   Michael Atanasov       : Ab Initio Ligand Field Theory
   Alexander A. Auer      : GIAO ZORA
   Ute Becker             : Parallelization
   Giovanni Bistoni       : ED, Open-shell LED
   Martin Brehm           : Molecular dynamics
   Dmytro Bykov           : SCF Hessian
   Vijay G. Chilkuri      : MRCI spin determinant printing
   Dipayan Datta          : RHF DLPNO-CCSD density
   Achintya Kumar Dutta   : EOM-CC, STEOM-CC
   Dmitry Ganyushin       : Spin-Orbit,Spin-Spin,Magnetic field MRCI
   Miquel Garcia          : C-PCM Hessian
   Yang Guo               : DLPNO-NEVPT2, CIM, IAO-localization
   Andreas Hansen         : Spin unrestricted coupled pair/coupled cluster methods
   Benjamin Helmich-Paris : CASSCF linear response (MC-RPA)
   Lee Huntington         : MR-EOM, pCC
   Robert Izsak           : Overlap fitted RIJCOSX, COSX-SCS-MP3, EOM
   Christian Kollmar      : KDIIS, OOCD, Brueckner-CCSD(T), CCSD density
   Simone Kossmann        : Meta GGA functionals, TD-DFT gradient, OOMP2, MP2 Hessian
   Martin Krupicka        : AUTO-CI
   Lucas Lang             : DCDCAS
   Dagmar Lenk            : GEPOL surface, SMD
   Dimitrios Liakos       : Extrapolation schemes; parallel MDCI
   Dimitrios Manganas     : ROCIS; embedding schemes
   Dimitrios Pantazis     : SARC Basis sets
   Taras Petrenko         : DFT Hessian,TD-DFT gradient, ASA, ECA, R-Raman, ABS, FL, XAS/XES, NRVS
   Peter Pinski           : DLPNO-MP2, DLPNO-MP2 Gradient
   Christoph Reimann      : Effective Core Potentials
   Marius Retegan         : Local ZFS, SOC
   Christoph Riplinger    : Optimizer, TS searches, QM/MM, DLPNO-CCSD(T), (RO)-DLPNO pert. Triples
   Tobias Risthaus        : Range-separated hybrids, TD-DFT gradient, RPA, STAB
   Michael Roemelt        : Restricted open shell CIS
   Masaaki Saitow         : Open-shell DLPNO
   Barbara Sandhoefer     : DKH picture change effects
   Avijit Sen             : IP-ROCIS
   Kantharuban Sivalingam : CASSCF convergence, NEVPT2, FIC-MRCI
   Bernardo de Souza      : ESD, SOC TD-DFT
   Georgi Stoychev        : AutoAux, RI-MP2 NMR
   Willem Van den Heuvel  : Paramagnetic NMR
   Boris Wezisla          : Elementary symmetry handling
   Frank Wennmohs         : Technical directorship


 We gratefully acknowledge several colleagues who have allowed us to
 interface, adapt or use parts of their codes:
   Stefan Grimme, W. Hujo, H. Kruse,             : VdW corrections, initial TS optimization,
                  C. Bannwarth                     DFT functionals, gCP, sTDA/sTD-DF
   Ed Valeev                                     : LibInt (2-el integral package), F12 methods
   Garnet Chan, S. Sharma, J. Yang, R. Olivares  : DMRG
   Ulf Ekstrom                                   : XCFun DFT Library
   Mihaly Kallay                                 : mrcc  (arbitrary order and MRCC methods)
   Andreas Klamt, Michael Diedenhofen            : otool_cosmo (COSMO solvation model)
   Jiri Pittner, Ondrej Demel                    : Mk-CCSD
   Frank Weinhold                                : gennbo (NPA and NBO analysis)
   Christopher J. Cramer and Donald G. Truhlar   : smd solvation model
   Lars Goerigk                                  : TD-DFT with DH, B97 family of functionals
   V. Asgeirsson, H. Jonsson                     : NEB implementation
   FAccTs GmbH                                   : IRC, NEB, NEB-TS, Multilevel


 Your calculation uses the libint2 library for the computation of 2-el integrals
 For citations please refer to: http://libint.valeyev.net

 This ORCA versions uses:
   CBLAS   interface :  Fast vector & matrix operations
   LAPACKE interface :  Fast linear algebra routines
   SCALAPACK package :  Parallel linear algebra routines


Your calculation utilizes the atom-pairwise dispersion correction
with the Becke-Johnson damping scheme (D3BJ)
Cite in your paper:
S.Grimme, S.Ehrlich, L.Goerigk, J Comput Chem, (2011), 32, 1456–1465 
S.Grimme, J.Antony, S.Ehrlich and H.Krieg, J.Chem.Phys., 132, (2010), 154104 
   

Your calculation utilizes the SMD solvation module
Please cite in your paper:
A.V. Marenich, C.J. Cramer, D.G. Truhlar J. Phys. Chem. B, 113, (2009), 6378 

----- Orbital basis set information -----
Your calculation utilizes the basis: def2-SVP
   F. Weigend and R. Ahlrichs, Phys. Chem. Chem. Phys. 7, 3297 (2005).

----- AuxJ basis set information -----
Your calculation utilizes the auxiliary basis: def2/J
   F. Weigend, Phys. Chem. Chem. Phys. 8, 1057 (2006).

================================================================================
                                        WARNINGS
                       Please study these warnings very carefully!
================================================================================


WARNING: Geometry Optimization
  ===> : Switching off AutoStart
         For restart on a previous wavefunction, please use MOREAD

INFO   : the flag for use of LIBINT has been found!

================================================================================
                                       INPUT FILE
================================================================================
NAME = ts_guess_orca_constrained_opt.inp
|  1> ! Opt PBE0 RIJCOSX D3BJ def2-SVP def2/J PAL8
|  2> %cpcm
|  3>  smd true
|  4>  SMDsolvent "water"
|  5>  end
|  6> %geom Constraints
|  7> { B 1 3 2.061172497129728 C }
|  8>     end
|  9> end
| 10> %geom MaxIter 100 end
| 11> %scf 
| 12> maxiter 250 
| 13> end
| 14> % maxcore 4000
| 15> *xyz -1 1
| 16> C  -0.30620000  1.24390000  0.12580000 
| 17> C   0.27640000 -0.01850000 -0.41260000 
| 18> O   0.26840000  0.06970000 -1.80980000 
| 19> C   1.63700000 -0.16220000  0.10750000 
| 20> N   2.71340000 -0.28510000  0.52760000 
| 21> C  -0.60730000 -1.17750000  0.06550000 
| 22> H  -0.72940000  1.06090000  1.15080000 
| 23> H   0.37620000  2.10510000  0.12640000 
| 24> H  -1.18290000  1.52490000 -0.49770000 
| 25> H  -0.08580000 -1.67240000  0.90650000 
| 26> H  -0.78430000 -1.88320000 -0.74850000 
| 27> H  -1.57550000 -0.80570000  0.45850000 
| 28> *
| 29> 
| 30>                          ****END OF INPUT****
================================================================================

                       *****************************
                       * Geometry Optimization Run *
                       *****************************

Geometry optimization settings:
Update method            Update   .... BFGS
Choice of coordinates    CoordSys .... Z-matrix Internals
Initial Hessian          InHess   .... Almoef's Model

Convergence Tolerances:
Energy Change            TolE     ....  5.0000e-06 Eh
Max. Gradient            TolMAXG  ....  3.0000e-04 Eh/bohr
RMS Gradient             TolRMSG  ....  1.0000e-04 Eh/bohr
Max. Displacement        TolMAXD  ....  4.0000e-03 bohr
RMS Displacement         TolRMSD  ....  2.0000e-03 bohr

------------------------------------------------------------------------------
                        ORCA OPTIMIZATION COORDINATE SETUP
------------------------------------------------------------------------------

The optimization will be done in new redundant internal coordinates
Making redundant internal coordinates   ...  (new redundants) done
Evaluating the initial hessian          ...  (Almloef) done
Evaluating the coordinates              ...  done
Calculating the B-matrix                .... done
Calculating the G-matrix                .... done
Diagonalizing the G-matrix              .... done
Imposing constraints:
 Iter   0:  RMS(Cart)=    0.0425162792 RMS(Int)=    0.9290544326
 Iter   1:  RMS(Cart)=    0.0425162792 RMS(Int)=    0.7289847250
 Iter   2:  RMS(Cart)=    0.0425162792 RMS(Int)=    0.5288785882
 Iter   3:  RMS(Cart)=    0.0425162792 RMS(Int)=    0.3287421545
 Iter   4:  RMS(Cart)=    0.0425162792 RMS(Int)=    0.1285802532
 Iter   5:  RMS(Cart)=    0.0273337697 RMS(Int)=    0.0001157095
 Iter   6:  RMS(Cart)=    0.0000245977 RMS(Int)=    0.0000001079
 Iter   7:  RMS(Cart)=    0.0000000229 RMS(Int)=    0.0000000001
CONVERGED
The first mode is                       ....   19
The number of degrees of freedom        ....   30
Storing new coordinates                 .... done

    -----------------------------------------------------------------
                    Redundant Internal Coordinates


    -----------------------------------------------------------------
         Definition                    Initial Value    Approx d2E/dq
    -----------------------------------------------------------------
      1. B(C   1,C   0)                  1.4911         0.431190   
      2. B(O   2,C   1)                  1.4004         0.539405   
      3. B(C   3,C   1)                  2.0612         0.476620 C 
      4. B(N   4,C   3)                  1.1624         1.293146   
      5. B(C   5,C   1)                  1.5340         0.368288   
      6. B(H   6,C   0)                  1.1243         0.317903   
      7. B(H   7,C   0)                  1.0989         0.348660   
      8. B(H   8,C   0)                  1.1122         0.332267   
      9. B(H   9,C   5)                  1.1067         0.339018   
     10. B(H  10,C   5)                  1.0919         0.357781   
     11. B(H  11,C   5)                  1.1094         0.335703   
     12. A(C   1,C   0,H   7)          114.8913         0.330314   
     13. A(C   1,C   0,H   6)          109.8019         0.325322   
     14. A(H   6,C   0,H   8)          104.8116         0.281685   
     15. A(H   7,C   0,H   8)          106.9815         0.285755   
     16. A(C   1,C   0,H   8)          108.6371         0.327698   
     17. A(H   6,C   0,H   7)          111.1583         0.283797   
     18. A(O   2,C   1,C   3)          111.8911         0.401445   
     19. A(C   0,C   1,C   3)          108.3279         0.388469   
     20. A(C   3,C   1,C   5)          110.3195         0.377969   
     21. A(C   0,C   1,O   2)          107.7522         0.394441   
     22. A(O   2,C   1,C   5)          110.8195         0.383732   
     23. A(C   0,C   1,C   5)          107.5662         0.371491   
     24. L(C   1,C   3,N   4,C   0, 1) 180.3975         0.469821   
     25. L(C   1,C   3,N   4,C   0, 2) 179.7955         0.469821   
     26. A(C   1,C   5,H   9)          107.6517         0.320380   
     27. A(C   1,C   5,H  10)          110.4385         0.323218   
     28. A(H   9,C   5,H  10)          110.7469         0.287811   
     29. A(C   1,C   5,H  11)          111.1176         0.319866   
     30. A(H   9,C   5,H  11)          106.9796         0.284966   
     31. A(H  10,C   5,H  11)          109.8345         0.287369   
     32. D(O   2,C   1,C   0,H   7)    -78.4079         0.014697   
     33. D(C   5,C   1,C   0,H   7)    162.0674         0.014697   
     34. D(C   3,C   1,C   0,H   7)     42.8208         0.014697   
     35. D(O   2,C   1,C   0,H   6)    155.4363         0.014697   
     36. D(C   5,C   1,C   0,H   8)    -78.1787         0.014697   
     37. D(C   3,C   1,C   0,H   8)    162.5747         0.014697   
     38. D(C   3,C   1,C   0,H   6)    -83.3350         0.014697   
     39. D(C   5,C   1,C   0,H   6)     35.9117         0.014697   
     40. D(O   2,C   1,C   0,H   8)     41.3460         0.014697   
     41. D(H  10,C   5,C   1,C   3)   -105.5616         0.010849   
     42. D(H   9,C   5,C   1,O   2)    139.9394         0.010849   
     43. D(H   9,C   5,C   1,C   3)     15.4562         0.010849   
     44. D(H  10,C   5,C   1,C   0)    136.4724         0.010849   
     45. D(H   9,C   5,C   1,C   0)   -102.5099         0.010849   
     46. D(H  10,C   5,C   1,O   2)     18.9217         0.010849   
     47. D(H  11,C   5,C   1,C   0)     14.3251         0.010849   
     48. D(H  11,C   5,C   1,O   2)   -103.2256         0.010849   
     49. D(H  11,C   5,C   1,C   3)    132.2911         0.010849   
    -----------------------------------------------------------------

Number of atoms                         .... 12
Number of degrees of freedom            .... 49

         *************************************************************
         *                GEOMETRY OPTIMIZATION CYCLE   1            *
         *************************************************************
---------------------------------
CARTESIAN COORDINATES (ANGSTROEM)
---------------------------------
  C     -0.395875    1.253176    0.101613
  C      0.173553   -0.007647   -0.454740
  O      0.130781    0.084382   -1.851499
  C      2.102215   -0.211161    0.243311
  N      3.189928   -0.333862    0.634482
  C     -0.698052   -1.168111    0.042166
  H     -0.793545    1.067293    1.136638
  H      0.286390    2.114494    0.087598
  H     -1.288134    1.535732   -0.499309
  H     -0.155544   -1.665225    0.868837
  H     -0.895177   -1.871611   -0.769365
  H     -1.656540   -0.797558    0.460270

----------------------------
CARTESIAN COORDINATES (A.U.)
----------------------------
  NO LB      ZA    FRAG     MASS         X           Y           Z
   0 C     6.0000    0    12.011   -0.748095    2.368159    0.192020
   1 C     6.0000    0    12.011    0.327967   -0.014450   -0.859334
   2 O     8.0000    0    15.999    0.247140    0.159458   -3.498827
   3 C     6.0000    0    12.011    3.972611   -0.399037    0.459791
   4 N     7.0000    0    14.007    6.028091   -0.630908    1.198997
   5 C     6.0000    0    12.011   -1.319126   -2.207411    0.079682
   6 H     1.0000    0     1.008   -1.499583    2.016891    2.147935
   7 H     1.0000    0     1.008    0.541198    3.995814    0.165536
   8 H     1.0000    0     1.008   -2.434220    2.902112   -0.943556
   9 H     1.0000    0     1.008   -0.293936   -3.146820    1.641863
  10 H     1.0000    0     1.008   -1.691640   -3.536833   -1.453890
  11 H     1.0000    0     1.008   -3.130407   -1.507166    0.869784

--------------------------------
INTERNAL COORDINATES (ANGSTROEM)
--------------------------------
 C      0   0   0     0.000000000000     0.00000000     0.00000000
 C      1   0   0     1.490956431288     0.00000000     0.00000000
 O      2   1   0     1.400003957137   107.74686023     0.00000000
 C      2   1   3     1.463689195150   108.54479151   120.85252938
 N      4   2   1     1.161991987924   179.40880876   107.51003855
 C      2   1   3     1.533879493311   107.58330735   240.47226457
 H      1   2   3     1.123927150664   109.79146177   155.43619928
 H      1   2   3     1.098788223453   114.90677518   281.59699142
 H      1   2   3     1.111897540244   108.63791505    41.34990256
 H      6   2   1     1.106421827333   107.65895818   257.48836853
 H      6   2   1     1.091758897376   110.45183576   136.47520784
 H      6   2   1     1.109096695514   111.10510551    14.32357340

---------------------------
INTERNAL COORDINATES (A.U.)
---------------------------
 C      0   0   0     0.000000000000     0.00000000     0.00000000
 C      1   0   0     2.817499332744     0.00000000     0.00000000
 O      2   1   0     2.645624065395   107.74686023     0.00000000
 C      2   1   3     2.765971724014   108.54479151   120.85252938
 N      4   2   1     2.195846626987   179.40880876   107.51003855
 C      2   1   3     2.898612164796   107.58330735   240.47226457
 H      1   2   3     2.123914509234   109.79146177   155.43619928
 H      1   2   3     2.076408821505   114.90677518   281.59699142
 H      1   2   3     2.101181840041   108.63791505    41.34990256
 H      6   2   1     2.090834242253   107.65895818   257.48836853
 H      6   2   1     2.063125320313   110.45183576   136.47520784
 H      6   2   1     2.095889010558   111.10510551    14.32357340

---------------------
BASIS SET INFORMATION
---------------------
There are 4 groups of distinct atoms

 Group   1 Type C   : 7s4p1d contracted to 3s2p1d pattern {511/31/1}
 Group   2 Type O   : 7s4p1d contracted to 3s2p1d pattern {511/31/1}
 Group   3 Type N   : 7s4p1d contracted to 3s2p1d pattern {511/31/1}
 Group   4 Type H   : 4s1p contracted to 2s1p pattern {31/1}

Atom   0C    basis set group =>   1
Atom   1C    basis set group =>   1
Atom   2O    basis set group =>   2
Atom   3C    basis set group =>   1
Atom   4N    basis set group =>   3
Atom   5C    basis set group =>   1
Atom   6H    basis set group =>   4
Atom   7H    basis set group =>   4
Atom   8H    basis set group =>   4
Atom   9H    basis set group =>   4
Atom  10H    basis set group =>   4
Atom  11H    basis set group =>   4
-------------------------------
AUXILIARY BASIS SET INFORMATION
-------------------------------
There are 4 groups of distinct atoms

 Group   1 Type C   : 12s5p4d2f1g contracted to 6s4p3d1f1g pattern {711111/2111/211/2/1}
 Group   2 Type O   : 12s5p4d2f1g contracted to 6s4p3d1f1g pattern {711111/2111/211/2/1}
 Group   3 Type N   : 12s5p4d2f1g contracted to 6s4p3d1f1g pattern {711111/2111/211/2/1}
 Group   4 Type H   : 5s2p1d contracted to 3s1p1d pattern {311/2/1}

Atom   0C    basis set group =>   1
Atom   1C    basis set group =>   1
Atom   2O    basis set group =>   2
Atom   3C    basis set group =>   1
Atom   4N    basis set group =>   3
Atom   5C    basis set group =>   1
Atom   6H    basis set group =>   4
Atom   7H    basis set group =>   4
Atom   8H    basis set group =>   4
Atom   9H    basis set group =>   4
Atom  10H    basis set group =>   4
Atom  11H    basis set group =>   4


           ************************************************************
           *        Program running with 8 parallel MPI-processes     *
           *              working on a common directory               *
           ************************************************************
------------------------------------------------------------------------------
                           ORCA GTO INTEGRAL CALCULATION
                           -- RI-GTO INTEGRALS CHOSEN --
------------------------------------------------------------------------------

                         BASIS SET STATISTICS AND STARTUP INFO

Gaussian basis set:
 # of primitive gaussian shells          ...  102
 # of primitive gaussian functions       ...  186
 # of contracted shells                  ...   54
 # of contracted basis functions         ...  114
 Highest angular momentum                ...    2
 Maximum contraction depth               ...    5
Auxiliary gaussian basis set:
 # of primitive gaussian shells          ...  192
 # of primitive gaussian functions       ...  516
 # of contracted shells                  ...  120
 # of contracted aux-basis functions     ...  360
 Highest angular momentum                ...    4
 Maximum contraction depth               ...    7
Ratio of auxiliary to basis functions    ...  3.16
Integral package used                  ... LIBINT
 One Electron integrals                  ... done
 Ordering auxiliary basis shells         ... done
 Integral threshhold             Thresh  ...  2.500e-11
 Primitive cut-off               TCut    ...  2.500e-12
 Pre-screening matrix                    ... done
 Shell pair data                         ... 
 Ordering of the shell pairs             ... done (   0.000 sec) 1440 of 1485 pairs
 Determination of significant pairs      ... done (   0.000 sec)
 Creation of shell pair data             ... done (   0.000 sec)
 Storage of shell pair data              ... done (   0.000 sec)
 Shell pair data done in (   0.001 sec)
 Computing two index integrals           ... done
 Cholesky decomposition of the V-matrix  ... done


Timings:
 Total evaluation time                   ...   0.190 sec (  0.003 min)
 One electron matrix time                ...   0.017 sec (  0.000 min) =  9.0%
 Schwartz matrix evaluation time         ...   0.151 sec (  0.003 min) = 79.2%
 Two index repulsion integral time       ...   0.003 sec (  0.000 min) =  1.7%
 Cholesky decomposition of V             ...   0.003 sec (  0.000 min) =  1.4%
 Three index repulsion integral time     ...   0.000 sec (  0.000 min) =  0.0%



           ************************************************************
           *        Program running with 8 parallel MPI-processes     *
           *              working on a common directory               *
           ************************************************************
-------------------------------------------------------------------------------
                                 ORCA SCF
-------------------------------------------------------------------------------

------------
SCF SETTINGS
------------
Hamiltonian:
 Density Functional     Method          .... DFT(GTOs)
 Exchange Functional    Exchange        .... PBE
   PBE kappa parameter   XKappa         ....  0.804000
   PBE mue parameter    XMuePBE         ....  0.219520
 Correlation Functional Correlation     .... PBE
   PBE beta parameter  CBetaPBE         ....  0.066725
 LDA part of GGA corr.  LDAOpt          .... PW91-LDA
 Gradients option       PostSCFGGA      .... off
 Hybrid DFT is turned on
   Fraction HF Exchange ScalHFX         ....  0.250000
   Scaling of DF-GGA-X  ScalDFX         ....  0.750000
   Scaling of DF-GGA-C  ScalDFC         ....  1.000000
   Scaling of DF-LDA-C  ScalLDAC        ....  1.000000
   Perturbative correction              ....  0.000000
   Density functional embedding theory  .... OFF
   NL short-range parameter             ....  6.900000
 RI-approximation to the Coulomb term is turned on
   Number of auxiliary basis functions  .... 360
   RIJ-COSX (HFX calculated with COS-X)).... on


General Settings:
 Integral files         IntName         .... ts_guess_orca_constrained_opt
 Hartree-Fock type      HFTyp           .... RHF
 Total Charge           Charge          ....   -1
 Multiplicity           Mult            ....    1
 Number of Electrons    NEL             ....   46
 Basis Dimension        Dim             ....  114
 Nuclear Repulsion      ENuc            ....    203.9529802318 Eh

Convergence Acceleration:
 DIIS                   CNVDIIS         .... on
   Start iteration      DIISMaxIt       ....    12
   Startup error        DIISStart       ....  0.200000
   # of expansion vecs  DIISMaxEq       ....     5
   Bias factor          DIISBfac        ....   1.050
   Max. coefficient     DIISMaxC        ....  10.000
 Newton-Raphson         CNVNR           .... off
 SOSCF                  CNVSOSCF        .... on
   Start iteration      SOSCFMaxIt      ....   150
   Startup grad/error   SOSCFStart      ....  0.003300
 Level Shifting         CNVShift        .... on
   Level shift para.    LevelShift      ....    0.2500
   Turn off err/grad.   ShiftErr        ....    0.0010
 Zerner damping         CNVZerner       .... off
 Static damping         CNVDamp         .... on
   Fraction old density DampFac         ....    0.7000
   Max. Damping (<1)    DampMax         ....    0.9800
   Min. Damping (>=0)   DampMin         ....    0.0000
   Turn off err/grad.   DampErr         ....    0.1000
 Fernandez-Rico         CNVRico         .... off

SCF Procedure:
 Maximum # iterations   MaxIter         ....   250
 SCF integral mode      SCFMode         .... Direct
   Integral package                     .... LIBINT
 Reset frequency        DirectResetFreq ....    20
 Integral Threshold     Thresh          ....  2.500e-11 Eh
 Primitive CutOff       TCut            ....  2.500e-12 Eh

Convergence Tolerance:
 Convergence Check Mode ConvCheckMode   .... Total+1el-Energy
 Convergence forced     ConvForced      .... 0
 Energy Change          TolE            ....  1.000e-08 Eh
 1-El. energy change                    ....  1.000e-05 Eh
 Orbital Gradient       TolG            ....  1.000e-05
 Orbital Rotation angle TolX            ....  1.000e-05
 DIIS Error             TolErr          ....  5.000e-07


Diagonalization of the overlap matrix:
Smallest eigenvalue                        ... 1.566e-03
Time for diagonalization                   ...    0.004 sec
Threshold for overlap eigenvalues          ... 1.000e-08
Number of eigenvalues below threshold      ... 0
Time for construction of square roots      ...    0.002 sec
Total time needed                          ...    0.006 sec

-------------------
DFT GRID GENERATION
-------------------

General Integration Accuracy     IntAcc      ...  4.340
Radial Grid Type                 RadialGrid  ... Gauss-Chebyshev
Angular Grid (max. acc.)         AngularGrid ... Lebedev-110
Angular grid pruning method      GridPruning ... 3 (G Style)
Weight generation scheme         WeightScheme... Becke
Basis function cutoff            BFCut       ...    1.0000e-11
Integration weight cutoff        WCut        ...    1.0000e-14
Grids for H and He will be reduced by one unit

# of grid points (after initial pruning)     ...  14806 (   0.0 sec)
# of grid points (after weights+screening)   ...  13986 (   0.0 sec)
nearest neighbour list constructed           ...    0.0 sec
Grid point re-assignment to atoms done       ...    0.0 sec
Grid point division into batches done        ...    0.0 sec
Reduced shell lists constructed in    0.0 sec

Total number of grid points                  ...    13986
Total number of batches                      ...      227
Average number of points per batch           ...       61
Average number of grid points per atom       ...     1166
Average number of shells per batch           ...    47.93 (88.77%)
Average number of basis functions per batch  ...   103.00 (90.35%)
Average number of large shells per batch     ...    43.73 (91.24%)
Average number of large basis fcns per batch ...    92.67 (89.97%)
Maximum spatial batch extension              ...   2.57,  2.51,  2.80 au
Average spatial batch extension              ...   0.20,  0.20,  0.21 au

Time for grid setup =    0.040 sec

------------------------------
INITIAL GUESS: MODEL POTENTIAL
------------------------------
Loading Hartree-Fock densities                     ... done
Calculating cut-offs                               ... done
Setting up the integral package                    ... done
Initializing the effective Hamiltonian             ... done
Starting the Coulomb interaction                   ... done (   0.0 sec)
Reading the grid                                   ... done
Mapping shells                                     ... done
Starting the XC term evaluation                    ... done (   0.0 sec)
  promolecular density results
     # of electrons  =     44.994634206
     EX              =    -36.683795682
     EC              =     -1.442895963
     EX+EC           =    -38.126691645
Transforming the Hamiltonian                       ... done (   0.0 sec)
Diagonalizing the Hamiltonian                      ... done (   0.0 sec)
Back transforming the eigenvectors                 ... done (   0.0 sec)
Now organizing SCF variables                       ... done
                      ------------------
                      INITIAL GUESS DONE (   0.2 sec)
                      ------------------
--------------------
COSX GRID GENERATION
--------------------

General Integration Accuracy     IntAcc      ...  3.340
Radial Grid Type                 RadialGrid  ... Gauss-Chebyshev
Angular Grid (max. acc.)         AngularGrid ... Lebedev-50
Angular grid pruning method      GridPruning ... 3 (G Style)
Weight generation scheme         WeightScheme... Becke
Basis function cutoff            BFCut       ...    1.0000e-11
Integration weight cutoff        WCut        ...    1.0000e-14
Grids for H and He will be reduced by one unit

# of grid points (after initial pruning)     ...   5386 (   0.0 sec)
# of grid points (after weights+screening)   ...   5098 (   0.0 sec)
nearest neighbour list constructed           ...    0.0 sec
Grid point re-assignment to atoms done       ...    0.0 sec
Grid point division into batches done        ...    0.0 sec
Reduced shell lists constructed in    0.0 sec

Total number of grid points                  ...     5098
Total number of batches                      ...       86
Average number of points per batch           ...       59
Average number of grid points per atom       ...      425
Average number of shells per batch           ...    46.25 (85.65%)
Average number of basis functions per batch  ...    99.42 (87.21%)
Average number of large shells per batch     ...    41.83 (90.45%)
Average number of large basis fcns per batch ...    89.00 (89.52%)
Maximum spatial batch extension              ...   2.79,  2.99,  2.71 au
Average spatial batch extension              ...   0.28,  0.29,  0.22 au

Overlap Fitting                  UseSFitting ... on
Constructing numerical overlap ... done (      0.0 sec)
Inverting numerical overlap    ... done (      0.0 sec)
Obtaining analytic overlap     ... done (      0.0 sec)
Final contraction and storage  ... done (      0.0 sec)


General Integration Accuracy     IntAcc      ...  3.670
Radial Grid Type                 RadialGrid  ... Gauss-Chebyshev
Angular Grid (max. acc.)         AngularGrid ... Lebedev-50
Angular grid pruning method      GridPruning ... 3 (G Style)
Weight generation scheme         WeightScheme... Becke
Basis function cutoff            BFCut       ...    1.0000e-11
Integration weight cutoff        WCut        ...    1.0000e-14
Grids for H and He will be reduced by one unit

# of grid points (after initial pruning)     ...   6876 (   0.0 sec)
# of grid points (after weights+screening)   ...   6494 (   0.0 sec)
nearest neighbour list constructed           ...    0.0 sec
Grid point re-assignment to atoms done       ...    0.0 sec
Grid point division into batches done        ...    0.0 sec
Reduced shell lists constructed in    0.0 sec

Total number of grid points                  ...     6494
Total number of batches                      ...      107
Average number of points per batch           ...       60
Average number of grid points per atom       ...      541
Average number of shells per batch           ...    47.13 (87.28%)
Average number of basis functions per batch  ...   101.00 (88.60%)
Average number of large shells per batch     ...    42.80 (90.81%)
Average number of large basis fcns per batch ...    90.67 (89.77%)
Maximum spatial batch extension              ...   4.61,  3.42,  2.83 au
Average spatial batch extension              ...   0.28,  0.28,  0.23 au

Overlap Fitting                  UseSFitting ... on
Constructing numerical overlap ... done (      0.0 sec)
Inverting numerical overlap    ... done (      0.0 sec)
Obtaining analytic overlap     ... done (      0.0 sec)
Final contraction and storage  ... done (      0.0 sec)


General Integration Accuracy     IntAcc      ...  4.010
Radial Grid Type                 RadialGrid  ... Gauss-Chebyshev
Angular Grid (max. acc.)         AngularGrid ... Lebedev-110
Angular grid pruning method      GridPruning ... 3 (G Style)
Weight generation scheme         WeightScheme... Becke
Basis function cutoff            BFCut       ...    1.0000e-11
Integration weight cutoff        WCut        ...    1.0000e-14
Grids for H and He will be reduced by one unit

# of grid points (after initial pruning)     ...  12770 (   0.0 sec)
# of grid points (after weights+screening)   ...  12076 (   0.0 sec)
nearest neighbour list constructed           ...    0.0 sec
Grid point re-assignment to atoms done       ...    0.0 sec
Grid point division into batches done        ...    0.0 sec
Reduced shell lists constructed in    0.0 sec

Total number of grid points                  ...    12076
Total number of batches                      ...      195
Average number of points per batch           ...       61
Average number of grid points per atom       ...     1006
Average number of shells per batch           ...    47.77 (88.46%)
Average number of basis functions per batch  ...   102.62 (90.01%)
Average number of large shells per batch     ...    43.38 (90.82%)
Average number of large basis fcns per batch ...    91.69 (89.36%)
Maximum spatial batch extension              ...   2.86,  2.89,  2.15 au
Average spatial batch extension              ...   0.21,  0.22,  0.20 au

Overlap Fitting                  UseSFitting ... on
Constructing numerical overlap ... done (      0.0 sec)
Inverting numerical overlap    ... done (      0.0 sec)
Obtaining analytic overlap     ... done (      0.0 sec)
Final contraction and storage  ... done (      0.0 sec)

Time for X-Grid setup             =    0.135 sec

--------------------
CPCM SOLVATION MODEL
--------------------
CPCM parameters:
  Epsilon                                         ...      78.3550
  Refrac                                          ...       1.0000
  Rsolv                                           ...       1.3000
  Surface type                                    ...    GEPOL SES
  Epsilon function type                           ...         CPCM
Solvent:                                     ... WATER
SMD-CDS solvent descriptors:
  Soln                                       ...    1.3328
  Soln25                                     ...    1.3323
  Sola                                       ...    0.0000
  Solb                                       ...    0.0000
  Solg                                       ...    0.0000
  Solc                                       ...    0.0000
  Solh                                       ...    0.0000
Radii:
 Radius for C  used is    3.4960 Bohr (=   1.8500 Ang.)
 Radius for O  used is    2.8724 Bohr (=   1.5200 Ang.)
 Radius for N  used is    3.5716 Bohr (=   1.8900 Ang.)
 Radius for H  used is    2.2677 Bohr (=   1.2000 Ang.)
Calculating surface                               ...        done! (  0.0s)
GEPOL surface points                              ...          506
GEPOL Volume                                      ...     716.8380
GEPOL Surface-area                                ...     462.3735
Calculating surface distance matrix               ...        done! (  0.0s)
Performing Cholesky decomposition & store         ...        done! (  0.0s)
Overall time for CPCM initialization              ...                 0.0s
--------------
SCF ITERATIONS
--------------
ITER       Energy         Delta-E        Max-DP      RMS-DP      [F,P]     Damp
               ***  Starting incremental Fock matrix formation  ***
  0   -285.2152159595   0.000000000000 0.11275065  0.00415782  0.3242767 0.7000
  1   -285.3545577039  -0.139341744393 0.06561102  0.00271390  0.1317561 0.7000
                               ***Turning on DIIS***
  2   -285.4028759907  -0.048318286852 0.09558137  0.00411300  0.0403013 0.0000
  3   -285.4875344223  -0.084658431524 0.05387685  0.00198789  0.0663775 0.0000
  4   -285.5021071069  -0.014572684631 0.02149104  0.00062777  0.0240244 0.0000
  5   -285.5039910256  -0.001883918668 0.00613430  0.00021295  0.0045573 0.0000
                      *** Initiating the SOSCF procedure ***
                           *** Shutting down DIIS ***
                      *** Re-Reading the Fockian *** 
                      *** Removing any level shift *** 
ITER      Energy       Delta-E        Grad      Rot      Max-DP    RMS-DP
  6   -285.50407227  -0.0000812473  0.000346  0.000346  0.001560  0.000075
               *** Restarting incremental Fock matrix formation ***
  7   -285.50407872  -0.0000064478  0.000229  0.000689  0.001385  0.000054
  8   -285.50407972  -0.0000009954  0.000204  0.000301  0.000417  0.000022
  9   -285.50407997  -0.0000002515  0.000143  0.000191  0.000396  0.000017
 10   -285.50408014  -0.0000001760  0.000029  0.000049  0.000119  0.000005
 11   -285.50408016  -0.0000000123  0.000032  0.000046  0.000082  0.000003
 12   -285.50408017  -0.0000000174  0.000014  0.000030  0.000047  0.000002
 13   -285.50408018  -0.0000000054  0.000008  0.000015  0.000028  0.000001
                  ***Gradient check signals convergence***
              ***Rediagonalizing the Fockian in SOSCF/NRSCF***

               *****************************************************
               *                     SUCCESS                       *
               *           SCF CONVERGED AFTER  14 CYCLES          *
               *****************************************************

Setting up the final grid:

General Integration Accuracy     IntAcc      ...  4.670
Radial Grid Type                 RadialGrid  ... Gauss-Chebyshev
Angular Grid (max. acc.)         AngularGrid ... Lebedev-302
Angular grid pruning method      GridPruning ... 3 (G Style)
Weight generation scheme         WeightScheme... Becke
Basis function cutoff            BFCut       ...    1.0000e-11
Integration weight cutoff        WCut        ...    1.0000e-14
Grids for H and He will be reduced by one unit

# of grid points (after initial pruning)     ...  57636 (   0.0 sec)
# of grid points (after weights+screening)   ...  53826 (   0.0 sec)
nearest neighbour list constructed           ...    0.0 sec
Grid point re-assignment to atoms done       ...    0.0 sec
Grid point division into batches done        ...    0.2 sec
Reduced shell lists constructed in    0.2 sec

Total number of grid points                  ...    53826
Total number of batches                      ...      848
Average number of points per batch           ...       63
Average number of grid points per atom       ...     4486
Average number of shells per batch           ...    45.94 (85.08%)
Average number of basis functions per batch  ...    98.43 (86.34%)
Average number of large shells per batch     ...    40.79 (88.77%)
Average number of large basis fcns per batch ...    85.55 (86.92%)
Maximum spatial batch extension              ...  14.63, 18.60, 11.67 au
Average spatial batch extension              ...   0.19,  0.21,  0.18 au

Final grid set up in    0.2 sec
Final integration                            ... done (   0.1 sec)
Change in XC energy                          ...    -0.000044224
Integrated number of electrons               ...    46.000001657
Previous integrated no of electrons          ...    45.997472147
Old exchange energy                            =     -9.420770154 Eh
New exchange energy                            =     -9.420447270 Eh
Exchange energy change after final integration =      0.000322883 Eh
Total energy after final integration           =   -285.503801521 Eh
Final COS-X integration done in                =     0.219 sec

SMD CDS free energy correction energy :                 6.08266     Kcal/mol
Total Energy after SMD CDS correction =              -285.494108182 Eh

----------------
TOTAL SCF ENERGY
----------------

Total Energy       :         -285.49410818 Eh           -7768.68964 eV

Components:
Nuclear Repulsion  :          203.95298023 Eh            5549.84274 eV
Electronic Energy  :         -489.44708841 Eh          -13318.53238 eV
One Electron Energy:         -800.73271002 Eh          -21789.04477 eV
Two Electron Energy:          311.28562161 Eh            8470.51240 eV
CPCM Dielectric    :           -0.11583397 Eh              -3.15200 eV
SMD CDS (Gcds)     :            0.00969334 Eh               0.26377 eV

Virial components:
Potential Energy   :         -568.09448134 Eh          -15458.63674 eV
Kinetic Energy     :          282.60037316 Eh            7689.94710 eV
Virial Ratio       :            2.01023967


DFT components:
N(Alpha)           :       23.000000828749 electrons
N(Beta)            :       23.000000828749 electrons
N(Total)           :       46.000001657498 electrons
E(X)               :      -28.212972611585 Eh       
E(C)               :       -1.504135158473 Eh       
E(XC)              :      -29.717107770058 Eh       
DFET-embed. en.    :        0.000000000000 Eh       
CPCM Solvation Model Properties:
Surface-charge          :            0.96934459
Charge-correction       :           -0.00501590 Eh              -0.13649 eV
Free-energy (cav+disp)  :            0.00350079 Eh               0.09526 eV
Corrected G(solv)       :         -285.49562330 Eh           -7768.73086 eV

---------------
SCF CONVERGENCE
---------------

  Last Energy change         ...   -1.9272e-09  Tolerance :   1.0000e-08
  Last MAX-Density change    ...    3.1086e-15  Tolerance :   1.0000e-07
  Last RMS-Density change    ...    4.7211e-17  Tolerance :   5.0000e-09
  Last Orbital Gradient      ...    1.6669e-06  Tolerance :   1.0000e-05
  Last Orbital Rotation      ...    3.4704e-06  Tolerance :   1.0000e-05

             **** THE GBW FILE WAS UPDATED (ts_guess_orca_constrained_opt.gbw) ****
             **** DENSITY FILE WAS UPDATED (ts_guess_orca_constrained_opt.scfp.tmp) ****
             **** ENERGY FILE WAS UPDATED (ts_guess_orca_constrained_opt.en.tmp) ****
----------------
ORBITAL ENERGIES
----------------

  NO   OCC          E(Eh)            E(eV) 
   0   2.0000     -19.118111      -520.2303 
   1   2.0000     -14.354082      -390.5944 
   2   2.0000     -10.313223      -280.6371 
   3   2.0000     -10.228160      -278.3224 
   4   2.0000     -10.214224      -277.9432 
   5   2.0000     -10.214050      -277.9384 
   6   2.0000      -0.925301       -25.1787 
   7   2.0000      -0.881110       -23.9762 
   8   2.0000      -0.753020       -20.4907 
   9   2.0000      -0.685791       -18.6613 
  10   2.0000      -0.534640       -14.5483 
  11   2.0000      -0.462766       -12.5925 
  12   2.0000      -0.432686       -11.7740 
  13   2.0000      -0.419347       -11.4110 
  14   2.0000      -0.390572       -10.6280 
  15   2.0000      -0.385742       -10.4966 
  16   2.0000      -0.352915        -9.6033 
  17   2.0000      -0.344901        -9.3852 
  18   2.0000      -0.326392        -8.8816 
  19   2.0000      -0.325198        -8.8491 
  20   2.0000      -0.322679        -8.7805 
  21   2.0000      -0.230961        -6.2848 
  22   2.0000      -0.208563        -5.6753 
  23   0.0000       0.009578         0.2606 
  24   0.0000       0.070315         1.9134 
  25   0.0000       0.071325         1.9409 
  26   0.0000       0.095526         2.5994 
  27   0.0000       0.148030         4.0281 
  28   0.0000       0.149701         4.0736 
  29   0.0000       0.161160         4.3854 
  30   0.0000       0.171320         4.6619 
  31   0.0000       0.179399         4.8817 
  32   0.0000       0.232709         6.3323 
  33   0.0000       0.273281         7.4364 
  34   0.0000       0.293969         7.9993 
  35   0.0000       0.311304         8.4710 
  36   0.0000       0.464364        12.6360 
  37   0.0000       0.473036        12.8720 
  38   0.0000       0.501361        13.6427 
  39   0.0000       0.539141        14.6708 
  40   0.0000       0.545017        14.8307 
  41   0.0000       0.581237        15.8163 
  42   0.0000       0.602086        16.3836 
  43   0.0000       0.611916        16.6511 
  44   0.0000       0.635571        17.2948 
  45   0.0000       0.669548        18.2193 
  46   0.0000       0.682111        18.5612 
  47   0.0000       0.683885        18.6095 
  48   0.0000       0.687791        18.7157 
  49   0.0000       0.707419        19.2498 
  50   0.0000       0.718366        19.5477 
  51   0.0000       0.726325        19.7643 
  52   0.0000       0.738037        20.0830 
  53   0.0000       0.755057        20.5461 
  54   0.0000       0.778856        21.1938 
  55   0.0000       0.847098        23.0507 
  56   0.0000       0.882037        24.0014 
  57   0.0000       0.893397        24.3106 
  58   0.0000       0.912543        24.8315 
  59   0.0000       0.939513        25.5654 
  60   0.0000       0.956914        26.0390 
  61   0.0000       1.102019        29.9874 
  62   0.0000       1.109111        30.1804 
  63   0.0000       1.138579        30.9823 
  64   0.0000       1.207767        32.8650 
  65   0.0000       1.287528        35.0354 
  66   0.0000       1.299680        35.3661 
  67   0.0000       1.428931        38.8832 
  68   0.0000       1.488985        40.5173 
  69   0.0000       1.547740        42.1162 
  70   0.0000       1.560503        42.4634 
  71   0.0000       1.582326        43.0573 
  72   0.0000       1.605037        43.6753 
  73   0.0000       1.664772        45.3007 
  74   0.0000       1.675753        45.5995 
  75   0.0000       1.681148        45.7464 
  76   0.0000       1.714490        46.6536 
  77   0.0000       1.744723        47.4763 
  78   0.0000       1.762253        47.9533 
  79   0.0000       1.786183        48.6045 
  80   0.0000       1.823925        49.6315 
  81   0.0000       1.847077        50.2615 
  82   0.0000       1.860540        50.6279 
  83   0.0000       1.879023        51.1308 
  84   0.0000       1.928773        52.4846 
  85   0.0000       2.003879        54.5283 
  86   0.0000       2.048221        55.7349 
  87   0.0000       2.082539        56.6688 
  88   0.0000       2.130220        57.9662 
  89   0.0000       2.164828        58.9080 
  90   0.0000       2.213668        60.2370 
  91   0.0000       2.303000        62.6678 
  92   0.0000       2.304995        62.7221 
  93   0.0000       2.393044        65.1180 
  94   0.0000       2.454689        66.7955 
  95   0.0000       2.489904        67.7537 
  96   0.0000       2.507484        68.2321 
  97   0.0000       2.534925        68.9788 
  98   0.0000       2.591362        70.5145 
  99   0.0000       2.643606        71.9362 
 100   0.0000       2.749910        74.8289 
 101   0.0000       2.768707        75.3404 
 102   0.0000       2.775469        75.5243 
 103   0.0000       2.847354        77.4805 
 104   0.0000       2.895264        78.7841 
 105   0.0000       2.905677        79.0675 
 106   0.0000       2.909122        79.1612 
 107   0.0000       2.941488        80.0420 
 108   0.0000       2.960295        80.5537 
 109   0.0000       3.021510        82.2195 
 110   0.0000       3.104136        84.4678 
 111   0.0000       3.154002        85.8248 
 112   0.0000       3.341716        90.9327 
 113   0.0000       3.506124        95.4065 

                    ********************************
                    * MULLIKEN POPULATION ANALYSIS *
                    ********************************

-----------------------
MULLIKEN ATOMIC CHARGES
-----------------------
   0 C :   -0.051754
   1 C :    0.017542
   2 O :   -0.690309
   3 C :   -0.283838
   4 N :   -0.250026
   5 C :   -0.022503
   6 H :    0.037982
   7 H :    0.047791
   8 H :    0.061458
   9 H :    0.036240
  10 H :    0.035366
  11 H :    0.062053
Sum of atomic charges:   -1.0000000

--------------------------------
MULLIKEN REDUCED ORBITAL CHARGES
--------------------------------
  0 C s       :     3.028969  s :     3.028969
      pz      :     1.012986  p :     2.995813
      px      :     1.005302
      py      :     0.977524
      dz2     :     0.006672  d :     0.026973
      dxz     :     0.005374
      dyz     :     0.003192
      dx2y2   :     0.004400
      dxy     :     0.007334
  1 C s       :     3.251404  s :     3.251404
      pz      :     0.829306  p :     2.652041
      px      :     0.816623
      py      :     1.006111
      dz2     :     0.020465  d :     0.079013
      dxz     :     0.017497
      dyz     :     0.022197
      dx2y2   :     0.009229
      dxy     :     0.009626
  2 O s       :     3.849238  s :     3.849238
      pz      :     1.314351  p :     4.832025
      px      :     1.637434
      py      :     1.880240
      dz2     :     0.004917  d :     0.009046
      dxz     :     0.002163
      dyz     :     0.001855
      dx2y2   :     0.000041
      dxy     :     0.000069
  3 C s       :     3.472587  s :     3.472587
      pz      :     0.872862  p :     2.768397
      px      :     1.045028
      py      :     0.850507
      dz2     :     0.005800  d :     0.042854
      dxz     :     0.013028
      dyz     :     0.001837
      dx2y2   :     0.008822
      dxy     :     0.013367
  4 N s       :     3.623797  s :     3.623797
      pz      :     1.153480  p :     3.598576
      px      :     1.310302
      py      :     1.134793
      dz2     :     0.003739  d :     0.027653
      dxz     :     0.008206
      dyz     :     0.001084
      dx2y2   :     0.006966
      dxy     :     0.007658
  5 C s       :     3.012636  s :     3.012636
      pz      :     1.015404  p :     2.984921
      px      :     0.972199
      py      :     0.997319
      dz2     :     0.003204  d :     0.024946
      dxz     :     0.005022
      dyz     :     0.006959
      dx2y2   :     0.003973
      dxy     :     0.005789
  6 H s       :     0.938976  s :     0.938976
      pz      :     0.012918  p :     0.023042
      px      :     0.005857
      py      :     0.004267
  7 H s       :     0.928324  s :     0.928324
      pz      :     0.005047  p :     0.023885
      px      :     0.008603
      py      :     0.010235
  8 H s       :     0.914841  s :     0.914841
      pz      :     0.008086  p :     0.023701
      px      :     0.010879
      py      :     0.004737
  9 H s       :     0.939437  s :     0.939437
      pz      :     0.010300  p :     0.024323
      px      :     0.007439
      py      :     0.006584
 10 H s       :     0.940948  s :     0.940948
      pz      :     0.010821  p :     0.023686
      px      :     0.004699
      py      :     0.008165
 11 H s       :     0.913502  s :     0.913502
      pz      :     0.006845  p :     0.024446
      px      :     0.012224
      py      :     0.005377


                     *******************************
                     * LOEWDIN POPULATION ANALYSIS *
                     *******************************

----------------------
LOEWDIN ATOMIC CHARGES
----------------------
   0 C :   -0.095248
   1 C :    0.072463
   2 O :   -0.604777
   3 C :   -0.229557
   4 N :   -0.255468
   5 C :   -0.087565
   6 H :    0.028922
   7 H :    0.028121
   8 H :    0.043464
   9 H :    0.031251
  10 H :    0.024664
  11 H :    0.043728

-------------------------------
LOEWDIN REDUCED ORBITAL CHARGES
-------------------------------
  0 C s       :     2.864877  s :     2.864877
      pz      :     1.061350  p :     3.158283
      px      :     1.060446
      py      :     1.036487
      dz2     :     0.017427  d :     0.072087
      dxz     :     0.014366
      dyz     :     0.008737
      dx2y2   :     0.011380
      dxy     :     0.020177
  1 C s       :     2.935606  s :     2.935606
      pz      :     0.935938  p :     2.823705
      px      :     0.828710
      py      :     1.059056
      dz2     :     0.046314  d :     0.168226
      dxz     :     0.033766
      dyz     :     0.046920
      dx2y2   :     0.018585
      dxy     :     0.022640
  2 O s       :     3.662268  s :     3.662268
      pz      :     1.397069  p :     4.926575
      px      :     1.658192
      py      :     1.871315
      dz2     :     0.010066  d :     0.015933
      dxz     :     0.002742
      dyz     :     0.002990
      dx2y2   :     0.000053
      dxy     :     0.000082
  3 C s       :     3.217912  s :     3.217912
      pz      :     0.892834  p :     2.923094
      px      :     1.179978
      py      :     0.850283
      dz2     :     0.011392  d :     0.088551
      dxz     :     0.027248
      dyz     :     0.003165
      dx2y2   :     0.023899
      dxy     :     0.022846
  4 N s       :     3.446936  s :     3.446936
      pz      :     1.164537  p :     3.762391
      px      :     1.472986
      py      :     1.124868
      dz2     :     0.005991  d :     0.046141
      dxz     :     0.013733
      dyz     :     0.001487
      dx2y2   :     0.014365
      dxy     :     0.010565
  5 C s       :     2.864617  s :     2.864617
      pz      :     1.069606  p :     3.155861
      px      :     1.046011
      py      :     1.040245
      dz2     :     0.007848  d :     0.067086
      dxz     :     0.013501
      dyz     :     0.019353
      dx2y2   :     0.009785
      dxy     :     0.016599
  6 H s       :     0.907498  s :     0.907498
      pz      :     0.036328  p :     0.063580
      px      :     0.015816
      py      :     0.011436
  7 H s       :     0.904712  s :     0.904712
      pz      :     0.012858  p :     0.067166
      px      :     0.023343
      py      :     0.030965
  8 H s       :     0.890982  s :     0.890982
      pz      :     0.021285  p :     0.065554
      px      :     0.030368
      py      :     0.013901
  9 H s       :     0.901009  s :     0.901009
      pz      :     0.029003  p :     0.067740
      px      :     0.019397
      py      :     0.019340
 10 H s       :     0.906850  s :     0.906850
      pz      :     0.029666  p :     0.068485
      px      :     0.013193
      py      :     0.025627
 11 H s       :     0.890438  s :     0.890438
      pz      :     0.017241  p :     0.065834
      px      :     0.034012
      py      :     0.014580


                      *****************************
                      * MAYER POPULATION ANALYSIS *
                      *****************************

  NA   - Mulliken gross atomic population
  ZA   - Total nuclear charge
  QA   - Mulliken gross atomic charge
  VA   - Mayer's total valence
  BVA  - Mayer's bonded valence
  FA   - Mayer's free valence

  ATOM       NA         ZA         QA         VA         BVA        FA
  0 C      6.0518     6.0000    -0.0518     3.8560     3.8560     0.0000
  1 C      5.9825     6.0000     0.0175     4.2285     4.2285     0.0000
  2 O      8.6903     8.0000    -0.6903     1.7250     1.7250    -0.0000
  3 C      6.2838     6.0000    -0.2838     3.6663     3.6663     0.0000
  4 N      7.2500     7.0000    -0.2500     3.1009     3.1009     0.0000
  5 C      6.0225     6.0000    -0.0225     3.8213     3.8213     0.0000
  6 H      0.9620     1.0000     0.0380     0.9872     0.9872     0.0000
  7 H      0.9522     1.0000     0.0478     0.9994     0.9994     0.0000
  8 H      0.9385     1.0000     0.0615     1.0093     1.0093     0.0000
  9 H      0.9638     1.0000     0.0362     1.0013     1.0013     0.0000
 10 H      0.9646     1.0000     0.0354     1.0248     1.0248    -0.0000
 11 H      0.9379     1.0000     0.0621     0.9963     0.9963    -0.0000

  Mayer bond orders larger than 0.1
B(  0-C ,  1-C ) :   1.0415 B(  0-C ,  6-H ) :   0.9558 B(  0-C ,  7-H ) :   0.9583 
B(  0-C ,  8-H ) :   0.9509 B(  1-C ,  2-O ) :   1.5371 B(  1-C ,  3-C ) :   0.5198 
B(  1-C ,  5-C ) :   1.0260 B(  3-C ,  4-N ) :   3.0474 B(  5-C ,  9-H ) :   0.9446 
B(  5-C , 10-H ) :   0.9584 B(  5-C , 11-H ) :   0.9616 

-------
TIMINGS
-------

Total SCF time: 0 days 0 hours 0 min 8 sec 

Total time                  ....       8.965 sec
Sum of individual times     ....       8.790 sec  ( 98.0%)

Fock matrix formation       ....       8.231 sec  ( 91.8%)
  Split-RI-J                ....       1.830 sec  ( 22.2% of F)
  Chain of spheres X        ....       2.555 sec  ( 31.0% of F)
  COS-X 1 center corr.      ....       0.000 sec  (  0.0% of F)
  XC integration            ....       0.394 sec  (  4.8% of F)
    Basis function eval.    ....       0.088 sec  ( 22.3% of XC)
    Density eval.           ....       0.035 sec  (  8.9% of XC)
    XC-Functional eval.     ....       0.021 sec  (  5.3% of XC)
    XC-Potential eval.      ....       0.057 sec  ( 14.4% of XC)
Diagonalization             ....       0.009 sec  (  0.1%)
Density matrix formation    ....       0.004 sec  (  0.0%)
Population analysis         ....       0.003 sec  (  0.0%)
Initial guess               ....       0.123 sec  (  1.4%)
Orbital Transformation      ....       0.000 sec  (  0.0%)
Orbital Orthonormalization  ....       0.000 sec  (  0.0%)
DIIS solution               ....       0.004 sec  (  0.0%)
SOSCF solution              ....       0.006 sec  (  0.1%)
Grid generation             ....       0.409 sec  (  4.6%)


-------------------------------------------------------------------------------
                          DFT DISPERSION CORRECTION                            
                                                                               
                              DFTD3 V3.1  Rev 1                                
                          USING Becke-Johnson damping                          
-------------------------------------------------------------------------------
The PBE0 functional is recognized
Active option DFTDOPT                   ...         4   

molecular C6(AA) [au] = 1464.157956 


            DFT-D V3
 parameters
 s6 scaling factor         :     1.0000 
 a1 scaling factor         :     0.4145 
 s8 scaling factor         :     1.2177 
 a2 scaling factor         :     4.8593 
 ad hoc parameters k1-k3   :    16.0000     1.3333    -4.0000 

 Edisp/kcal,au: -5.005365137503  -0.007976556228 
 E6   /kcal   :  -3.192253361 
 E8   /kcal   :  -1.813111777 
 % E8         :  36.223366868 

-------------------------   ----------------
Dispersion correction           -0.007976556
-------------------------   ----------------


-------------------------   --------------------
FINAL SINGLE POINT ENERGY      -285.502084738626
-------------------------   --------------------



           ************************************************************
           *        Program running with 8 parallel MPI-processes     *
           *              working on a common directory               *
           ************************************************************
------------------------------------------------------------------------------
                         ORCA SCF GRADIENT CALCULATION
------------------------------------------------------------------------------

Gradient of the Kohn-Sham DFT energy:
Kohn-Sham wavefunction type      ... RKS
Hartree-Fock exchange scaling    ...    0.250
Number of operators              ...    1
Number of atoms                  ...   12
Basis set dimensions             ...  114
Integral neglect threshold       ... 2.5e-11
Integral primitive cutoff        ... 2.5e-12

Nuclear repulsion gradient       ... done
One Electron Gradient            ... done
Pre-screening matrix             ... done
RI-J gradient                    ... done
COSX-gradient                    ... done
Exchange-correlation gradient    ... done
Dispersion correction            ... done

------------------
CARTESIAN GRADIENT
------------------

   1   C   :    0.000641276   -0.018882285   -0.034592070
   2   C   :    0.041569012   -0.004369498    0.116268459
   3   O   :   -0.028521132    0.013003070   -0.081356211
   4   C   :    0.050617262   -0.003793584    0.008804103
   5   N   :   -0.014144716    0.001390686   -0.002244871
   6   C   :   -0.028863103    0.008073560   -0.019493009
   7   H   :   -0.010123644   -0.010325433    0.007858260
   8   H   :   -0.001518354   -0.000597488   -0.001024821
   9   H   :   -0.008724637    0.006764171   -0.001225021
  10   H   :    0.007155491    0.005462308    0.000378904
  11   H   :   -0.002638047    0.003165985    0.002238947
  12   H   :   -0.006711014    0.000254263    0.005242157

Difference to translation invariance:
           :   -0.0012616059    0.0001457560    0.0008548282

Norm of the cartesian gradient     ...    0.1706849667
RMS gradient                       ...    0.0284474945
MAX gradient                       ...    0.1162684591

-------
TIMINGS
-------

Total SCF gradient time            ...        1.182 sec

One electron gradient       ....       0.011 sec  (  1.0%)
Prescreening matrices       ....       0.016 sec  (  1.3%)
RI-J Coulomb gradient       ....       0.167 sec  ( 14.1%)
COSX gradient               ....       0.303 sec  ( 25.6%)
XC gradient                 ....       0.173 sec  ( 14.6%)
CPCM gradient               ....       0.102 sec  (  8.7%)
   A-Matrix (El+Nuc)        ....       0.005 sec  (  0.4%)
   Potential                ....       0.098 sec  (  8.3%)
------------------------------------------------------------------------------
                         ORCA GEOMETRY RELAXATION STEP
------------------------------------------------------------------------------

Reading the OPT-File                    .... done
Getting information on internals        .... done
Copying old internal coords+grads       .... done
Making the new internal coordinates     .... (new redundants).... done
Validating the new internal coordinates .... (new redundants).... done
Calculating the B-matrix                .... done
Calculating the G,G- and P matrices     .... done
Transforming gradient to internals      .... done
Projecting the internal gradient        .... done
Number of atoms                         ....  12
Number of internal coordinates          ....  49
Current Energy                          ....  -285.502084739 Eh
Current gradient norm                   ....     0.170684967 Eh/bohr
Maximum allowed component of the step   ....  0.300
Current trust radius                    ....  0.300
Evaluating the initial hessian          ....  (Almloef) done
Projecting the Hessian                  .... done
Forming the augmented Hessian           .... done
Diagonalizing the augmented Hessian     .... done
Last element of RFO vector              ....  0.917103136
Lowest eigenvalues of augmented Hessian:
 -0.038077604  0.010958434  0.014964785  0.087553114  0.097732470
Length of the computed step             ....  0.434683956
Warning: the length of the step is outside the trust region - taking restricted step instead
The input lambda is                     ....    -0.038078
   iter:   1  x=   -0.075064  g=    2.675293 f(x)=     0.098950
   iter:   2  x=   -0.101594  g=    1.218390 f(x)=     0.032323
   iter:   3  x=   -0.109241  g=    0.799838 f(x)=     0.006116
   iter:   4  x=   -0.109688  g=    0.718031 f(x)=     0.000321
   iter:   5  x=   -0.109689  g=    0.713629 f(x)=     0.000001
   iter:   6  x=   -0.109689  g=    0.713615 f(x)=     0.000000
   iter:   7  x=   -0.109689  g=    0.713615 f(x)=    -0.000000
The output lambda is                    ....    -0.109689 (7 iterations)
The final length of the internal step   ....  0.300000000
Converting the step to cartesian space:
 Initial RMS(Int)=    0.0428571429
Transforming coordinates:
 Iter   0:  RMS(Cart)=    0.0827200019 RMS(Int)=    0.0439901159
 Iter   1:  RMS(Cart)=    0.0040171715 RMS(Int)=    0.0023978778
 Iter   2:  RMS(Cart)=    0.0002288276 RMS(Int)=    0.0001615634
 Iter   3:  RMS(Cart)=    0.0000255289 RMS(Int)=    0.0000241145
 Iter   4:  RMS(Cart)=    0.0000105077 RMS(Int)=    0.0000109200
 Iter   5:  RMS(Cart)=    0.0000055430 RMS(Int)=    0.0000056676
 Iter   6:  RMS(Cart)=    0.0000028856 RMS(Int)=    0.0000029466
 Iter   7:  RMS(Cart)=    0.0000014997 RMS(Int)=    0.0000015319
 Iter   8:  RMS(Cart)=    0.0000007796 RMS(Int)=    0.0000007964
 Iter   9:  RMS(Cart)=    0.0000004053 RMS(Int)=    0.0000004141
 Iter  10:  RMS(Cart)=    0.0000002107 RMS(Int)=    0.0000002153
 Iter  11:  RMS(Cart)=    0.0000001096 RMS(Int)=    0.0000001119
 Iter  12:  RMS(Cart)=    0.0000000570 RMS(Int)=    0.0000000582
Imposing constraints:
 Iter   0:  RMS(Cart)=    0.0000000003 RMS(Int)=    0.0000000000
CONVERGED
done
Storing new coordinates                 .... done

                                .--------------------.
          ----------------------|Geometry convergence|-------------------------
          Item                value                   Tolerance       Converged
          ---------------------------------------------------------------------
          RMS gradient        0.0158141620            0.0001000000      NO
          MAX gradient        0.0829225638            0.0003000000      NO
          RMS step            0.0428571429            0.0020000000      NO
          MAX step            0.1279218103            0.0040000000      NO
          ........................................................
          Max(Bonds)      0.0677      Max(Angles)    5.33
          Max(Dihed)        4.52      Max(Improp)    0.00
          ---------------------------------------------------------------------

The optimization has not yet converged - more geometry cycles are needed


    ---------------------------------------------------------------------------
                         Redundant Internal Coordinates
                            (Angstroem and degrees)

        Definition                    Value    dE/dq     Step     New-Value
    ----------------------------------------------------------------------------
     1. B(C   1,C   0)                1.4911 -0.023208  0.0227    1.5138   
     2. B(O   2,C   1)                1.4004  0.082923 -0.0677    1.3327   
     3. B(C   3,C   1)                2.0612  0.036794  0.0000    2.0612 C 
     4. B(N   4,C   3)                1.1624 -0.014035  0.0053    1.1677   
     5. B(C   5,C   1)                1.5340  0.000804 -0.0009    1.5332   
     6. B(H   6,C   0)                1.1243  0.012329 -0.0153    1.1090   
     7. B(H   7,C   0)                1.0989 -0.001397  0.0016    1.1005   
     8. B(H   8,C   0)                1.1122  0.009459 -0.0113    1.1009   
     9. B(H   9,C   5)                1.1067  0.001438 -0.0017    1.1050   
    10. B(H  10,C   5)                1.0919 -0.003225  0.0037    1.0956   
    11. B(H  11,C   5)                1.1094  0.007696 -0.0092    1.1003   
    12. A(C   1,C   0,H   7)          114.89  0.002262   -0.43    114.46   
    13. A(C   1,C   0,H   6)          109.80 -0.010876    1.52    111.32   
    14. A(H   6,C   0,H   8)          104.81 -0.002463    0.70    105.51   
    15. A(H   7,C   0,H   8)          106.98 -0.004018    0.38    107.36   
    16. A(C   1,C   0,H   8)          108.64  0.008442   -1.07    107.57   
    17. A(H   6,C   0,H   7)          111.16  0.006621   -1.05    110.11   
    18. A(O   2,C   1,C   3)          111.89  0.001325   -1.64    110.25   
    19. A(C   0,C   1,C   3)          108.33  0.018707   -3.67    104.66   
    20. A(C   3,C   1,C   5)          110.32  0.017577   -3.93    106.39   
    21. A(C   0,C   1,O   2)          107.75 -0.006330    2.93    110.69   
    22. A(O   2,C   1,C   5)          110.82  0.001979    1.33    112.15   
    23. A(C   0,C   1,C   5)          107.57 -0.035044    5.33    112.90   
    24. L(C   1,C   3,N   4,C   0, 1) 180.40 -0.003338    0.44    180.84   
    25. L(C   1,C   3,N   4,C   0, 2) 179.80 -0.001222    0.16    179.96   
    26. A(C   1,C   5,H   9)          107.65 -0.014744    2.10    109.75   
    27. A(C   1,C   5,H  10)          110.44  0.003325   -0.52    109.92   
    28. A(H   9,C   5,H  10)          110.75  0.005424   -0.70    110.04   
    29. A(C   1,C   5,H  11)          111.12  0.005555   -0.77    110.35   
    30. A(H   9,C   5,H  11)          106.98  0.002827   -0.20    106.78   
    31. A(H  10,C   5,H  11)          109.83 -0.002506    0.13    109.96   
    32. D(O   2,C   1,C   0,H   7)    -78.41 -0.011373    3.51    -74.89   
    33. D(C   5,C   1,C   0,H   7)    162.07  0.008912   -2.57    159.49   
    34. D(C   3,C   1,C   0,H   7)     42.82 -0.002703    1.14     43.96   
    35. D(O   2,C   1,C   0,H   6)    155.44 -0.012997    4.00    159.43   
    36. D(C   5,C   1,C   0,H   8)    -78.18  0.011380   -3.15    -81.32   
    37. D(C   3,C   1,C   0,H   8)    162.57 -0.000235    0.57    163.14   
    38. D(C   3,C   1,C   0,H   6)    -83.33 -0.004327    1.62    -81.71   
    39. D(C   5,C   1,C   0,H   6)     35.91  0.007288   -2.09     33.82   
    40. D(O   2,C   1,C   0,H   8)     41.35 -0.008905    2.94     44.29   
    41. D(H  10,C   5,C   1,C   3)   -105.56 -0.001114    0.34   -105.23   
    42. D(H   9,C   5,C   1,O   2)    139.94  0.013948   -3.50    136.44   
    43. D(H   9,C   5,C   1,C   3)     15.46 -0.001738    0.48     15.94   
    44. D(H  10,C   5,C   1,C   0)    136.47 -0.012776    3.80    140.27   
    45. D(H   9,C   5,C   1,C   0)   -102.51 -0.013400    3.94    -98.57   
    46. D(H  10,C   5,C   1,O   2)     18.92  0.014573   -3.64     15.28   
    47. D(H  11,C   5,C   1,C   0)     14.33 -0.015680    4.52     18.84   
    48. D(H  11,C   5,C   1,O   2)   -103.23  0.011669   -2.92   -106.15   
    49. D(H  11,C   5,C   1,C   3)    132.29 -0.004018    1.06    133.35   
    ----------------------------------------------------------------------------

         *************************************************************
         *                GEOMETRY OPTIMIZATION CYCLE   2            *
         *************************************************************
---------------------------------
CARTESIAN COORDINATES (ANGSTROEM)
---------------------------------
  C     -0.388925    1.305060    0.107866
  C      0.106553   -0.000783   -0.476076
  O      0.116632    0.059294   -1.807431
  C      2.026786   -0.205144    0.244600
  N      3.115964   -0.335978    0.644746
  C     -0.680450   -1.214389    0.032201
  H     -0.749633    1.170700    1.147915
  H      0.338836    2.129359    0.063249
  H     -1.271781    1.614703   -0.472366
  H     -0.124843   -1.702576    0.853201
  H     -0.841335   -1.924398   -0.786546
  H     -1.647803   -0.895949    0.448641

----------------------------
CARTESIAN COORDINATES (A.U.)
----------------------------
  NO LB      ZA    FRAG     MASS         X           Y           Z
   0 C     6.0000    0    12.011   -0.734962    2.466205    0.203837
   1 C     6.0000    0    12.011    0.201355   -0.001480   -0.899653
   2 O     8.0000    0    15.999    0.220403    0.112050   -3.415549
   3 C     6.0000    0    12.011    3.830070   -0.387666    0.462227
   4 N     7.0000    0    14.007    5.888318   -0.634906    1.218394
   5 C     6.0000    0    12.011   -1.285864   -2.294863    0.060851
   6 H     1.0000    0     1.008   -1.416601    2.212303    2.169245
   7 H     1.0000    0     1.008    0.640307    4.023906    0.119524
   8 H     1.0000    0     1.008   -2.403318    3.051346   -0.892643
   9 H     1.0000    0     1.008   -0.235918   -3.217402    1.612316
  10 H     1.0000    0     1.008   -1.589893   -3.636584   -1.486357
  11 H     1.0000    0     1.008   -3.113897   -1.693098    0.847808

--------------------------------
INTERNAL COORDINATES (ANGSTROEM)
--------------------------------
 C      0   0   0     0.000000000000     0.00000000     0.00000000
 C      1   0   0     1.513840080376     0.00000000     0.00000000
 O      2   1   0     1.332747702563   110.42148748     0.00000000
 C      2   1   3     2.061172494831   104.80759972   118.75637331
 N      4   2   1     1.167708802753   179.15775025   178.57442702
 C      2   1   3     1.533152902260   112.76327797   234.17927628
 H      1   2   3     1.108992773925   111.32780579   159.53411935
 H      1   2   3     1.100498413269   114.45816279   285.20472932
 H      1   2   3     1.100900693867   107.56513104    44.39392113
 H      6   2   1     1.105018725279   109.75040468   261.49764102
 H      6   2   1     1.095601551239   109.91428124   140.33847983
 H      6   2   1     1.100272133750   110.34616979    18.90540810

---------------------------
INTERNAL COORDINATES (A.U.)
---------------------------
 C      0   0   0     0.000000000000     0.00000000     0.00000000
 C      1   0   0     2.860743162463     0.00000000     0.00000000
 O      2   1   0     2.518528163456   110.42148748     0.00000000
 C      2   1   3     3.895051530001   104.80759972   118.75637331
 N      4   2   1     2.206649841372   179.15775025   178.57442702
 C      2   1   3     2.897239106697   112.76327797   234.17927628
 H      1   2   3     2.095692627215   111.32780579   159.53411935
 H      1   2   3     2.079640611893   114.45816279   285.20472932
 H      1   2   3     2.080400812052   107.56513104    44.39392113
 H      6   2   1     2.088182763632   109.75040468   261.49764102
 H      6   2   1     2.070386883742   109.91428124   140.33847983
 H      6   2   1     2.079213005572   110.34616979    18.90540810



           ************************************************************
           *        Program running with 8 parallel MPI-processes     *
           *              working on a common directory               *
           ************************************************************
 One Electron integrals                  ... done
 Pre-screening matrix                    ... done


           ************************************************************
           *        Program running with 8 parallel MPI-processes     *
           *              working on a common directory               *
           ************************************************************

Diagonalization of the overlap matrix:
Smallest eigenvalue                        ... 1.630e-03
Time for diagonalization                   ...    0.004 sec
Threshold for overlap eigenvalues          ... 1.000e-08
Number of eigenvalues below threshold      ... 0
Time for construction of square roots      ...    0.001 sec
Total time needed                          ...    0.005 sec

-------------------
DFT GRID GENERATION
-------------------

General Integration Accuracy     IntAcc      ...  4.340
Radial Grid Type                 RadialGrid  ... Gauss-Chebyshev
Angular Grid (max. acc.)         AngularGrid ... Lebedev-110
Angular grid pruning method      GridPruning ... 3 (G Style)
Weight generation scheme         WeightScheme... Becke
Basis function cutoff            BFCut       ...    1.0000e-11
Integration weight cutoff        WCut        ...    1.0000e-14
Grids for H and He will be reduced by one unit

# of grid points (after initial pruning)     ...  14806 (   0.0 sec)
# of grid points (after weights+screening)   ...  13990 (   0.0 sec)
nearest neighbour list constructed           ...    0.0 sec
Grid point re-assignment to atoms done       ...    0.0 sec
Grid point division into batches done        ...    0.0 sec
Reduced shell lists constructed in    0.0 sec

Total number of grid points                  ...    13990
Total number of batches                      ...      228
Average number of points per batch           ...       61
Average number of grid points per atom       ...     1166
Average number of shells per batch           ...    47.83 (88.58%)
Average number of basis functions per batch  ...   102.50 (89.91%)
Average number of large shells per batch     ...    43.10 (90.10%)
Average number of large basis fcns per batch ...    90.90 (88.68%)
Maximum spatial batch extension              ...   2.43,  3.09,  2.94 au
Average spatial batch extension              ...   0.19,  0.19,  0.19 au

Time for grid setup =    0.028 sec

--------------------
COSX GRID GENERATION
--------------------

General Integration Accuracy     IntAcc      ...  3.340
Radial Grid Type                 RadialGrid  ... Gauss-Chebyshev
Angular Grid (max. acc.)         AngularGrid ... Lebedev-50
Angular grid pruning method      GridPruning ... 3 (G Style)
Weight generation scheme         WeightScheme... Becke
Basis function cutoff            BFCut       ...    1.0000e-11
Integration weight cutoff        WCut        ...    1.0000e-14
Grids for H and He will be reduced by one unit

# of grid points (after initial pruning)     ...   5386 (   0.0 sec)
# of grid points (after weights+screening)   ...   5096 (   0.0 sec)
nearest neighbour list constructed           ...    0.0 sec
Grid point re-assignment to atoms done       ...    0.0 sec
Grid point division into batches done        ...    0.0 sec
Reduced shell lists constructed in    0.0 sec

Total number of grid points                  ...     5096
Total number of batches                      ...       86
Average number of points per batch           ...       59
Average number of grid points per atom       ...      425
Average number of shells per batch           ...    45.83 (84.88%)
Average number of basis functions per batch  ...    98.00 (85.96%)
Average number of large shells per batch     ...    41.17 (89.82%)
Average number of large basis fcns per batch ...    86.83 (88.61%)
Maximum spatial batch extension              ...   2.64,  3.71,  2.77 au
Average spatial batch extension              ...   0.26,  0.29,  0.23 au

Overlap Fitting                  UseSFitting ... on
Constructing numerical overlap ... done (      0.0 sec)
Inverting numerical overlap    ... done (      0.0 sec)
Obtaining analytic overlap     ... done (      0.0 sec)
Final contraction and storage  ... done (      0.0 sec)


General Integration Accuracy     IntAcc      ...  3.670
Radial Grid Type                 RadialGrid  ... Gauss-Chebyshev
Angular Grid (max. acc.)         AngularGrid ... Lebedev-50
Angular grid pruning method      GridPruning ... 3 (G Style)
Weight generation scheme         WeightScheme... Becke
Basis function cutoff            BFCut       ...    1.0000e-11
Integration weight cutoff        WCut        ...    1.0000e-14
Grids for H and He will be reduced by one unit

# of grid points (after initial pruning)     ...   6876 (   0.0 sec)
# of grid points (after weights+screening)   ...   6491 (   0.0 sec)
nearest neighbour list constructed           ...    0.0 sec
Grid point re-assignment to atoms done       ...    0.0 sec
Grid point division into batches done        ...    0.0 sec
Reduced shell lists constructed in    0.0 sec

Total number of grid points                  ...     6491
Total number of batches                      ...      107
Average number of points per batch           ...       60
Average number of grid points per atom       ...      541
Average number of shells per batch           ...    46.93 (86.91%)
Average number of basis functions per batch  ...   100.67 (88.30%)
Average number of large shells per batch     ...    42.53 (90.62%)
Average number of large basis fcns per batch ...    89.73 (89.14%)
Maximum spatial batch extension              ...   3.11,  4.13,  3.15 au
Average spatial batch extension              ...   0.27,  0.30,  0.22 au

Overlap Fitting                  UseSFitting ... on
Constructing numerical overlap ... done (      0.0 sec)
Inverting numerical overlap    ... done (      0.0 sec)
Obtaining analytic overlap     ... done (      0.0 sec)
Final contraction and storage  ... done (      0.0 sec)


General Integration Accuracy     IntAcc      ...  4.010
Radial Grid Type                 RadialGrid  ... Gauss-Chebyshev
Angular Grid (max. acc.)         AngularGrid ... Lebedev-110
Angular grid pruning method      GridPruning ... 3 (G Style)
Weight generation scheme         WeightScheme... Becke
Basis function cutoff            BFCut       ...    1.0000e-11
Integration weight cutoff        WCut        ...    1.0000e-14
Grids for H and He will be reduced by one unit

# of grid points (after initial pruning)     ...  12770 (   0.0 sec)
# of grid points (after weights+screening)   ...  12082 (   0.0 sec)
nearest neighbour list constructed           ...    0.0 sec
Grid point re-assignment to atoms done       ...    0.0 sec
Grid point division into batches done        ...    0.0 sec
Reduced shell lists constructed in    0.0 sec

Total number of grid points                  ...    12082
Total number of batches                      ...      195
Average number of points per batch           ...       61
Average number of grid points per atom       ...     1007
[...]
E(C)               :       -1.509276757836 Eh       
E(XC)              :      -29.778385993057 Eh       
DFET-embed. en.    :        0.000000000000 Eh       
CPCM Solvation Model Properties:
Surface-charge          :            0.96923566
Charge-correction       :           -0.00500479 Eh              -0.13619 eV
Free-energy (cav+disp)  :            0.00348403 Eh               0.09481 eV
Corrected G(solv)       :         -285.54197063 Eh           -7769.99204 eV

---------------
SCF CONVERGENCE
---------------

  Last Energy change         ...    1.0185e-09  Tolerance :   1.0000e-08
  Last MAX-Density change    ...    8.8818e-15  Tolerance :   1.0000e-07
  Last RMS-Density change    ...    9.6865e-17  Tolerance :   5.0000e-09
  Last Orbital Gradient      ...    5.3779e-07  Tolerance :   1.0000e-05
  Last Orbital Rotation      ...    8.1671e-07  Tolerance :   1.0000e-05

             **** THE GBW FILE WAS UPDATED (ts_guess_orca_constrained_opt.gbw) ****
             **** DENSITY FILE WAS UPDATED (ts_guess_orca_constrained_opt.scfp.tmp) ****
             **** ENERGY FILE WAS UPDATED (ts_guess_orca_constrained_opt.en.tmp) ****
----------------
ORBITAL ENERGIES
----------------

  NO   OCC          E(Eh)            E(eV) 
   0   2.0000     -19.139313      -520.8072 
   1   2.0000     -14.334081      -390.0502 
   2   2.0000     -10.307210      -280.4734 
   3   2.0000     -10.210546      -277.8431 
   4   2.0000     -10.210192      -277.8334 
   5   2.0000     -10.197945      -277.5002 
   6   2.0000      -0.999081       -27.1864 
   7   2.0000      -0.857679       -23.3386 
   8   2.0000      -0.751669       -20.4539 
   9   2.0000      -0.693614       -18.8742 
  10   2.0000      -0.524979       -14.2854 
  11   2.0000      -0.468673       -12.7532 
  12   2.0000      -0.440146       -11.9770 
  13   2.0000      -0.435155       -11.8412 
  14   2.0000      -0.388090       -10.5605 
  15   2.0000      -0.377363       -10.2686 
  16   2.0000      -0.371134       -10.0991 
  17   2.0000      -0.358308        -9.7501 
  18   2.0000      -0.336191        -9.1482 
  19   2.0000      -0.305251        -8.3063 
  20   2.0000      -0.301407        -8.2017 
  21   2.0000      -0.243883        -6.6364 
  22   2.0000      -0.229099        -6.2341 
  23   0.0000       0.037621         1.0237 
  24   0.0000       0.084767         2.3066 
  25   0.0000       0.093026         2.5314 
  26   0.0000       0.098408         2.6778 
  27   0.0000       0.146098         3.9755 
  28   0.0000       0.150464         4.0943 
  29   0.0000       0.166146         4.5211 
  30   0.0000       0.177861         4.8398 
  31   0.0000       0.193503         5.2655 
  32   0.0000       0.227392         6.1877 
  33   0.0000       0.292395         7.9565 
  34   0.0000       0.308904         8.4057 
  35   0.0000       0.340608         9.2684 
  36   0.0000       0.432121        11.7586 
  37   0.0000       0.485020        13.1981 
  38   0.0000       0.504006        13.7147 
  39   0.0000       0.526693        14.3320 
  40   0.0000       0.574907        15.6440 
  41   0.0000       0.601376        16.3643 
  42   0.0000       0.625694        17.0260 
  43   0.0000       0.631616        17.1872 
  44   0.0000       0.649981        17.6869 
  45   0.0000       0.664874        18.0921 
  46   0.0000       0.678846        18.4724 
  47   0.0000       0.682022        18.5588 
  48   0.0000       0.690232        18.7822 
  49   0.0000       0.704673        19.1751 
  50   0.0000       0.721284        19.6271 
  51   0.0000       0.736866        20.0511 
  52   0.0000       0.737672        20.0731 
  53   0.0000       0.755372        20.5547 
  54   0.0000       0.779295        21.2057 
  55   0.0000       0.843856        22.9625 
  56   0.0000       0.898120        24.4391 
  57   0.0000       0.919901        25.0318 
  58   0.0000       0.940745        25.5990 
  59   0.0000       0.976686        26.5770 
  60   0.0000       1.027404        27.9571 
  61   0.0000       1.104648        30.0590 
  62   0.0000       1.149962        31.2921 
  63   0.0000       1.160002        31.5653 
  64   0.0000       1.195395        32.5284 
  65   0.0000       1.218083        33.1457 
  66   0.0000       1.367728        37.2178 
  67   0.0000       1.380674        37.5701 
  68   0.0000       1.435556        39.0635 
  69   0.0000       1.552186        42.2371 
  70   0.0000       1.556758        42.3615 
  71   0.0000       1.580904        43.0186 
  72   0.0000       1.604260        43.6541 
  73   0.0000       1.661228        45.2043 
  74   0.0000       1.704075        46.3702 
  75   0.0000       1.714313        46.6488 
  76   0.0000       1.717384        46.7324 
  77   0.0000       1.755192        47.7612 
  78   0.0000       1.799224        48.9594 
  79   0.0000       1.808491        49.2115 
  80   0.0000       1.830649        49.8145 
  81   0.0000       1.832266        49.8585 
  82   0.0000       1.917418        52.1756 
  83   0.0000       1.920204        52.2514 
  84   0.0000       1.949461        53.0475 
  85   0.0000       1.966430        53.5093 
  86   0.0000       2.052132        55.8413 
  87   0.0000       2.105050        57.2813 
  88   0.0000       2.151554        58.5468 
  89   0.0000       2.205404        60.0121 
  90   0.0000       2.241539        60.9954 
  91   0.0000       2.321642        63.1751 
  92   0.0000       2.323188        63.2172 
  93   0.0000       2.384884        64.8960 
  94   0.0000       2.419114        65.8275 
  95   0.0000       2.467022        67.1311 
  96   0.0000       2.543873        69.2223 
  97   0.0000       2.559989        69.6608 
  98   0.0000       2.590662        70.4955 
  99   0.0000       2.678566        72.8875 
 100   0.0000       2.725556        74.1662 
 101   0.0000       2.733931        74.3940 
 102   0.0000       2.806689        76.3739 
 103   0.0000       2.828924        76.9789 
 104   0.0000       2.904270        79.0292 
 105   0.0000       2.931006        79.7567 
 106   0.0000       2.960004        80.5458 
 107   0.0000       2.969434        80.8024 
 108   0.0000       2.994968        81.4972 
 109   0.0000       2.995698        81.5171 
 110   0.0000       3.223989        87.7292 
 111   0.0000       3.349607        91.1474 
 112   0.0000       3.350534        91.1727 
 113   0.0000       3.644707        99.1775 

                    ********************************
                    * MULLIKEN POPULATION ANALYSIS *
                    ********************************

-----------------------
MULLIKEN ATOMIC CHARGES
-----------------------
   0 C :   -0.019379
   1 C :   -0.029473
   2 O :   -0.511698
   3 C :   -0.368119
   4 N :   -0.311339
   5 C :   -0.026126
   6 H :    0.043377
   7 H :    0.039515
   8 H :    0.048431
   9 H :    0.043142
  10 H :    0.038992
  11 H :    0.052676
Sum of atomic charges:   -1.0000000

--------------------------------
MULLIKEN REDUCED ORBITAL CHARGES
--------------------------------
  0 C s       :     3.009353  s :     3.009353
      pz      :     0.994333  p :     2.984922
      px      :     1.016407
      py      :     0.974182
      dz2     :     0.007588  d :     0.025103
      dxz     :     0.001986
      dyz     :     0.004590
      dx2y2   :     0.005916
      dxy     :     0.005022
  1 C s       :     3.233913  s :     3.233913
      pz      :     0.889310  p :     2.693509
      px      :     0.781857
      py      :     1.022342
      dz2     :     0.024900  d :     0.102050
      dxz     :     0.024627
      dyz     :     0.034406
      dx2y2   :     0.009302
      dxy     :     0.008815
  2 O s       :     3.769746  s :     3.769746
      pz      :     1.347125  p :     4.727744
      px      :     1.553827
      py      :     1.826793
      dz2     :     0.006809  d :     0.014208
      dxz     :     0.004026
      dyz     :     0.003129
      dx2y2   :     0.000144
      dxy     :     0.000100
  3 C s       :     3.549971  s :     3.549971
      pz      :     0.847894  p :     2.774168
      px      :     1.084635
      py      :     0.841639
      dz2     :     0.003834  d :     0.043980
      dxz     :     0.014558
      dyz     :     0.000751
      dx2y2   :     0.010302
      dxy     :     0.014536
  4 N s       :     3.639587  s :     3.639587
      pz      :     1.160150  p :     3.645872
      px      :     1.329653
      py      :     1.156069
      dz2     :     0.002628  d :     0.025880
      dxz     :     0.007798
      dyz     :     0.000391
      dx2y2   :     0.007240
      dxy     :     0.007822
  5 C s       :     3.012812  s :     3.012812
      pz      :     0.999230  p :     2.988198
      px      :     1.006216
      py      :     0.982753
      dz2     :     0.007299  d :     0.025116
      dxz     :     0.002282
      dyz     :     0.004440
      dx2y2   :     0.007151
      dxy     :     0.003945
  6 H s       :     0.932928  s :     0.932928
      pz      :     0.014539  p :     0.023695
      px      :     0.005072
      py      :     0.004085
  7 H s       :     0.936805  s :     0.936805
      pz      :     0.005803  p :     0.023681
      px      :     0.008430
      py      :     0.009448
  8 H s       :     0.927106  s :     0.927106
      pz      :     0.005451  p :     0.024463
      px      :     0.013783
      py      :     0.005229
  9 H s       :     0.933175  s :     0.933175
      pz      :     0.014727  p :     0.023683
      px      :     0.004819
      py      :     0.004137
 10 H s       :     0.937357  s :     0.937357
      pz      :     0.006618  p :     0.023651
      px      :     0.006404
      py      :     0.010628
 11 H s       :     0.922899  s :     0.922899
      pz      :     0.005611  p :     0.024424
      px      :     0.014183
      py      :     0.004630


                     *******************************
                     * LOEWDIN POPULATION ANALYSIS *
                     *******************************

----------------------
LOEWDIN ATOMIC CHARGES
----------------------
   0 C :   -0.099157
   1 C :    0.038409
   2 O :   -0.429230
   3 C :   -0.289709
   4 N :   -0.310689
   5 C :   -0.099912
   6 H :    0.030862
   7 H :    0.029447
   8 H :    0.034530
   9 H :    0.030748
  10 H :    0.029628
  11 H :    0.035073

-------------------------------
LOEWDIN REDUCED ORBITAL CHARGES
-------------------------------
  0 C s       :     2.863301  s :     2.863301
      pz      :     1.058800  p :     3.167734
      px      :     1.068196
      py      :     1.040738
      dz2     :     0.020385  d :     0.068122
      dxz     :     0.005072
      dyz     :     0.013118
      dx2y2   :     0.016152
      dxy     :     0.013395
  1 C s       :     2.899716  s :     2.899716
      pz      :     0.989400  p :     2.835293
      px      :     0.804586
      py      :     1.041307
      dz2     :     0.057630  d :     0.226582
      dxz     :     0.049427
      dyz     :     0.081068
      dx2y2   :     0.019083
      dxy     :     0.019373
  2 O s       :     3.563396  s :     3.563396
      pz      :     1.461721  p :     4.840541
      px      :     1.562537
      py      :     1.816283
      dz2     :     0.014191  d :     0.025294
      dxz     :     0.005212
      dyz     :     0.005544
      dx2y2   :     0.000185
      dxy     :     0.000161
  3 C s       :     3.272764  s :     3.272764
      pz      :     0.848930  p :     2.925988
      px      :     1.234942
      py      :     0.842116
      dz2     :     0.010013  d :     0.090957
      dxz     :     0.026248
      dyz     :     0.001333
      dx2y2   :     0.027647
      dxy     :     0.025716
  4 N s       :     3.455690  s :     3.455690
      pz      :     1.151208  p :     3.811791
      px      :     1.510354
      py      :     1.150230
      dz2     :     0.005425  d :     0.043208
      dxz     :     0.010896
      dyz     :     0.000538
      dx2y2   :     0.015214
      dxy     :     0.011134
  5 C s       :     2.863594  s :     2.863594
      pz      :     1.062215  p :     3.168235
      px      :     1.064130
      py      :     1.041891
      dz2     :     0.019796  d :     0.068083
      dxz     :     0.005972
      dyz     :     0.012150
      dx2y2   :     0.018640
      dxy     :     0.011525
  6 H s       :     0.901633  s :     0.901633
      pz      :     0.041817  p :     0.067506
      px      :     0.012987
      py      :     0.012701
  7 H s       :     0.903564  s :     0.903564
      pz      :     0.015419  p :     0.066988
      px      :     0.022075
      py      :     0.029494
  8 H s       :     0.898427  s :     0.898427
      pz      :     0.013767  p :     0.067043
      px      :     0.038046
      py      :     0.015230
  9 H s       :     0.901782  s :     0.901782
      pz      :     0.041737  p :     0.067470
      px      :     0.012888
      py      :     0.012845
 10 H s       :     0.903412  s :     0.903412
      pz      :     0.017576  p :     0.066960
      px      :     0.016892
      py      :     0.032492
 11 H s       :     0.897806  s :     0.897806
      pz      :     0.014091  p :     0.067121
      px      :     0.039784
      py      :     0.013245


                      *****************************
                      * MAYER POPULATION ANALYSIS *
                      *****************************

  NA   - Mulliken gross atomic population
  ZA   - Total nuclear charge
  QA   - Mulliken gross atomic charge
  VA   - Mayer's total valence
  BVA  - Mayer's bonded valence
  FA   - Mayer's free valence

  ATOM       NA         ZA         QA         VA         BVA        FA
  0 C      6.0194     6.0000    -0.0194     3.7940     3.7940     0.0000
  1 C      6.0295     6.0000    -0.0295     4.3327     4.3327     0.0000
  2 O      8.5117     8.0000    -0.5117     1.9463     1.9463    -0.0000
  3 C      6.3681     6.0000    -0.3681     3.5000     3.5000     0.0000
  4 N      7.3113     7.0000    -0.3113     3.0659     3.0659     0.0000
  5 C      6.0261     6.0000    -0.0261     3.7967     3.7967     0.0000
  6 H      0.9566     1.0000     0.0434     0.9984     0.9984    -0.0000
  7 H      0.9605     1.0000     0.0395     1.0077     1.0077     0.0000
  8 H      0.9516     1.0000     0.0484     0.9961     0.9961    -0.0000
  9 H      0.9569     1.0000     0.0431     0.9983     0.9983    -0.0000
 10 H      0.9610     1.0000     0.0390     1.0084     1.0084    -0.0000
 11 H      0.9473     1.0000     0.0527     0.9957     0.9957     0.0000

  Mayer bond orders larger than 0.1
B(  0-C ,  1-C ) :   1.0012 B(  0-C ,  6-H ) :   0.9554 B(  0-C ,  7-H ) :   0.9602 
B(  0-C ,  8-H ) :   0.9496 B(  1-C ,  2-O ) :   1.7938 B(  1-C ,  3-C ) :   0.4231 
B(  1-C ,  5-C ) :   1.0009 B(  3-C ,  4-N ) :   3.0160 B(  5-C ,  9-H ) :   0.9558 
B(  5-C , 10-H ) :   0.9603 B(  5-C , 11-H ) :   0.9503 

-------
TIMINGS
-------

Total SCF time: 0 days 0 hours 0 min 4 sec 

Total time                  ....       4.578 sec
Sum of individual times     ....       4.405 sec  ( 96.2%)

Fock matrix formation       ....       4.007 sec  ( 87.5%)
  Split-RI-J                ....       0.946 sec  ( 23.6% of F)
  Chain of spheres X        ....       1.265 sec  ( 31.6% of F)
  COS-X 1 center corr.      ....       0.000 sec  (  0.0% of F)
  XC integration            ....       0.156 sec  (  3.9% of F)
    Basis function eval.    ....       0.058 sec  ( 37.2% of XC)
    Density eval.           ....       0.022 sec  ( 14.1% of XC)
    XC-Functional eval.     ....       0.013 sec  (  8.6% of XC)
    XC-Potential eval.      ....       0.033 sec  ( 20.9% of XC)
Diagonalization             ....       0.002 sec  (  0.0%)
Density matrix formation    ....       0.002 sec  (  0.0%)
Population analysis         ....       0.003 sec  (  0.1%)
Initial guess               ....       0.004 sec  (  0.1%)
Orbital Transformation      ....       0.000 sec  (  0.0%)
Orbital Orthonormalization  ....       0.002 sec  (  0.1%)
DIIS solution               ....       0.000 sec  (  0.0%)
SOSCF solution              ....       0.006 sec  (  0.1%)
Grid generation             ....       0.381 sec  (  8.3%)


-------------------------------------------------------------------------------
                          DFT DISPERSION CORRECTION                            
                                                                               
                              DFTD3 V3.1  Rev 1                                
                          USING Becke-Johnson damping                          
-------------------------------------------------------------------------------
The PBE0 functional is recognized
Active option DFTDOPT                   ...         4   

molecular C6(AA) [au] = 1460.104069 


            DFT-D V3
 parameters
 s6 scaling factor         :     1.0000 
 a1 scaling factor         :     0.4145 
 s8 scaling factor         :     1.2177 
 a2 scaling factor         :     4.8593 
 ad hoc parameters k1-k3   :    16.0000     1.3333    -4.0000 

 Edisp/kcal,au: -5.157133727744  -0.008218414846 
 E6   /kcal   :  -3.281282643 
 E8   /kcal   :  -1.875851085 
 % E8         :  36.373908143 

-------------------------   ----------------
Dispersion correction           -0.008218415
-------------------------   ----------------


-------------------------   --------------------
FINAL SINGLE POINT ENERGY      -285.548668279859
-------------------------   --------------------

                                *** OPTIMIZATION RUN DONE ***

                            ***************************************
                            *     ORCA property calculations      *
                            ***************************************

                                    ---------------------
                                    Active property flags
                                    ---------------------
   (+) Dipole Moment


------------------------------------------------------------------------------
                       ORCA ELECTRIC PROPERTIES CALCULATION
------------------------------------------------------------------------------

Dipole Moment Calculation                       ... on
Quadrupole Moment Calculation                   ... off
Polarizability Calculation                      ... off
GBWName                                         ... ts_guess_orca_constrained_opt.gbw
Electron density file                           ... ts_guess_orca_constrained_opt.scfp.tmp
The origin for moment calculation is the CENTER OF MASS  = ( 1.108717, -0.119310 -0.502418)

-------------
DIPOLE MOMENT
-------------
                                X             Y             Z
Electronic contribution:      4.44842      -0.48272      -1.88746
Nuclear contribution   :     -6.95163       0.76798       2.84558
                        -----------------------------------------
Total Dipole Moment    :     -2.50321       0.28526       0.95812
                        -----------------------------------------
Magnitude (a.u.)       :      2.69544
Magnitude (Debye)      :      6.85128



--------------------
Rotational spectrum 
--------------------
 
Rotational constants in cm-1:     0.164302     0.081007     0.077556 
Rotational constants in MHz :  4925.653157  2428.530681  2325.076067 

 Dipole components along the rotational axes: 
x,y,z [a.u.] :     2.114270     0.006075     1.671900 
x,y,z [Debye]:     5.374048     0.015441     4.249631 

 

Timings for individual modules:

Sum of individual times         ...      256.958 sec (=   4.283 min)
GTO integral calculation        ...       24.706 sec (=   0.412 min)   9.6 %
SCF iterations                  ...      179.600 sec (=   2.993 min)  69.9 %
SCF Gradient evaluation         ...       51.440 sec (=   0.857 min)  20.0 %
Geometry relaxation             ...        1.211 sec (=   0.020 min)   0.5 %
                             ****ORCA TERMINATED NORMALLY****
TOTAL RUN TIME: 0 days 0 hours 4 minutes 21 seconds 276 msec
