      -----------------------------------------------------------      
     |                   =====================                   |     
     |                           x T B                           |     
     |                   =====================                   |     
     |                         S. Grimme                         |     
     |          Mulliken Center for Theoretical Chemistry        |     
     |                    University of Bonn                     |     
     |                 Version 6.1.4 (SAW190525)                 |     
      -----------------------------------------------------------      

   This program is distributed in the hope that it will be useful,
   but WITHOUT ANY WARRANTY; without even the implied warranty of
   MERCHANTABILITY or FITNESS FOR A PARTICULAR PURPOSE.
   
   FOR NON-COMMERCIAL, ACADEMIA USE ONLY.
   
   Cite this work as:
   S. Grimme, C. Bannwarth, P. Shushkov, J. Comput. Theory Chem., 2017,
   13, 1989-2009. DOI: 10.1021/acs.jctc.7b00118
   C. Bannwarth, S. Ehlert and S. Grimme., J. Comput. Theory Chem., 2019,
   just accepted. DOI: 10.1021/acs.jctc.8b01176
   
   for sTDA-xTB:
   S. Grimme and C. Bannwarth, J. Chem. Phys., 2016, 145, 054103.
   DOI: 10.1063/1.4959605
   
   in the mass-spec context:
   V. Asgeirsson, C. Bauer and S. Grimme, Chem. Sci., 2017, 8, 4879.
   DOI: 10.1039/c7sc00601b
   
   for metadynamics refer to:
   S. Grimme, J. Chem. Theory Comput. Article ASAP, 2019,
   DOI: 10.1021/acs.jctc.9b00143
   
   with help from (in alphabetical order)
   C. Bannwarth, F. Bohle, G. Brandenburg, E. Caldeweyher, M. Checinski,
   S. Dohm, S. Ehlert, S. Ehrlich, F. März, H. Neugebauer, J. Pisarek,
   P. Pracht, P. Shushkov, and S. Spicher.
   
 * started run on 2019/08/31 at 13:15:50.349     

           -------------------------------------------------
          |                Calculation Setup                |
           -------------------------------------------------

          program call               : /usr/local/xtb/bin/xtb prod--bq+py_7-10_4-5_xtb2d_scan5_0_xtb.xyz --chrg 0 --opt --input xcontrol_prod--bq+py_7-10_4-5_xtb2d_scan5_0
          hostname                   : ty2019.chem.ox.ac.uk
          coordinate file            : prod--bq+py_7-10_4-5_xtb2d_scan5_0_xtb.xyz
          omp threads                :                    10
          number of atoms            :                    22
          number of electrons        :                    66
          charge                     :                     0
          spin                       :                   0.0
          first test random number   :      0.44199015086943

constraining bond 8 11 to    1.5050000 Å, actual value:    1.5061120 Å
constraining bond 5 6 to    2.0460000 Å, actual value:    1.9380612 Å

########################################################################
# WARNING! Please study the warnings concerning your input carefully
#  - XTBHOME is not set, using HOME instead
########################################################################

           ------------------------------------------------- 
          |                 G F N 2 - x T B                 |
          | Geometry, Frequencies, Noncovalent interactions |
          |            JCTC 2018 parametrisation            |
           ------------------------------------------------- 
 
             k(s)              :                1.8500
             k(p)              :                2.2300
             k(d)              :                2.2300
             k(f)              :                2.0000
             kEN (H0ij)        :               -2.0000
             D4 a1             :                0.5200
             D4 a2             :                5.0000
             D4 s6             :                1.0000
             D4 s8             :                2.7000
             D4 s9             :                5.0000
             alphaj            :                2.0000

  Z AO/shell   Hii/eV     exponent
  1     Wed Apr 25 08:07:45 CEST 2018   EN: 2.200 GM2: 0.406  GM3: 0.0800  RAES: 1.40
     1s    -10.707211    1.230000
  6     Wed Apr 25 08:07:45 CEST 2018   EN: 2.550 GM2: 0.538  GM3: 0.1500  RAES: 3.00
     2s    -13.970922    2.096432
     2p    -10.063292    1.800000
  7     Wed Apr 25 08:07:45 CEST 2018   EN: 3.040 GM2: 0.461  GM3:-0.0640  RAES: 1.90
     2s    -16.686243    2.339881
     2p    -12.523956    2.014332
  8     Wed Apr 25 08:07:45 CEST 2018   EN: 3.440 GM2: 0.452  GM3:-0.0517  RAES: 1.80
     2s    -20.229985    2.439742
     2p    -15.503117    2.137023


            Z     q(EN)     CN     RAES       Cart. coordinates
     1  O   6.0   -0.39    1.00    1.80     3.31945     4.64170    -1.06692
     2  C   4.0    0.15    3.00    3.02     2.61158     2.48087    -0.69716
     3  C   4.0   -0.08    3.00    3.02     3.66104     0.95582     1.40025
     4  C   4.0   -0.09    3.00    3.02     3.40591    -1.54990     1.51908
     5  C   4.0   -0.06    3.64    3.19     0.67427     1.25259    -2.23095
     6  C   4.0    0.06    3.91    3.47    -2.59102     2.29611    -0.94173
     7  N   5.0   -0.47    3.09    1.94    -3.93188     0.23554    -1.92308
     8  C   4.0    0.07    4.26    4.12    -2.43799    -1.79624    -0.82672
     9  C   4.0   -0.08    3.14    3.03    -2.25129    -0.87035     1.85792
    10  C   4.0   -0.08    3.11    3.03    -2.27166     1.64710     1.73972
    11  C   4.0   -0.04    4.01    3.64     0.14619    -1.54192    -1.99198
    12  C   4.0    0.15    3.01    3.02     2.02599    -3.01290    -0.39903
    13  O   6.0   -0.39    1.00    1.80     2.29800    -5.26789    -0.65407
    14  H   1.0    0.14    0.99    1.43     4.76719     1.98622     2.77552
    15  H   1.0    0.14    0.99    1.43     4.29952    -2.65244     2.99102
    16  H   1.0    0.12    0.99    1.43     0.58251     2.00356    -4.13788
    17  H   1.0    0.12    1.00    1.43    -3.02301     4.18281    -1.57590
    18  H   1.0    0.23    1.00    1.43    -4.10796     0.18049    -3.82834
    19  H   1.0    0.12    0.99    1.43    -3.27478    -3.66184    -1.06872
    20  H   1.0    0.12    1.00    1.43    -1.99398    -2.07745     3.46449
    21  H   1.0    0.12    1.00    1.43    -2.01401     2.99858     3.22818
    22  H   1.0    0.12    0.99    1.43     0.10547    -2.43062    -3.86525

           ------------------------------------------------- 
          |        Self-Consistent Charge Iterations        |
           ------------------------------------------------- 
q/qsh data taken from xtbrestart
CAMM data taken from xtbrestart

          ...................................................
          :                      SETUP                      :
          :.................................................:
          :  # basis functions                  61          :
          :  # atomic orbitals                  61          :
          :  # shells                           35          :
          :  # electrons                        66          :
          :  max. iterations                   250          :
          :  Hamiltonian                  GFN2-xTB          :
          :  restarted?                       true          :
          :  GBSA solvation                  false          :
          :  PC potential                    false          :
          :  electronic temp.          300.0000000     K    :
          :  accuracy                    1.0000000          :
          :  -> integral cutoff          0.2500000E+02      :
          :  -> integral neglect         0.1000000E-07      :
          :  -> SCF convergence          0.1000000E-05 Eh   :
          :  -> wf. convergence          0.1000000E-03 e    :
          :  Broyden damping             0.4000000          :
          ...................................................

 iter      E             dE          RMSdq      gap      omega  full diag
   1    -37.4481492 -0.374481E+02  0.232E+00    1.89       0.0  T
   2    -37.4637132 -0.155641E-01  0.136E+00    1.96       1.0  T
   3    -37.4592642  0.444905E-02  0.703E-01    1.98       1.0  T
   4    -37.4637352 -0.447101E-02  0.344E-01    1.87       1.0  T
   5    -37.4657433 -0.200807E-02  0.614E-02    1.90       1.0  T
   6    -37.4657929 -0.496409E-04  0.257E-02    1.91       1.0  T
   7    -37.4657944 -0.144997E-05  0.140E-02    1.91       1.5  T
   8    -37.4657963 -0.193552E-05  0.445E-03    1.91       4.8  T
   9    -37.4657965 -0.159038E-06  0.214E-03    1.91      10.0  T
  10    -37.4657965 -0.155471E-07  0.928E-04    1.91      23.0  T
  11    -37.4657965 -0.449760E-08  0.423E-04    1.91      50.4  T

   *** convergence criteria satisfied after 11 iterations ***

         #    Occupation            Energy/Eh            Energy/eV
      -------------------------------------------------------------
         1        2.0000           -0.7287250             -19.8296
       ...           ...                  ...                  ...
        27        2.0000           -0.4725178             -12.8579
        28        2.0000           -0.4551058             -12.3841
        29        2.0000           -0.4539711             -12.3532
        30        2.0000           -0.4284820             -11.6596
        31        2.0000           -0.4161912             -11.3251
        32        2.0000           -0.4001568             -10.8888
        33        2.0000           -0.3933942             -10.7048 (HOMO)
        34                         -0.3230533              -8.7907 (LUMO)
        35                         -0.2605611              -7.0902
        36                         -0.2346854              -6.3861
        37                         -0.1888057              -5.1377
        38                         -0.1372469              -3.7347
       ...                                ...                  ...
        61                          0.7006802              19.0665
      -------------------------------------------------------------
                  HL-Gap            0.0703409 Eh            1.9141 eV
             Fermi-level           -0.3582237 Eh           -9.7478 eV

 SCC (total)                   0 d,  0 h,  0 min,  0.137 sec
 SCC setup                      ...        0 min,  0.000 sec (  0.180%)
 Dispersion                     ...        0 min,  0.000 sec (  0.202%)
 integral evaluation            ...        0 min,  0.016 sec ( 11.554%)
 zeroth order Hamiltonian       ...        0 min,  0.000 sec (  0.061%)
 iterations                     ...        0 min,  0.094 sec ( 68.670%)
 molecular gradient             ...        0 min,  0.025 sec ( 18.506%)
 printout                       ...        0 min,  0.001 sec (  0.776%)

         :::::::::::::::::::::::::::::::::::::::::::::::::::::
         ::                     SUMMARY                     ::
         :::::::::::::::::::::::::::::::::::::::::::::::::::::
         :: total energy              -36.552944539968 Eh   ::
         :: gradient norm               5.718566822230 Eh/α ::
         :: HOMO-LUMO gap               1.914073874102 eV   ::
         ::.................................................::
         :: SCC energy                -37.465796495292 Eh   ::
         :: -> isotropic ES             0.057882641053 Eh   ::
         :: -> anisotropic ES           0.002825862350 Eh   ::
         :: -> anisotropic XC           0.015822747629 Eh   ::
         :: -> dispersion              -0.023940993557 Eh   ::
         :: repulsion energy            0.496563256141 Eh   ::
         :: add. restraining            0.416101208936 Eh   ::
         :::::::::::::::::::::::::::::::::::::::::::::::::::::

      ----------------------------------------------------------- 
     |                   =====================                   |
     |                        A N C O P T                        |
     |                   =====================                   |
     |               Approximate Normal Coordinate               |
     |                Rational Function Optimizer                |
      ----------------------------------------------------------- 

          ...................................................
          :                      SETUP                      :
          :.................................................:
          :   optimization level            normal          :
          :   max. optcycles                   200          :
          :   ANC micro-cycles                  20          :
          :   degrees of freedom                60          :
          :.................................................:
          :   RF solver                   davidson          :
          :   input Hessian                  false          :
          :   write xtbopt.log                true          :
          :   linear?                        false          :
          :   energy convergence         0.5000000E-05 Eh   :
          :   grad. convergence          0.1000000E-02 Eh/α :
          :   maximium RF displ.         2.0000000          :
          :   Hlow (freq-cutoff)         0.5000000E-02      :
          :   Hmax (freq-cutoff)         5.0000000          :
          :   S6 in model hess.         20.0000000          :
          ...................................................

generating ANC from model Hessian ...
Using Lindh-Hessian (1995)
 Shifting diagonal of input Hessian by    1.46489998745374     
 Lowest  eigenvalues of input Hessian
    0.005000    0.081491   -0.000000   -0.000000    0.000000    0.000000
    0.000000    0.000000    1.468530    1.472247    1.476401    1.479493
    1.486188    1.490013    1.495338    1.496012    1.502414    1.513237
 Highest eigenvalues
    3.277836    3.356061    3.615268    3.700375   41.876779   42.632031
 

........................................................................
.............................. CYCLE    1 ..............................
........................................................................
   1    -37.4657965 -0.374658E+02  0.157E-04    1.91       0.0  T
   2    -37.4657965 -0.548042E-10  0.969E-05    1.91     220.1  T
   3    -37.4657965 -0.558487E-11  0.667E-05    1.91     319.7  T
     SCC iter.                  ...        0 min,  0.054 sec
     gradient                   ...        0 min,  0.031 sec
 * total energy  :   -36.5529445 Eh     change        0.3709550E-07 Eh
   gradient norm :     5.7185634 Eh/α   predicted     0.0000000E+00 (-100.00%)
   displ. norm   :     0.6542217 α      lambda       -0.3741192E+01
   maximum displ.:     0.6539608 α      in ANC's #60, #59, #42, ...

........................................................................
.............................. CYCLE    2 ..............................
........................................................................
   1    -37.4261200 -0.374261E+02  0.150E+00    1.69       0.0  T
   2    -37.3745129  0.516070E-01  0.188E+00    1.33       1.0  T
   3    -37.4487673 -0.742544E-01  0.731E-01    1.62       1.0  T
   4    -37.4544881 -0.572081E-02  0.277E-01    1.51       1.0  T
   5    -37.4548572 -0.369054E-03  0.863E-02    1.52       1.0  T
   6    -37.4549854 -0.128243E-03  0.348E-02    1.53       1.0  T
   7    -37.4550002 -0.147534E-04  0.170E-02    1.54       1.3  T
   8    -37.4550046 -0.442481E-05  0.672E-03    1.53       3.2  T
   9    -37.4550053 -0.639281E-06  0.168E-03    1.53      12.7  T
  10    -37.4550053 -0.372661E-07  0.883E-04    1.53      24.2  T
     SCC iter.                  ...        0 min,  0.171 sec
     gradient                   ...        0 min,  0.021 sec
 * total energy  :   -31.7323550 Eh     change        0.4820589E+01 Eh
   gradient norm :    20.4550344 Eh/α   predicted    -0.2671224E+01 (-155.41%)
   displ. norm   :     0.4207618 α      lambda       -0.8606644E+01
   maximum displ.:     0.4205832 α      in ANC's #60, #59, #49, ...

........................................................................
.............................. CYCLE    3 ..............................
........................................................................
   1    -37.4596205 -0.374596E+02  0.897E-01    1.73       0.0  T
   2    -37.4607769 -0.115645E-02  0.637E-01    1.90       1.0  T
   3    -37.4637624 -0.298548E-02  0.385E-01    1.81       1.0  T
   4    -37.4651649 -0.140245E-02  0.109E-01    1.83       1.0  T
   5    -37.4652443 -0.794565E-04  0.352E-02    1.82       1.0  T
   6    -37.4652633 -0.190004E-04  0.153E-02    1.82       1.4  T
   7    -37.4652650 -0.170385E-05  0.528E-03    1.82       4.0  T
   8    -37.4652653 -0.265840E-06  0.186E-03    1.82      11.4  T
     SCC iter.                  ...        0 min,  0.070 sec
     gradient                   ...        0 min,  0.016 sec
 * total energy  :   -36.7978070 Eh     change       -0.5065452E+01 Eh
   gradient norm :     3.6224475 Eh/α   predicted    -0.5065195E+01 (  -0.01%)
   displ. norm   :     0.0903448 α      lambda       -0.3255957E+00
   maximum displ.:     0.0899033 α      in ANC's #60, #1, #49, ...

........................................................................
.............................. CYCLE    4 ..............................
........................................................................
   1    -37.4642715 -0.374643E+02  0.196E-01    1.86       0.0  T
   2    -37.4644013 -0.129827E-03  0.139E-01    1.88       1.0  T
   3    -37.4645846 -0.183287E-03  0.752E-02    1.86       1.0  T
   4    -37.4646216 -0.370268E-04  0.275E-02    1.86       1.0  T
   5    -37.4646267 -0.509832E-05  0.980E-03    1.86       2.2  T
   6    -37.4646284 -0.175222E-05  0.336E-03    1.86       6.3  T
   7    -37.4646285 -0.642453E-07  0.115E-03    1.86      18.5  T
     SCC iter.                  ...        0 min,  0.048 sec
     gradient                   ...        0 min,  0.023 sec
 * total energy  :   -36.9615674 Eh     change       -0.1637604E+00 Eh
   gradient norm :     0.1532505 Eh/α   predicted    -0.1641274E+00 (   0.22%)
   displ. norm   :     0.1535186 α      lambda       -0.5018610E-02
   maximum displ.:     0.1491059 α      in ANC's #1, #59, #2, ...

........................................................................
.............................. CYCLE    5 ..............................
........................................................................
   1    -37.4639756 -0.374640E+02  0.236E-01    1.85       0.0  T
   2    -37.4641488 -0.173194E-03  0.138E-01    1.84       1.0  T
   3    -37.4641400  0.876495E-05  0.640E-02    1.84       1.0  T
   4    -37.4641464 -0.637397E-05  0.342E-02    1.84       1.0  T
   5    -37.4641686 -0.222244E-04  0.662E-03    1.84       3.2  T
   6    -37.4641690 -0.346817E-06  0.327E-03    1.84       6.5  T
   7    -37.4641690 -0.409612E-07  0.685E-04    1.84      31.1  T
     SCC iter.                  ...        0 min,  0.072 sec
     gradient                   ...        0 min,  0.027 sec
 * total energy  :   -36.9433731 Eh     change        0.1819431E-01 Eh
   gradient norm :     1.0764435 Eh/α   predicted    -0.2568581E-02 (-114.12%)
   displ. norm   :     0.1583494 α      lambda       -0.3678637E-01
   maximum displ.:     0.1555865 α      in ANC's #1, #59, #2, ...

........................................................................
.............................. CYCLE    6 ..............................
........................................................................
   1    -37.4641902 -0.374642E+02  0.245E-01    1.85       0.0  T
   2    -37.4644060 -0.215711E-03  0.145E-01    1.86       1.0  T
   3    -37.4643897  0.162822E-04  0.780E-02    1.87       1.0  T
   4    -37.4644077 -0.180649E-04  0.434E-02    1.86       1.0  T
   5    -37.4644425 -0.347648E-04  0.707E-03    1.86       3.0  T
   6    -37.4644428 -0.318635E-06  0.382E-03    1.86       5.6  T
   7    -37.4644429 -0.486783E-07  0.193E-03    1.86      11.0  T
     SCC iter.                  ...        0 min,  0.078 sec
     gradient                   ...        0 min,  0.034 sec
 * total energy  :   -36.9618450 Eh     change       -0.1847189E-01 Eh
   gradient norm :     0.0687565 Eh/α   predicted    -0.1885520E-01 (   2.08%)
   displ. norm   :     0.4383342 α      lambda       -0.4359425E-02
   maximum displ.:     0.4369215 α      in ANC's #1, #59, #2, ...

........................................................................
.............................. CYCLE    7 ..............................
........................................................................
   1    -37.4395881 -0.374396E+02  0.674E-01    1.81       0.0  T
   2    -37.4415855 -0.199741E-02  0.387E-01    1.70       1.0  T
   3    -37.4415597  0.257391E-04  0.194E-01    1.69       1.0  T
   4    -37.4414575  0.102201E-03  0.119E-01    1.70       1.0  T
   5    -37.4417322 -0.274663E-03  0.202E-02    1.69       1.1  T
   6    -37.4417376 -0.544343E-05  0.998E-03    1.69       2.1  T
   7    -37.4417381 -0.449183E-06  0.266E-03    1.69       8.0  T
   8    -37.4417382 -0.832704E-07  0.116E-03    1.69      18.3  T
     SCC iter.                  ...        0 min,  0.068 sec
     gradient                   ...        0 min,  0.216 sec
 * total energy  :   -36.8869675 Eh     change        0.7487747E-01 Eh
   gradient norm :     1.7906517 Eh/α   predicted    -0.2598594E-02 (-103.47%)
   displ. norm   :     0.3370947 α      lambda       -0.1682122E+00
   maximum displ.:     0.3347161 α      in ANC's #1, #59, #2, ...

........................................................................
.............................. CYCLE    8 ..............................
........................................................................
   1    -37.4606570 -0.374607E+02  0.521E-01    1.75       0.0  T
   2    -37.4617548 -0.109780E-02  0.305E-01    1.84       1.0  T
   3    -37.4617340  0.207535E-04  0.154E-01    1.85       1.0  T
   4    -37.4617165  0.175498E-04  0.883E-02    1.84       1.0  T
   5    -37.4618607 -0.144214E-03  0.138E-02    1.84       1.5  T
   6    -37.4618621 -0.140498E-05  0.734E-03    1.84       2.9  T
   7    -37.4618623 -0.216317E-06  0.332E-03    1.84       6.4  T
   8    -37.4618625 -0.150985E-06  0.920E-04    1.84      23.2  T
     SCC iter.                  ...        0 min,  0.057 sec
     gradient                   ...        0 min,  0.017 sec
 * total energy  :   -36.9603684 Eh     change       -0.7340090E-01 Eh
   gradient norm :     0.1434056 Eh/α   predicted    -0.9366378E-01 (  27.61%)
   displ. norm   :     0.1787311 α      lambda       -0.4401881E-02
   maximum displ.:     0.1660865 α      in ANC's #2, #1, #60, ...

........................................................................
.............................. CYCLE    9 ..............................
........................................................................
   1    -37.4627478 -0.374627E+02  0.330E-01    1.83       0.0  T
   2    -37.4633270 -0.579171E-03  0.237E-01    1.84       1.0  T
   3    -37.4640792 -0.752273E-03  0.121E-01    1.87       1.0  T
   4    -37.4641331 -0.538664E-04  0.511E-02    1.87       1.0  T
   5    -37.4641488 -0.157120E-04  0.223E-02    1.87       1.0  T
   6    -37.4641583 -0.951892E-05  0.596E-03    1.87       3.6  T
   7    -37.4641584 -0.119130E-06  0.284E-03    1.87       7.5  T
   8    -37.4641585 -0.500548E-07  0.996E-04    1.87      21.4  T
     SCC iter.                  ...        0 min,  0.051 sec
     gradient                   ...        0 min,  0.021 sec
 * total energy  :   -36.9577395 Eh     change        0.2628924E-02 Eh
   gradient norm :     0.1670581 Eh/α   predicted    -0.2271340E-02 (-186.40%)
   displ. norm   :     0.1463294 α      lambda       -0.9428897E-02
   maximum displ.:     0.1462053 α      in ANC's #2, #1, #39, ...

........................................................................
.............................. CYCLE   10 ..............................
........................................................................
   1    -37.4621041 -0.374621E+02  0.258E-01    1.87       0.0  T
   2    -37.4623556 -0.251471E-03  0.184E-01    1.87       1.0  T
   3    -37.4627594 -0.403873E-03  0.998E-02    1.86       1.0  T
   4    -37.4627982 -0.387685E-04  0.303E-02    1.86       1.0  T
   5    -37.4628051 -0.695489E-05  0.141E-02    1.86       1.5  T
   6    -37.4628085 -0.330469E-05  0.513E-03    1.86       4.2  T
   7    -37.4628086 -0.127019E-06  0.210E-03    1.86      10.2  T
     SCC iter.                  ...        0 min,  0.053 sec
     gradient                   ...        0 min,  0.019 sec
 * total energy  :   -36.9618746 Eh     change       -0.4135077E-02 Eh
   gradient norm :     0.0638471 Eh/α   predicted    -0.4815711E-02 (  16.46%)
   displ. norm   :     0.0148973 α      lambda       -0.2113405E-03
   maximum displ.:     0.0143189 α      in ANC's #2, #60, #1, ...

........................................................................
.............................. CYCLE   11 ..............................
........................................................................
   1    -37.4630891 -0.374631E+02  0.266E-02    1.86       0.0  T
   2    -37.4630916 -0.251745E-05  0.189E-02    1.86       1.1  T
   3    -37.4630955 -0.394255E-05  0.106E-02    1.86       2.0  T
   4    -37.4630960 -0.445670E-06  0.313E-03    1.86       6.8  T
   5    -37.4630961 -0.899530E-07  0.149E-03    1.86      14.3  T
     SCC iter.                  ...        0 min,  0.038 sec
     gradient                   ...        0 min,  0.015 sec
 * total energy  :   -36.9619849 Eh     change       -0.1103637E-03 Eh
   gradient norm :     0.0087423 Eh/α   predicted    -0.1065647E-03 (  -3.44%)
   displ. norm   :     0.0103220 α      lambda       -0.6105995E-04
   maximum displ.:     0.0091961 α      in ANC's #1, #26, #12, ...

........................................................................
.............................. CYCLE   12 ..............................
........................................................................
   1    -37.4630479 -0.374630E+02  0.164E-02    1.86       0.0  T
   2    -37.4630493 -0.140778E-05  0.106E-02    1.86       2.0  T
   3    -37.4630498 -0.448917E-06  0.637E-03    1.86       3.3  T
   4    -37.4630500 -0.211998E-06  0.297E-03    1.86       7.2  T
   5    -37.4630501 -0.994980E-07  0.754E-04    1.86      28.3  T
     SCC iter.                  ...        0 min,  0.038 sec
     gradient                   ...        0 min,  0.018 sec
 * total energy  :   -36.9620286 Eh     change       -0.4360998E-04 Eh
   gradient norm :     0.0073870 Eh/α   predicted    -0.3054763E-04 ( -29.95%)
   displ. norm   :     0.0116086 α      lambda       -0.4784320E-04
   maximum displ.:     0.0078809 α      in ANC's #1, #2, #26, ...

........................................................................
.............................. CYCLE   13 ..............................
........................................................................
   1    -37.4628697 -0.374629E+02  0.149E-02    1.86       0.0  T
   2    -37.4628702 -0.455847E-06  0.916E-03    1.86       2.3  T
   3    -37.4628699  0.255833E-06  0.504E-03    1.86       4.2  T
   4    -37.4628702 -0.306901E-06  0.209E-03    1.86      10.2  T
   5    -37.4628703 -0.822535E-07  0.429E-04    1.86      49.7  T
     SCC iter.                  ...        0 min,  0.041 sec
     gradient                   ...        0 min,  0.017 sec
 * total energy  :   -36.9620616 Eh     change       -0.3302787E-04 Eh
   gradient norm :     0.0053092 Eh/α   predicted    -0.2400031E-04 ( -27.33%)
   displ. norm   :     0.0100669 α      lambda       -0.2967345E-04
   maximum displ.:     0.0039774 α      in ANC's #1, #2, #12, ...

........................................................................
.............................. CYCLE   14 ..............................
........................................................................
   1    -37.4627339 -0.374627E+02  0.111E-02    1.86       0.0  T
   2    -37.4627340 -0.781131E-07  0.671E-03    1.86       3.2  T
   3    -37.4627339  0.118552E-06  0.298E-03    1.86       7.1  T
   4    -37.4627340 -0.140784E-06  0.736E-04    1.86      29.0  T
     SCC iter.                  ...        0 min,  0.038 sec
     gradient                   ...        0 min,  0.023 sec
 * total energy  :   -36.9620836 Eh     change       -0.2204922E-04 Eh
   gradient norm :     0.0094602 Eh/α   predicted    -0.1487285E-04 ( -32.55%)
   displ. norm   :     0.0139037 α      lambda       -0.3559748E-04
   maximum displ.:     0.0046417 α      in ANC's #12, #2, #5, ...

........................................................................
.............................. CYCLE   15 ..............................
........................................................................
   1    -37.4626310 -0.374626E+02  0.142E-02    1.85       0.0  T
   2    -37.4626312 -0.156715E-06  0.842E-03    1.85       2.5  T
   3    -37.4626310  0.169645E-06  0.421E-03    1.85       5.1  T
   4    -37.4626312 -0.207291E-06  0.108E-03    1.85      19.8  T
   5    -37.4626312 -0.188566E-07  0.303E-04    1.85      70.4  T
     SCC iter.                  ...        0 min,  0.040 sec
     gradient                   ...        0 min,  0.045 sec
 * total energy  :   -36.9621091 Eh     change       -0.2546235E-04 Eh
   gradient norm :     0.0117711 Eh/α   predicted    -0.1789865E-04 ( -29.71%)
   displ. norm   :     0.0125842 α      lambda       -0.2758787E-04
   maximum displ.:     0.0049502 α      in ANC's #12, #5, #10, ...

........................................................................
.............................. CYCLE   16 ..............................
........................................................................
   1    -37.4626491 -0.374626E+02  0.121E-02    1.85       0.0  T
   2    -37.4626493 -0.205550E-06  0.707E-03    1.85       3.0  T
   3    -37.4626492  0.968105E-07  0.362E-03    1.85       5.9  T
   4    -37.4626493 -0.109924E-06  0.138E-03    1.85      15.4  T
   5    -37.4626494 -0.322786E-07  0.299E-04    1.85      71.4  T
     SCC iter.                  ...        0 min,  0.053 sec
     gradient                   ...        0 min,  0.021 sec
 * total energy  :   -36.9621287 Eh     change       -0.1958517E-04 Eh
   gradient norm :     0.0082052 Eh/α   predicted    -0.1383119E-04 ( -29.38%)
   displ. norm   :     0.0093241 α      lambda       -0.1849112E-04
   maximum displ.:     0.0041716 α      in ANC's #12, #5, #10, ...

........................................................................
.............................. CYCLE   17 ..............................
........................................................................
   1    -37.4627686 -0.374628E+02  0.835E-03    1.85       0.0  T
   2    -37.4627687 -0.149061E-06  0.496E-03    1.85       4.3  T
   3    -37.4627686  0.638512E-07  0.274E-03    1.85       7.8  T
   4    -37.4627687 -0.711804E-07  0.127E-03    1.85      16.8  T
     SCC iter.                  ...        0 min,  0.031 sec
     gradient                   ...        0 min,  0.015 sec
 * total energy  :   -36.9621421 Eh     change       -0.1342541E-04 Eh
   gradient norm :     0.0034716 Eh/α   predicted    -0.9539265E-05 ( -28.95%)
   displ. norm   :     0.0078524 α      lambda       -0.1420168E-04
   maximum displ.:     0.0037344 α      in ANC's #12, #5, #6, ...

........................................................................
.............................. CYCLE   18 ..............................
........................................................................
   1    -37.4629165 -0.374629E+02  0.628E-03    1.85       0.0  T
   2    -37.4629166 -0.756363E-07  0.388E-03    1.85       5.5  T
   3    -37.4629165  0.645041E-07  0.256E-03    1.85       8.3  T
   4    -37.4629166 -0.918528E-07  0.860E-04    1.85      24.8  T
   5    -37.4629166 -0.124609E-07  0.173E-04    1.85     123.6  T
     SCC iter.                  ...        0 min,  0.045 sec
     gradient                   ...        0 min,  0.017 sec
 * total energy  :   -36.9621527 Eh     change       -0.1064075E-04 Eh
   gradient norm :     0.0063976 Eh/α   predicted    -0.7157365E-05 ( -32.74%)
   displ. norm   :     0.0090236 α      lambda       -0.1542185E-04
   maximum displ.:     0.0043642 α      in ANC's #12, #6, #5, ...

........................................................................
.............................. CYCLE   19 ..............................
........................................................................
   1    -37.4630549 -0.374631E+02  0.644E-03    1.85       0.0  T
   2    -37.4630550 -0.661657E-07  0.416E-03    1.85       5.1  T
   3    -37.4630549  0.454567E-07  0.277E-03    1.85       7.7  T
   4    -37.4630550 -0.971976E-07  0.863E-04    1.85      24.7  T
     SCC iter.                  ...        0 min,  0.027 sec
     gradient                   ...        0 min,  0.016 sec
 * total energy  :   -36.9621640 Eh     change       -0.1128029E-04 Eh
   gradient norm :     0.0089541 Eh/α   predicted    -0.7722909E-05 ( -31.54%)
   displ. norm   :     0.0105197 α      lambda       -0.1623836E-04
   maximum displ.:     0.0051010 α      in ANC's #12, #6, #5, ...

........................................................................
.............................. CYCLE   20 ..............................
........................................................................
   1    -37.4631366 -0.374631E+02  0.705E-03    1.85       0.0  T
   2    -37.4631366 -0.685874E-07  0.447E-03    1.85       4.8  T
   3    -37.4631366  0.446220E-07  0.306E-03    1.85       7.0  T
   4    -37.4631367 -0.108232E-06  0.883E-04    1.85      24.1  T
   5    -37.4631367 -0.142273E-07  0.200E-04    1.85     106.4  T
     SCC iter.                  ...        0 min,  0.031 sec
     gradient                   ...        0 min,  0.018 sec
 * total energy  :   -36.9621754 Eh     change       -0.1135571E-04 Eh
   gradient norm :     0.0071509 Eh/α   predicted    -0.8149502E-05 ( -28.23%)
   displ. norm   :     0.0103790 α      lambda       -0.1149126E-04
   maximum displ.:     0.0050874 α      in ANC's #12, #6, #5, ...
 * RMSD in coord.:     0.0375256 α      energy gain  -0.4092308E+00 Eh

generating ANC from model Hessian ...
Using Lindh-Hessian (1995)
 Shifting diagonal of input Hessian by   3.274876401324959E-003
 Lowest  eigenvalues of input Hessian
   -0.000000   -0.000000    0.000000    0.000000    0.000000    0.000000
    0.005000    0.006772    0.011576    0.014083    0.018733    0.024546
    0.026523    0.028931    0.034642    0.035458    0.049436    0.061008
 Highest eigenvalues
    1.819671    1.898579    2.160328    2.246687   40.330707   41.170986
 

........................................................................
.............................. CYCLE   21 ..............................
........................................................................
   1    -37.4631140 -0.374631E+02  0.618E-03    1.85       0.0  T
   2    -37.4631141 -0.535689E-07  0.381E-03    1.85       5.6  T
   3    -37.4631140  0.376822E-07  0.255E-03    1.85       8.4  T
   4    -37.4631141 -0.782709E-07  0.561E-04    1.85      38.0  T
   5    -37.4631141 -0.624513E-08  0.168E-04    1.85     127.2  T
     SCC iter.                  ...        0 min,  0.054 sec
     gradient                   ...        0 min,  0.027 sec
 * total energy  :   -36.9621835 Eh     change       -0.8111595E-05 Eh
   gradient norm :     0.0031434 Eh/α   predicted     0.0000000E+00 (-100.00%)
   displ. norm   :     0.0727122 α      lambda       -0.6629802E-04
   maximum displ.:     0.0448849 α      in ANC's #3, #2, #1, ...

........................................................................
.............................. CYCLE   22 ..............................
........................................................................
   1    -37.4629606 -0.374630E+02  0.387E-02    1.85       0.0  T
   2    -37.4629617 -0.106297E-05  0.226E-02    1.85       1.0  T
   3    -37.4629607  0.933624E-06  0.926E-03    1.85       2.3  T
   4    -37.4629618 -0.109086E-05  0.243E-03    1.86       8.8  T
   5    -37.4629619 -0.905778E-07  0.776E-04    1.85      27.5  T
   6    -37.4629619 -0.186572E-08  0.487E-04    1.85      43.7  T
     SCC iter.                  ...        0 min,  0.109 sec
     gradient                   ...        0 min,  0.022 sec
 * total energy  :   -36.9622200 Eh     change       -0.3647175E-04 Eh
   gradient norm :     0.0107103 Eh/α   predicted    -0.3335367E-04 (  -8.55%)
   displ. norm   :     0.0518384 α      lambda       -0.4327576E-04
   maximum displ.:     0.0384395 α      in ANC's #3, #5, #2, ...

........................................................................
.............................. CYCLE   23 ..............................
........................................................................
   1    -37.4628137 -0.374628E+02  0.312E-02    1.85       0.0  T
   2    -37.4628142 -0.485791E-06  0.190E-02    1.85       1.1  T
   3    -37.4628120  0.214862E-05  0.108E-02    1.85       2.0  T
   4    -37.4628145 -0.249567E-05  0.207E-03    1.85      10.3  T
   5    -37.4628146 -0.580160E-07  0.858E-04    1.85      24.8  T
     SCC iter.                  ...        0 min,  0.050 sec
     gradient                   ...        0 min,  0.017 sec
 * total energy  :   -36.9621641 Eh     change        0.5590593E-04 Eh
   gradient norm :     0.0707818 Eh/α   predicted    -0.2169745E-04 (-138.81%)
   displ. norm   :     0.0171524 α      lambda       -0.1409201E-03
   maximum displ.:     0.0092107 α      in ANC's #3, #1, #2, ...

........................................................................
.............................. CYCLE   24 ..............................
........................................................................
   1    -37.4629098 -0.374629E+02  0.126E-02    1.85       0.0  T
   2    -37.4629101 -0.281919E-06  0.719E-03    1.85       3.0  T
   3    -37.4629099  0.211523E-06  0.459E-03    1.85       4.6  T
   4    -37.4629102 -0.296855E-06  0.136E-03    1.85      15.7  T
     SCC iter.                  ...        0 min,  0.032 sec
     gradient                   ...        0 min,  0.027 sec
 * total energy  :   -36.9622273 Eh     change       -0.6328262E-04 Eh
   gradient norm :     0.0054105 Eh/α   predicted    -0.7048099E-04 (  11.37%)
   displ. norm   :     0.0254623 α      lambda       -0.1305559E-04
   maximum displ.:     0.0160543 α      in ANC's #5, #3, #9, ...

........................................................................
.............................. CYCLE   25 ..............................
........................................................................
   1    -37.4630584 -0.374631E+02  0.177E-02    1.85       0.0  T
   2    -37.4630585 -0.765316E-07  0.104E-02    1.85       2.0  T
   3    -37.4630577  0.765868E-06  0.720E-03    1.85       3.0  T
   4    -37.4630586 -0.908056E-06  0.872E-04    1.85      24.4  T
   5    -37.4630586 -0.690753E-08  0.476E-04    1.85      44.8  T
     SCC iter.                  ...        0 min,  0.032 sec
     gradient                   ...        0 min,  0.026 sec
 * total energy  :   -36.9622292 Eh     change       -0.1828498E-05 Eh
   gradient norm :     0.0023772 Eh/α   predicted    -0.6533418E-05 ( 257.31%)
   displ. norm   :     0.0121891 α      lambda       -0.4886624E-05
   maximum displ.:     0.0078791 α      in ANC's #5, #3, #9, ...

........................................................................
.............................. CYCLE   26 ..............................
........................................................................
   1    -37.4630029 -0.374630E+02  0.892E-03    1.85       0.0  T
   2    -37.4630029 -0.175675E-07  0.533E-03    1.85       4.0  T
   3    -37.4630028  0.153191E-06  0.299E-03    1.85       7.1  T
   4    -37.4630029 -0.175369E-06  0.449E-04    1.85      47.4  T
   5    -37.4630029 -0.158165E-08  0.255E-04    1.85      83.6  T
     SCC iter.                  ...        0 min,  0.021 sec
     gradient                   ...        0 min,  0.023 sec
 * total energy  :   -36.9622313 Eh     change       -0.2086768E-05 Eh
   gradient norm :     0.0052780 Eh/α   predicted    -0.2444331E-05 (  17.13%)
   displ. norm   :     0.0134275 α      lambda       -0.4439107E-05
   maximum displ.:     0.0082134 α      in ANC's #5, #3, #9, ...

........................................................................
.............................. CYCLE   27 ..............................
........................................................................
   1    -37.4629925 -0.374630E+02  0.102E-02    1.85       0.0  T
   2    -37.4629926 -0.262119E-07  0.610E-03    1.85       3.5  T
   3    -37.4629924  0.163227E-06  0.336E-03    1.85       6.3  T
   4    -37.4629926 -0.192832E-06  0.518E-04    1.85      41.1  T
   5    -37.4629926 -0.192107E-08  0.309E-04    1.85      69.1  T
     SCC iter.                  ...        0 min,  0.044 sec
     gradient                   ...        0 min,  0.020 sec
 * total energy  :   -36.9622210 Eh     change        0.1030436E-04 Eh
   gradient norm :     0.0264172 Eh/α   predicted    -0.2222586E-05 (-121.57%)
   displ. norm   :     0.0119165 α      lambda       -0.2148318E-04
   maximum displ.:     0.0076661 α      in ANC's #5, #3, #9, ...

........................................................................
.............................. CYCLE   28 ..............................
........................................................................
   1    -37.4630147 -0.374630E+02  0.880E-03    1.85       0.0  T
   2    -37.4630147 -0.158023E-07  0.524E-03    1.85       4.1  T
   3    -37.4630146  0.164099E-06  0.317E-03    1.85       6.7  T
     SCC iter.                  ...        0 min,  0.024 sec
     gradient                   ...        0 min,  0.044 sec
 * total energy  :   -36.9622316 Eh     change       -0.1062901E-04 Eh
   gradient norm :     0.0001290 Eh/α   predicted    -0.1074653E-04 (   1.11%)
   displ. norm   :     0.0023397 α      lambda       -0.8321168E-07
   maximum displ.:     0.0014134 α      in ANC's #1, #8, #17, ...

........................................................................
.............................. CYCLE   29 ..............................
........................................................................
   1    -37.4630117 -0.374630E+02  0.223E-03    1.85       0.0  T
   2    -37.4630117 -0.286871E-08  0.148E-03    1.85      14.4  T
   3    -37.4630116  0.119771E-07  0.735E-04    1.85      29.0  T
   4    -37.4630117 -0.133747E-07  0.172E-04    1.85     123.9  T
     SCC iter.                  ...        0 min,  0.088 sec
     gradient                   ...        0 min,  0.243 sec
 * total energy  :   -36.9622318 Eh     change       -0.1864569E-06 Eh
   gradient norm :     0.0001356 Eh/α   predicted    -0.4240795E-07 ( -77.26%)
   displ. norm   :     0.0019882 α      lambda        0.8521223E-07
   maximum displ.:     0.0011784 α      in ANC's #8, #1, #17, ...

   *** GEOMETRY OPTIMIZATION CONVERGED AFTER 29 ITERATIONS ***

------------------------------------------------------------------------
 total energy gain :          -0.4092872 Eh     -256.8316 kcal/mol
 total RMSD        :           0.0470181 α         0.0249 Å
------------------------------------------------------------------------

 ANCopt (total)                0 d,  0 h,  0 min,  3.197 sec
 optimizer setup                ...        0 min,  0.000 sec (  0.006%)
 model hessian                  ...        0 min,  0.169 sec (  5.282%)
 ANC generation                 ...        0 min,  0.004 sec (  0.121%)
 coordinate transformation      ...        0 min,  0.001 sec (  0.017%)
 single point calculation       ...        0 min,  2.951 sec ( 92.310%)
 optimization log               ...        0 min,  0.003 sec (  0.101%)
 hessian update                 ...        0 min,  0.036 sec (  1.111%)
 rational function              ...        0 min,  0.032 sec (  0.987%)

================
 final structure:
================
$coord
    3.33782955799911    4.63650522496674   -1.05690906101529      O 
    2.63144933144421    2.46605023408138   -0.70785998439285      C 
    3.65798713158980    0.94165773257458    1.40493355367139      C 
    3.39104289475924   -1.56310638302969    1.53068392077915      C 
    0.75167985589603    1.22802687434467   -2.26576903623407      C 
   -2.69882020824461    2.31869618984664   -0.90877382354948      C 
   -3.92240401299700    0.23154585149633   -1.92822443700238      N 
   -2.41658401006728   -1.78499025205738   -0.82830217015546      C 
   -2.22002925170158   -0.86062095392710    1.85014102081128      C 
   -2.29206535308256    1.66393340448273    1.73620989544649      C 
    0.16290400788637   -1.53561611374684   -2.00530983637970      C 
    2.02055927342138   -3.02273971019111   -0.39249382700776      C 
    2.27145708430538   -5.28028625216269   -0.64322021246693      O 
    4.75926177384595    1.97096693206218    2.78479510128517      H 
    4.27155118729552   -2.66576252736554    3.01051582757929      H 
    0.58506391267288    2.01624293925544   -4.14893780774887      H 
   -3.11523061579591    4.19651182046560   -1.56955641460736      H 
   -4.11889951961901    0.18749444901091   -3.83020035818862      H 
   -3.24295120346446   -3.65596501120958   -1.06758126204859      H 
   -1.90063675203712   -2.06119085025364    3.44985894037978      H 
   -2.01962652918651    3.01099727114980    3.22620752011035      H 
    0.10600791085304   -2.43852094512926   -3.87174894240855      H 
$end

========================================================================
 FINAL SINGLEPOINT CALCULATION ON OPTIMIZED GEOMETRY
========================================================================

          ...................................................
          :                      SETUP                      :
          :.................................................:
          :  # basis functions                  61          :
          :  # atomic orbitals                  61          :
          :  # shells                           35          :
          :  # electrons                        66          :
          :  max. iterations                    50          :
          :  Hamiltonian                  GFN2-xTB          :
          :  restarted?                      false          :
          :  GBSA solvation                  false          :
          :  PC potential                    false          :
          :  electronic temp.          300.0000000     K    :
          :  accuracy                    1.0000000          :
          :  -> integral cutoff          0.2500000E+02      :
          :  -> integral neglect         0.1000000E-07      :
          :  -> SCF convergence          0.1000000E-05 Eh   :
          :  -> wf. convergence          0.1000000E-03 e    :
          :  Broyden damping             0.4000000          :
          ...................................................

 iter      E             dE          RMSdq      gap      omega  full diag
   1    -37.4630117 -0.374630E+02  0.811E-05    1.85       0.0  T
   2    -37.4630117  0.399325E-11  0.369E-05    1.85     578.0  T
   3    -37.4630117 -0.148219E-10  0.451E-05    1.85     472.9  T

   *** convergence criteria satisfied after 3 iterations ***

         #    Occupation            Energy/Eh            Energy/eV
      -------------------------------------------------------------
         1        2.0000           -0.7281107             -19.8129
       ...           ...                  ...                  ...
        27        2.0000           -0.4713871             -12.8271
        28        2.0000           -0.4566756             -12.4268
        29        2.0000           -0.4520017             -12.2996
        30        2.0000           -0.4310442             -11.7293
        31        2.0000           -0.4141823             -11.2705
        32        2.0000           -0.3960909             -10.7782
        33        2.0000           -0.3887024             -10.5771 (HOMO)
        34                         -0.3206233              -8.7246 (LUMO)
        35                         -0.2692134              -7.3257
        36                         -0.2312577              -6.2928
        37                         -0.1942707              -5.2864
        38                         -0.1456194              -3.9625
       ...                                ...                  ...
        61                          0.7032947              19.1376
      -------------------------------------------------------------
                  HL-Gap            0.0680791 Eh            1.8525 eV
             Fermi-level           -0.3546629 Eh           -9.6509 eV

 SCC (total)                   0 d,  0 h,  0 min,  0.138 sec
 SCC setup                      ...        0 min,  0.000 sec (  0.143%)
 Dispersion                     ...        0 min,  0.000 sec (  0.085%)
 integral evaluation            ...        0 min,  0.022 sec ( 16.283%)
 zeroth order Hamiltonian       ...        0 min,  0.000 sec (  0.057%)
 iterations                     ...        0 min,  0.036 sec ( 26.029%)
 molecular gradient             ...        0 min,  0.071 sec ( 51.627%)
 printout                       ...        0 min,  0.008 sec (  5.727%)

         :::::::::::::::::::::::::::::::::::::::::::::::::::::
         ::                     SUMMARY                     ::
         :::::::::::::::::::::::::::::::::::::::::::::::::::::
         :: total energy              -36.962231783045 Eh   ::
         :: gradient norm               0.000135525883 Eh/α ::
         :: HOMO-LUMO gap               1.852527877833 eV   ::
         ::.................................................::
         :: SCC energy                -37.463011656019 Eh   ::
         :: -> isotropic ES             0.059319416241 Eh   ::
         :: -> anisotropic ES           0.002788255346 Eh   ::
         :: -> anisotropic XC           0.015457313141 Eh   ::
         :: -> dispersion              -0.024354792551 Eh   ::
         :: repulsion energy            0.500515719135 Eh   ::
         :: add. restraining            0.000074014284 Eh   ::
         :::::::::::::::::::::::::::::::::::::::::::::::::::::

           -------------------------------------------------
          |                Property Printout                |
           -------------------------------------------------

    * Orbital Energies and Occupations

         #    Occupation            Energy/Eh            Energy/eV
      -------------------------------------------------------------
         1        2.0000           -0.7281107             -19.8129
       ...           ...                  ...                  ...
        21        2.0000           -0.5094854             -13.8638
        22        2.0000           -0.5066372             -13.7863
        23        2.0000           -0.5048626             -13.7380
        24        2.0000           -0.4928834             -13.4120
        25        2.0000           -0.4868083             -13.2467
        26        2.0000           -0.4829781             -13.1425
        27        2.0000           -0.4713871             -12.8271
        28        2.0000           -0.4566756             -12.4268
        29        2.0000           -0.4520017             -12.2996
        30        2.0000           -0.4310442             -11.7293
        31        2.0000           -0.4141823             -11.2705
        32        2.0000           -0.3960909             -10.7782
        33        2.0000           -0.3887024             -10.5771 (HOMO)
        34                         -0.3206233              -8.7246 (LUMO)
        35                         -0.2692134              -7.3257
        36                         -0.2312577              -6.2928
        37                         -0.1942707              -5.2864
        38                         -0.1456194              -3.9625
        39                          0.0093898               0.2555
        40                          0.0443517               1.2069
        41                          0.0722319               1.9655
        42                          0.0764632               2.0807
        43                          0.0905017               2.4627
        44                          0.0955925               2.6012
       ...                                ...                  ...
        61                          0.7032947              19.1376
      -------------------------------------------------------------
                  HL-Gap            0.0680791 Eh            1.8525 eV
             Fermi-level           -0.3546629 Eh           -9.6509 eV

   #   Z        covCN         q      C6AA      α(0)
   1   8 O      0.858    -0.394    21.556     6.225
   2   6 C      2.820     0.224    23.285     7.906
   3   6 C      2.898    -0.035    28.862     8.808
   4   6 C      2.894    -0.048    29.179     8.857
   5   6 C      3.298    -0.087    28.304     8.523
   6   6 C      3.481     0.047    21.635     6.950
   7   7 N      2.769    -0.181    24.918     7.414
   8   6 C      4.045     0.057    19.540     6.279
   9   6 C      3.030    -0.043    29.045     8.840
  10   6 C      3.000    -0.031    28.758     8.797
  11   6 C      3.881    -0.040    21.229     6.551
  12   6 C      2.827     0.237    23.044     7.866
  13   8 O      0.858    -0.350    20.700     6.100
  14   1 H      0.925     0.074     2.041     2.234
  15   1 H      0.925     0.072     2.065     2.247
  16   1 H      0.925     0.054     2.275     2.359
  17   1 H      0.926     0.062     2.177     2.307
  18   1 H      0.860     0.160     1.337     1.811
  19   1 H      0.925     0.057     2.234     2.337
  20   1 H      0.926     0.050     2.317     2.380
  21   1 H      0.926     0.054     2.275     2.359
  22   1 H      0.924     0.060     2.203     2.321

 Mol. C6AA /au·bohr⁶  :       5957.277932
 Mol. C8AA /au·bohr⁸  :     143589.944128
 Mol. α(0) /au        :        119.471612


Wiberg/Mayer (AO) data.
largest (>0.10) Wiberg bond orders for each atom
          total WBO             WBO to atom ...
     1  O   2.033        C    2 1.714
     2  C   3.952        O    1 1.714    C    5 1.119    C    3 1.023
     3  C   3.978        C    4 1.814    C    2 1.023    H   14 0.962
     4  C   3.987        C    3 1.814    C   12 1.048    H   15 0.958
     5  C   3.981        C    2 1.119    C   11 1.049    H   16 0.962    C    6 0.554
     6  C   3.967        N    7 1.160    C   10 1.119    H   17 0.970    C    5 0.554
     7  N   3.298        C    6 1.160    C    8 0.991    H   18 0.946
     8  C   3.974        C    9 1.021    N    7 0.991    H   19 0.963    C   11 0.894
     9  C   3.984        C   10 1.818    C    8 1.021    H   20 0.970
    10  C   3.986        C    9 1.818    C    6 1.119    H   21 0.969
    11  C   3.994        C    5 1.049    C   12 0.956    H   22 0.949    C    8 0.894
    12  C   3.929        O   13 1.827    C    4 1.048    C   11 0.956
    13  O   2.079        C   12 1.827
    14  H   0.994        C    3 0.962
    15  H   0.995        C    4 0.958
    16  H   0.997        C    5 0.962
    17  H   0.996        C    6 0.970
    18  H   0.974        N    7 0.946
    19  H   0.996        C    8 0.963
    20  H   0.997        C    9 0.970
    21  H   0.997        C   10 0.969
    22  H   0.996        C   11 0.949

molecular dipole:
                 x           y           z       tot (Debye)
 q only:       -1.329      -0.142       0.215
   full:       -1.153      -0.175       0.029       2.966
molecular quadrupole (traceless):
                xx          xy          yy          xz          yz          zz
 q only:        3.162      -3.212     -13.217       6.428       1.014      10.055
  q+dip:       -0.344      -3.618     -14.492       9.373       0.931      14.836
   full:        1.950      -4.052     -16.348       7.269       1.140      14.398

           -------------------------------------------------
          |                Geometry Summary                 |
           -------------------------------------------------

      molecular mass/u    :      175.1866000
   center of mass at/Å    :        0.1993122      -0.0250045      -0.1911667
  moments of inertia/u·Å² :        0.4604692E+03   0.4718728E+03   0.7119593E+03
rotational constants/cm⁻¹ :        0.3660969E-01   0.3572495E-01   0.2367780E-01

 * 20 selected distances

     #   Z        #   Z                                     value/Å
     1   8 O      2   6 C                                 1.2218935
     3   6 C      4   6 C                                 1.3346303
     2   6 C      5   6 C                                 1.4485657
     6   6 C      7   7 N                                 1.3892927
     7   7 N      8   6 C                                 1.4534314
     8   6 C      9   6 C                                 1.5030078
     6   6 C     10   6 C                                 1.4578908
     9   6 C     10   6 C                                 1.3378397
     5   6 C     11   6 C                                 1.5016162
     8   6 C     11   6 C                                 1.5061851 (max)
    12   6 C     13   8 O                                 1.2092980
     3   6 C     14   1 H                                 1.0814267
     4   6 C     15   1 H                                 1.0820411
     5   6 C     16   1 H                                 1.0838927
     6   6 C     17   1 H                                 1.0762251
     7   7 N     18   1 H                                 1.0121078 (min)
     8   6 C     19   1 H                                 1.0897305
     9   6 C     20   1 H                                 1.0718259
    10   6 C     21   1 H                                 1.0726642
    11   6 C     22   1 H                                 1.0975893

 * 5 distinct bonds (by element types)

   Z      Z             #   av. dist./Å        max./Å        min./Å
   1 H    6 C           8     1.0819245     1.0975893     1.0718259
   6 C    6 C           7     1.4413908     1.5061851     1.3346303
   1 H    7 N           1     1.0121078     1.0121078     1.0121078
   6 C    7 N           2     1.4213621     1.4534314     1.3892927
   6 C    8 O           2     1.2155957     1.2218935     1.2092980


optimized geometry written to: xtbopt.xyz


           -------------------------------------------------
          | TOTAL ENERGY              -36.962231783045 Eh   |
          | GRADIENT NORM               0.000135525883 Eh/α |
          | HOMO-LUMO GAP               1.852527877833 eV   |
           -------------------------------------------------

------------------------------------------------------------------------
 * finished run on 2019/08/31 at 13:15:53.965     
------------------------------------------------------------------------
 total:
 * wall-time:     0 d,  0 h,  0 min,  3.616 sec
 *  cpu-time:     0 d,  0 h,  0 min,  7.304 sec
 * ratio c/w:     2.020 speedup
 SCF:
 * wall-time:     0 d,  0 h,  0 min,  0.142 sec
 *  cpu-time:     0 d,  0 h,  0 min,  0.272 sec
 * ratio c/w:     1.918 speedup
 ANC optimizer:
 * wall-time:     0 d,  0 h,  0 min,  3.345 sec
 *  cpu-time:     0 d,  0 h,  0 min,  6.808 sec
 * ratio c/w:     2.035 speedup

