
                                 *****************
                                 * O   R   C   A *
                                 *****************

           --- An Ab Initio, DFT and Semiempirical electronic structure package ---

                  #######################################################
                  #                        -***-                        #
                  #          Department of theory and spectroscopy      #
                  #               Directorship: Frank Neese             #
                  #        Max Planck Institute fuer Kohlenforschung    #
                  #                Kaiser Wilhelm Platz 1               #
                  #                 D-45470 Muelheim/Ruhr               #
                  #                      Germany                        #
                  #                                                     #
                  #                  All rights reserved                #
                  #                        -***-                        #
                  #######################################################


                         Program Version 4.1.1  - RELEASE  -


 With contributions from (in alphabetic order):
   Daniel Aravena         : Magnetic Properties
   Michael Atanasov       : Ab Initio Ligand Field Theory
   Alexander A. Auer      : GIAO ZORA
   Ute Becker             : Parallelization
   Giovanni Bistoni       : ED, Open-shell LED
   Martin Brehm           : Molecular dynamics
   Dmytro Bykov           : SCF Hessian
   Vijay G. Chilkuri      : MRCI spin determinant printing
   Dipayan Datta          : RHF DLPNO-CCSD density
   Achintya Kumar Dutta   : EOM-CC, STEOM-CC
   Dmitry Ganyushin       : Spin-Orbit,Spin-Spin,Magnetic field MRCI
   Miquel Garcia          : C-PCM Hessian
   Yang Guo               : DLPNO-NEVPT2, CIM, IAO-localization
   Andreas Hansen         : Spin unrestricted coupled pair/coupled cluster methods
   Benjamin Helmich-Paris : CASSCF linear response (MC-RPA)
   Lee Huntington         : MR-EOM, pCC
   Robert Izsak           : Overlap fitted RIJCOSX, COSX-SCS-MP3, EOM
   Christian Kollmar      : KDIIS, OOCD, Brueckner-CCSD(T), CCSD density
   Simone Kossmann        : Meta GGA functionals, TD-DFT gradient, OOMP2, MP2 Hessian
   Martin Krupicka        : AUTO-CI
   Lucas Lang             : DCDCAS
   Dagmar Lenk            : GEPOL surface, SMD
   Dimitrios Liakos       : Extrapolation schemes; parallel MDCI
   Dimitrios Manganas     : ROCIS; embedding schemes
   Dimitrios Pantazis     : SARC Basis sets
   Taras Petrenko         : DFT Hessian,TD-DFT gradient, ASA, ECA, R-Raman, ABS, FL, XAS/XES, NRVS
   Peter Pinski           : DLPNO-MP2, DLPNO-MP2 Gradient
   Christoph Reimann      : Effective Core Potentials
   Marius Retegan         : Local ZFS, SOC
   Christoph Riplinger    : Optimizer, TS searches, QM/MM, DLPNO-CCSD(T), (RO)-DLPNO pert. Triples
   Tobias Risthaus        : Range-separated hybrids, TD-DFT gradient, RPA, STAB
   Michael Roemelt        : Restricted open shell CIS
   Masaaki Saitow         : Open-shell DLPNO
   Barbara Sandhoefer     : DKH picture change effects
   Avijit Sen             : IP-ROCIS
   Kantharuban Sivalingam : CASSCF convergence, NEVPT2, FIC-MRCI
   Bernardo de Souza      : ESD, SOC TD-DFT
   Georgi Stoychev        : AutoAux, RI-MP2 NMR
   Willem Van den Heuvel  : Paramagnetic NMR
   Boris Wezisla          : Elementary symmetry handling
   Frank Wennmohs         : Technical directorship


 We gratefully acknowledge several colleagues who have allowed us to
 interface, adapt or use parts of their codes:
   Stefan Grimme, W. Hujo, H. Kruse,             : VdW corrections, initial TS optimization,
                  C. Bannwarth                     DFT functionals, gCP, sTDA/sTD-DF
   Ed Valeev                                     : LibInt (2-el integral package), F12 methods
   Garnet Chan, S. Sharma, J. Yang, R. Olivares  : DMRG
   Ulf Ekstrom                                   : XCFun DFT Library
   Mihaly Kallay                                 : mrcc  (arbitrary order and MRCC methods)
   Andreas Klamt, Michael Diedenhofen            : otool_cosmo (COSMO solvation model)
   Jiri Pittner, Ondrej Demel                    : Mk-CCSD
   Frank Weinhold                                : gennbo (NPA and NBO analysis)
   Christopher J. Cramer and Donald G. Truhlar   : smd solvation model
   Lars Goerigk                                  : TD-DFT with DH, B97 family of functionals
   V. Asgeirsson, H. Jonsson                     : NEB implementation
   FAccTs GmbH                                   : IRC, NEB, NEB-TS, Multilevel


 Your calculation uses the libint2 library for the computation of 2-el integrals
 For citations please refer to: http://libint.valeyev.net

 This ORCA versions uses:
   CBLAS   interface :  Fast vector & matrix operations
   LAPACKE interface :  Fast linear algebra routines
   SCALAPACK package :  Parallel linear algebra routines


Your calculation utilizes the atom-pairwise dispersion correction
with the Becke-Johnson damping scheme (D3BJ)
Cite in your paper:
S.Grimme, S.Ehrlich, L.Goerigk, J Comput Chem, (2011), 32, 1456–1465 
S.Grimme, J.Antony, S.Ehrlich and H.Krieg, J.Chem.Phys., 132, (2010), 154104 
   

----- Orbital basis set information -----
Your calculation utilizes the basis: def2-SVP
   F. Weigend and R. Ahlrichs, Phys. Chem. Chem. Phys. 7, 3297 (2005).

----- AuxJ basis set information -----
Your calculation utilizes the auxiliary basis: def2/J
   F. Weigend, Phys. Chem. Chem. Phys. 8, 1057 (2006).

================================================================================
                                        WARNINGS
                       Please study these warnings very carefully!
================================================================================


WARNING: Geometry Optimization
  ===> : Switching off AutoStart
         For restart on a previous wavefunction, please use MOREAD

INFO   : the flag for use of LIBINT has been found!

================================================================================
                                       INPUT FILE
================================================================================
NAME = get_template_ts_guess_breaking_bonds_TS_orca_opt.inp
|  1> ! OptTS Freq PBE0 RIJCOSX D3BJ def2-SVP def2/J PAL8
|  2> %geom
|  3> Calc_Hess true
|  4> Recalc_Hess 40
|  5> Trust 0.2
|  6> MaxIter 100
|  7> end
|  8> %geom
|  9> modify_internal
| 10> { B 2 7 A } end
| 11> end
| 12> %geom
| 13> modify_internal
| 14> { B 3 4 A } end
| 15> end
| 16> %geom MaxIter 100 end
| 17> %scf 
| 18> maxiter 250 
| 19> end
| 20> % maxcore 4000
| 21> *xyz 0 1
| 22> O   0.98381000 -2.91501800 -0.56116200 
| 23> C   1.05856300 -1.71743700 -0.36090600 
| 24> C   0.33227700 -0.72219200 -1.17550900 
| 25> C   0.64776200  0.63532300 -1.09192000 
| 26> C  -1.14322800  1.44083700  0.03007400 
| 27> C  -0.90618900  0.86511900  1.28009900 
| 28> C  -1.20001800 -0.50657300  1.20738500 
| 29> C  -1.61004200 -0.81206700 -0.09373700 
| 30> C  -1.99755200  0.48576200 -0.74181500 
| 31> C   1.90772800 -1.17541500  0.73085100 
| 32> C   2.18985200  0.13489600  0.82937100 
| 33> C   1.66591900  1.12735800 -0.14417600 
| 34> O   2.06241500  2.27780000 -0.14186000 
| 35> H  -0.12840600 -1.13231900 -2.07758600 
| 36> H   0.43835200  1.31357200 -1.92217500 
| 37> H  -1.06483400  2.50661200 -0.19408500 
| 38> H  -0.45240500  1.37365300  2.13237400 
| 39> H  -1.02037900 -1.23500400  1.99911000 
| 40> H  -1.98084400 -1.78789100 -0.41350300 
| 41> H  -1.91612500  0.53289200 -1.83530400 
| 42> H  -3.05268900  0.69398000 -0.47034500 
| 43> H   2.33127500 -1.91730000  1.41361400 
| 44> H   2.85465900  0.53361200  1.60130600 
| 45> *
| 46> 
| 47>                          ****END OF INPUT****
================================================================================

                       *****************************
                       * Geometry Optimization Run *
                       *****************************

Geometry optimization settings:
Update method            Update   .... Bofill
Choice of coordinates    CoordSys .... Z-matrix Internals
Initial Hessian          InHess   .... Almoef's Model

Convergence Tolerances:
Energy Change            TolE     ....  5.0000e-06 Eh
Max. Gradient            TolMAXG  ....  3.0000e-04 Eh/bohr
RMS Gradient             TolRMSG  ....  1.0000e-04 Eh/bohr
Max. Displacement        TolMAXD  ....  4.0000e-03 bohr
RMS Displacement         TolRMSD  ....  2.0000e-03 bohr

------------------------------------------------------------------------------
                        ORCA OPTIMIZATION COORDINATE SETUP
------------------------------------------------------------------------------

The optimization will be done in new redundant internal coordinates
Making redundant internal coordinates   ...  (new redundants) Bond   7,  2 is already included
Bond   4,  3 is already included
done
Following TS mode number                ...     0
Evaluating the initial hessian          ...  (Is done on the fly) done
Evaluating the coordinates              ...  done
Calculating the B-matrix                .... done
Calculating the G-matrix                .... done
Diagonalizing the G-matrix              .... done
The first mode is                       ....  489
The number of degrees of freedom        ....   63

    -----------------------------------------------------------------
                    Redundant Internal Coordinates


    -----------------------------------------------------------------
         Definition                    Initial Value    d2E/dq (diagonal element)
    -----------------------------------------------------------------
      1. B(C   1,O   0)                  1.2165         0.000000   
      2. B(C   2,C   1)                  1.4770         0.000000   
      3. B(C   3,C   2)                  1.3962         0.000000   
      4. B(C   4,C   3)                  2.2617         0.000000   
      5. B(C   4,C   2)                  2.8826         0.000000   
      6. B(C   5,C   4)                  1.3965         0.000000   
      7. B(C   5,C   3)                  2.8450         0.000000   
      8. B(C   6,C   5)                  1.4047         0.000000   
      9. B(C   6,C   2)                  2.8412         0.000000   
     10. B(C   7,C   6)                  1.3980         0.000000   
     11. B(C   7,C   1)                  2.8306         0.000000   
     12. B(C   7,C   2)                  2.2251         0.000000   
     13. B(C   7,C   3)                  2.8616         0.000000   
     14. B(C   8,C   4)                  1.4959         0.000000   
     15. B(C   8,C   2)                  2.6600         0.000000   
     16. B(C   8,C   7)                  1.5015         0.000000   
     17. B(C   8,C   3)                  2.6726         0.000000   
     18. B(C   9,C   1)                  1.4855         0.000000   
     19. B(C  10,C   9)                  1.3440         0.000000   
     20. B(C  11,C  10)                  1.4857         0.000000   
     21. B(C  11,C   3)                  1.4755         0.000000   
     22. B(C  11,C   4)                  2.8319         0.000000   
     23. B(O  12,C  11)                  1.2169         0.000000   
     24. B(H  13,C   2)                  1.0928         0.000000   
     25. B(H  13,C   8)                  2.8100         0.000000   
     26. B(H  13,C   7)                  2.4967         0.000000   
     27. B(H  14,C   3)                  1.0923         0.000000   
     28. B(H  14,C   4)                  2.5157         0.000000   
     29. B(H  14,C   8)                  2.8306         0.000000   
     30. B(H  15,H  14)                  2.5825         0.000000   
     31. B(H  15,C   3)                  2.6909         0.000000   
     32. B(H  15,C   4)                  1.0919         0.000000   
     33. B(H  16,C   5)                  1.0913         0.000000   
     34. B(H  17,C   6)                  1.0907         0.000000   
     35. B(H  18,C   2)                  2.6584         0.000000   
     36. B(H  18,H  13)                  2.5750         0.000000   
     37. B(H  18,C   7)                  1.0918         0.000000   
     38. B(H  19,C   2)                  2.6582         0.000000   
     39. B(H  19,H  14)                  2.4820         0.000000   
     40. B(H  19,H  13)                  2.4551         0.000000   
     41. B(H  19,C   8)                  1.0975         0.000000   
     42. B(H  19,C   3)                  2.6714         0.000000   
     43. B(H  20,C   8)                  1.1092         0.000000   
     44. B(H  21,C   9)                  1.0936         0.000000   
     45. B(H  22,C  10)                  1.0940         0.000000   
     46. A(O   0,C   1,C   7)          105.8117         0.000000   
     47. A(O   0,C   1,C   9)          121.0173         0.000000   
     48. A(O   0,C   1,C   2)          122.8426         0.000000   
     49. A(C   2,C   1,C   9)          116.1391         0.000000   
     50. A(C   7,C   1,C   9)          110.6608         0.000000   
     51. A(C   2,C   1,C   7)           51.1679         0.000000   
     52. A(C   4,C   2,H  13)          114.2725         0.000000   
     53. A(C   6,C   2,H  13)          119.5675         0.000000   
     54. A(C   3,C   2,C   7)          101.9708         0.000000   
     55. A(C   4,C   2,C   6)           46.8615         0.000000   
     56. A(C   1,C   2,C   3)          120.7320         0.000000   
     57. A(C   1,C   2,C   8)          130.2988         0.000000   
     58. A(C   7,C   2,C   8)           34.3593         0.000000   
     59. A(C   3,C   2,C   6)           89.8776         0.000000   
     60. A(C   7,C   2,H  13)           91.0413         0.000000   
     61. A(C   3,C   2,H  13)          120.6362         0.000000   
     62. A(C   1,C   2,H  13)          114.1846         0.000000   
     63. A(C   4,C   2,C   8)           30.9851         0.000000   
     64. A(C   1,C   2,C   4)          121.7800         0.000000   
     65. A(C   1,C   2,C   6)           81.5919         0.000000   
     66. A(C   1,C   2,C   7)           97.6943         0.000000   
     67. A(C   8,C   2,H  13)           86.3179         0.000000   
     68. A(C   4,C   2,C   7)           51.6948         0.000000   
     69. A(C   6,C   2,C   7)           28.9009         0.000000   
     70. A(C   3,C   2,C   8)           75.3218         0.000000   
     71. A(C   3,C   2,C   4)           50.2851         0.000000   
     72. A(C   6,C   2,C   8)           49.9406         0.000000   
     73. A(C   4,C   3,C  11)           96.2588         0.000000   
     74. A(C   7,C   3,H  14)          115.3358         0.000000   
     75. A(C   7,C   3,C  11)          119.2792         0.000000   
     76. A(C   2,C   3,C   8)           74.3224         0.000000   
     77. A(C   2,C   3,C   5)           90.2882         0.000000   
     78. A(C   5,C   3,C   7)           47.0845         0.000000   
     79. A(C   4,C   3,C   7)           51.8530         0.000000   
     80. A(C   4,C   3,C   5)           28.9673         0.000000   
     81. A(C   5,C   3,H  14)          118.6100         0.000000   
     82. A(C   5,C   3,C  11)           79.3055         0.000000   
     83. A(C   4,C   3,H  14)           90.2354         0.000000   
     84. A(C  11,C   3,H  14)          114.4220         0.000000   
     85. A(C   8,C   3,C  11)          128.1369         0.000000   
     86. A(C   2,C   3,C   4)          101.3647         0.000000   
     87. A(C   2,C   3,H  14)          120.9901         0.000000   
     88. A(C   4,C   3,C   8)           34.0191         0.000000   
     89. A(C   2,C   3,C   7)           49.5206         0.000000   
     90. A(C   2,C   3,C  11)          121.2401         0.000000   
     91. A(C   8,C   3,H  14)           86.8221         0.000000   
     92. A(C   7,C   3,C   8)           31.2466         0.000000   
     93. A(C   5,C   3,C   8)           49.8093         0.000000   
     94. A(C   3,C   4,H  15)          100.8905         0.000000   
     95. A(C   3,C   4,C  11)           31.1913         0.000000   
     96. A(C   2,C   4,C  11)           51.9357         0.000000   
     97. A(C   2,C   4,C   3)           28.3503         0.000000   
     98. A(C   5,C   4,C  11)           80.8552         0.000000   
     99. A(C   2,C   4,H  15)          127.5758         0.000000   
    100. A(C   2,C   4,C   8)           66.2622         0.000000   
    101. A(C  11,C   4,H  15)           91.3864         0.000000   
    102. A(C   8,C   4,H  15)          123.9339         0.000000   
    103. A(C   5,C   4,C   8)          107.1936         0.000000   
    104. A(C   5,C   4,H  15)          125.0271         0.000000   
    105. A(C   2,C   4,C   5)           88.7468         0.000000   
    106. A(C   3,C   4,C   8)           88.2166         0.000000   
    107. A(C   3,C   4,C   5)           99.3701         0.000000   
    108. A(C   8,C   4,C  11)          117.6503         0.000000   
    109. A(C   6,C   5,H  16)          125.6236         0.000000   
    110. A(C   4,C   5,C   6)          108.7072         0.000000   
    111. A(C   4,C   5,H  16)          125.2778         0.000000   
    112. A(C   3,C   5,H  16)          117.4942         0.000000   
    113. A(C   3,C   5,C   6)           89.5542         0.000000   
    114. A(C   3,C   5,C   4)           51.6626         0.000000   
    115. A(C   2,C   6,H  17)          117.9866         0.000000   
    116. A(C   2,C   6,C   5)           90.2699         0.000000   
    117. A(C   7,C   6,H  17)          125.3054         0.000000   
    118. A(C   5,C   6,H  17)          125.4589         0.000000   
    119. A(C   2,C   6,C   7)           50.2842         0.000000   
    120. A(C   5,C   6,C   7)          108.8396         0.000000   
    121. A(C   1,C   7,C   2)           31.1378         0.000000   
    122. A(C   2,C   7,H  18)          100.9634         0.000000   
    123. A(C   2,C   7,C   8)           88.8844         0.000000   
    124. A(C   2,C   7,C   6)          100.8149         0.000000   
    125. A(C   8,C   7,H  18)          123.9510         0.000000   
    126. A(C   6,C   7,C   8)          106.7696         0.000000   
    127. A(C   2,C   7,C   3)           28.5086         0.000000   
    128. A(C   1,C   7,C   3)           52.0501         0.000000   
    129. A(C   3,C   7,H  18)          128.1611         0.000000   
    130. A(C   3,C   7,C   8)           67.4114         0.000000   
    131. A(C   3,C   7,C   6)           89.0094         0.000000   
    132. A(C   1,C   7,H  18)           90.3821         0.000000   
    133. A(C   1,C   7,C   8)          118.6219         0.000000   
    134. A(C   1,C   7,C   6)           83.1790         0.000000   
    135. A(C   6,C   7,H  18)          124.5775         0.000000   
    136. A(C   7,C   8,H  20)          107.5847         0.000000   
    137. A(C   4,C   8,H  20)          107.2847         0.000000   
    138. A(C   7,C   8,H  19)          116.6153         0.000000   
    139. A(C   4,C   8,H  19)          116.3787         0.000000   
    140. A(C   4,C   8,C   7)          100.4712         0.000000   
    141. A(C   2,C   8,C   3)           30.3558         0.000000   
    142. A(C   3,C   8,H  20)          164.3864         0.000000   
    143. A(C   3,C   8,H  19)           78.0912         0.000000   
    144. A(C   3,C   8,C   7)           81.3420         0.000000   
    145. A(C   3,C   8,C   4)           57.7643         0.000000   
    146. A(C   2,C   8,H  20)          163.4029         0.000000   
    147. A(C   2,C   8,H  19)           77.9990         0.000000   
    148. A(C   2,C   8,C   7)           56.7563         0.000000   
    149. A(C   2,C   8,C   4)           82.7527         0.000000   
    150. A(H  19,C   8,H  20)          107.8395         0.000000   
    151. A(C   1,C   9,C  10)          121.9787         0.000000   
    152. A(C  10,C   9,H  21)          122.2991         0.000000   
    153. A(C   1,C   9,H  21)          115.6392         0.000000   
    154. A(C   9,C  10,C  11)          121.9531         0.000000   
    155. A(C  11,C  10,H  22)          115.6716         0.000000   
    156. A(C   9,C  10,H  22)          122.3186         0.000000   
    157. A(C  10,C  11,O  12)          121.0243         0.000000   
    158. A(C   4,C  11,O  12)          102.6177         0.000000   
    159. A(C   4,C  11,C  10)          112.5468         0.000000   
    160. A(C   3,C  11,C   4)           52.5499         0.000000   
    161. A(C   3,C  11,O  12)          122.7757         0.000000   
    162. A(C   3,C  11,C  10)          116.1995         0.000000   
    163. D(H  13,C   2,C   1,O   0)    -10.5608         0.000000   
    164. D(C   8,C   2,C   1,C   9)    -84.1505         0.000000   
    165. D(C   4,C   2,C   1,C   9)    -46.9872         0.000000   
    166. D(H  13,C   2,C   1,C   7)    -94.6332         0.000000   
    167. D(C   7,C   2,C   1,C   9)    -96.2878         0.000000   
    168. D(C   4,C   2,C   1,C   7)     49.3005         0.000000   
    169. D(C   8,C   2,C   1,O   0)     96.2097         0.000000   
    170. D(C   6,C   2,C   1,C   9)    -72.2081         0.000000   
    171. D(C   3,C   2,C   1,O   0)   -167.0339         0.000000   
    172. D(C   6,C   2,C   1,C   7)     24.0796         0.000000   
    173. D(C   4,C   2,C   1,O   0)    133.3730         0.000000   
    174. D(C   7,C   2,C   1,O   0)     84.0724         0.000000   
    175. D(C   6,C   2,C   1,O   0)    108.1520         0.000000   
    176. D(C   3,C   2,C   1,C   9)     12.6059         0.000000   
    177. D(C   8,C   2,C   1,C   7)     12.1373         0.000000   
    178. D(H  13,C   2,C   1,C   9)    169.0790         0.000000   
    179. D(C   3,C   2,C   1,C   7)    108.8937         0.000000   
    180. D(H  14,C   3,C   2,C   6)   -124.7027         0.000000   
    181. D(C   7,C   3,C   2,C   6)    -26.4436         0.000000   
    182. D(C   8,C   3,C   2,C   1)   -128.4697         0.000000   
    183. D(C  11,C   3,C   2,C   8)    125.4459         0.000000   
    184. D(C   8,C   3,C   2,H  13)     76.5681         0.000000   
    185. D(H  14,C   3,C   2,C   1)    155.1656         0.000000   
    186. D(C   5,C   3,C   2,C   6)     -0.5356         0.000000   
    187. D(C   7,C   3,C   2,C   4)      1.0431         0.000000   
    188. D(H  14,C   3,C   2,C   7)    -98.2591         0.000000   
    189. D(C   4,C   3,C   2,C   8)     20.8514         0.000000   
    190. D(C  11,C   3,C   2,C   7)    103.5514         0.000000   
    191. D(C   8,C   3,C   2,C   7)    -21.8944         0.000000   
    192. D(C   5,C   3,C   2,C   7)     25.9080         0.000000   
    193. D(C   4,C   3,C   2,C   7)     -1.0431         0.000000   
    194. D(C   5,C   3,C   2,H  13)    124.3705         0.000000   
    195. D(C   8,C   3,C   2,C   6)    -48.3380         0.000000   
    196. D(C  11,C   3,C   2,C   4)    104.5945         0.000000   
    197. D(C   5,C   3,C   2,C   1)    -80.6673         0.000000   
    198. D(C   8,C   3,C   2,C   4)    -20.8514         0.000000   
    199. D(C  11,C   3,C   2,C   1)     -3.0239         0.000000   
    200. D(C   5,C   3,C   2,C   8)     47.8024         0.000000   
    201. D(H  14,C   3,C   2,C   4)    -97.2160         0.000000   
    202. D(C   7,C   3,C   2,H  13)     98.4625         0.000000   
    203. D(C   7,C   3,C   2,C   1)   -106.5753         0.000000   
    204. D(C   5,C   3,C   2,C   4)     26.9510         0.000000   
    205. D(C   4,C   3,C   2,H  13)     97.4194         0.000000   
    206. D(C  11,C   3,C   2,C   6)     77.1079         0.000000   
    207. D(H  14,C   3,C   2,H  13)      0.2034         0.000000   
    208. D(C  11,C   3,C   2,H  13)   -157.9861         0.000000   
    209. D(C   4,C   3,C   2,C   1)   -107.6184         0.000000   
    210. D(C   4,C   3,C   2,C   6)    -27.4866         0.000000   
    211. D(H  14,C   3,C   2,C   8)    -76.3647         0.000000   
    212. D(C   7,C   3,C   2,C   8)     21.8944         0.000000   
    213. D(H  15,C   4,C   3,H  14)    -40.2841         0.000000   
    214. D(H  15,C   4,C   2,C   8)   -115.5369         0.000000   
    215. D(C   2,C   4,C   3,C   5)    -69.3598         0.000000   
    216. D(C   8,C   4,C   2,C   3)    138.0225         0.000000   
    217. D(H  15,C   4,C   3,C  11)     74.3226         0.000000   
    218. D(H  15,C   4,C   3,C   7)   -163.0298         0.000000   
    219. D(C   5,C   4,C   2,C   7)     66.1499         0.000000   
    220. D(C  11,C   4,C   3,C   8)    161.4306         0.000000   
    221. D(C   2,C   4,C   3,C  11)   -123.6565         0.000000   
    222. D(C  11,C   4,C   3,C   7)    122.6476         0.000000   
    223. D(C  11,C   4,C   3,C   2)    123.6565         0.000000   
    224. D(C   2,C   4,C   3,C   7)     -1.0089         0.000000   
    225. D(C   8,C   4,C   2,C   7)    -43.2779         0.000000   
    226. D(C  11,C   4,C   3,C   5)     54.2967         0.000000   
    227. D(C   2,C   4,C   3,H  14)    121.7368         0.000000   
    228. D(C  11,C   4,C   3,H  14)   -114.6067         0.000000   
    229. D(C   5,C   4,C   3,H  14)   -168.9034         0.000000   
    230. D(H  15,C   4,C   3,C   5)    128.6193         0.000000   
    231. D(H  15,C   4,C   3,C   8)   -124.2468         0.000000   
    232. D(C   5,C   4,C   2,C   6)     28.2151         0.000000   
    233. D(C   8,C   4,C   3,C   7)    -38.7830         0.000000   
    234. D(H  15,C   4,C   3,C   2)   -162.0209         0.000000   
    235. D(C   8,C   4,C   2,C   1)   -116.4997         0.000000   
    236. D(C   8,C   4,C   3,H  14)     83.9627         0.000000   
    237. D(H  15,C   4,C   2,C   6)    163.2504         0.000000   
    238. D(H  15,C   4,C   2,C   3)     22.4856         0.000000   
    239. D(C   8,C   4,C   2,H  13)     27.4052         0.000000   
    240. D(C   3,C   4,C   2,H  13)   -110.6172         0.000000   
    241. D(C   5,C   4,C   3,C  11)    -54.2967         0.000000   
    242. D(C   5,C   4,C   2,C   3)   -112.5497         0.000000   
    243. D(H  15,C   4,C   2,C   1)    127.9634         0.000000   
    244. D(C   5,C   4,C   3,C   8)    107.1339         0.000000   
    245. D(C   8,C   4,C   3,C   2)    -37.7741         0.000000   
    246. D(C   8,C   4,C   3,C  11)   -161.4306         0.000000   
    247. D(C   3,C   4,C   2,C   6)    140.7648         0.000000   
    248. D(C   8,C   4,C   3,C   5)   -107.1339         0.000000   
    249. D(C  11,C   4,C   2,C   6)    107.5668         0.000000   
    250. D(C  11,C   4,C   2,C   3)    -33.1980         0.000000   
    251. D(C   5,C   4,C   2,C   8)    109.4278         0.000000   
    252. D(C  11,C   4,C   2,H  13)   -143.8153         0.000000   
    253. D(C   3,C   4,C   2,C   8)   -138.0225         0.000000   
    254. D(C   5,C   4,C   2,H  13)    136.8330         0.000000   
    255. D(C  11,C   4,C   2,C   1)     72.2798         0.000000   
    256. D(C  11,C   4,C   2,C   8)   -171.2205         0.000000   
    257. D(C   5,C   4,C   3,C   2)     69.3598         0.000000   
    258. D(C   3,C   4,C   2,C   7)    178.6996         0.000000   
    259. D(C  11,C   4,C   2,C   7)    145.5016         0.000000   
    260. D(C   5,C   4,C   2,C   1)     -7.0720         0.000000   
    261. D(C   8,C   4,C   2,C   6)    -81.2127         0.000000   
    262. D(C   3,C   4,C   2,C   1)    105.4778         0.000000   
    263. D(H  15,C   4,C   2,C   7)   -158.8148         0.000000   
    264. D(C   2,C   4,C   3,C   8)     37.7741         0.000000   
    265. D(C   5,C   4,C   3,C   7)     68.3509         0.000000   
    266. D(H  15,C   4,C   2,H  13)    -88.1316         0.000000   
    267. D(H  16,C   5,C   4,C   8)   -169.6721         0.000000   
    268. D(C   6,C   5,C   4,C   2)    -47.4532         0.000000   
    269. D(C   6,C   5,C   4,C  11)    -99.0559         0.000000   
    270. D(C   6,C   5,C   4,H  15)    175.6995         0.000000   
    271. D(C   6,C   5,C   4,C   8)     17.1901         0.000000   
    272. D(H  16,C   5,C   3,C   7)    158.8081         0.000000   
    273. D(H  16,C   5,C   3,C   2)    131.8204         0.000000   
    274. D(C   6,C   5,C   3,C   4)    114.5237         0.000000   
    275. D(C   6,C   5,C   3,H  14)    127.1875         0.000000   
    276. D(C   4,C   5,C   3,C   7)    -86.4525         0.000000   
    277. D(C   4,C   5,C   3,C  11)    124.7669         0.000000   
    278. D(C   4,C   5,C   3,H  14)     12.6638         0.000000   
    279. D(C   6,C   5,C   3,C  11)   -120.7094         0.000000   
    280. D(C   6,C   5,C   3,C   2)      1.0834         0.000000   
    281. D(C   6,C   5,C   3,C   7)     28.0711         0.000000   
    282. D(C   4,C   5,C   3,C   8)    -44.4174         0.000000   
    283. D(C   4,C   5,C   3,C   2)   -113.4402         0.000000   
    284. D(H  16,C   5,C   3,H  14)   -102.0755         0.000000   
    285. D(H  16,C   5,C   3,C  11)     10.0276         0.000000   
    286. D(C   6,C   5,C   4,C   3)    -73.8437         0.000000   
    287. D(C   3,C   5,C   4,C  11)    -25.2122         0.000000   
    288. D(C   6,C   5,C   3,C   8)     70.1063         0.000000   
    289. D(C   3,C   5,C   4,C   2)     26.3905         0.000000   
    290. D(C   3,C   5,C   4,H  15)   -110.4568         0.000000   
    291. D(C   3,C   5,C   4,C   8)     91.0338         0.000000   
    292. D(H  16,C   5,C   4,C  11)     74.0819         0.000000   
    293. D(H  16,C   5,C   4,C   3)     99.2941         0.000000   
    294. D(H  16,C   5,C   4,C   2)    125.6846         0.000000   
    295. D(H  16,C   5,C   4,H  15)    -11.1627         0.000000   
    296. D(H  16,C   5,C   3,C   8)   -159.1567         0.000000   
    297. D(H  16,C   5,C   3,C   4)   -114.7393         0.000000   
    298. D(C   2,C   6,C   5,C   3)     -0.5324         0.000000   
    299. D(C   2,C   6,C   5,H  16)   -124.7532         0.000000   
    300. D(C   5,C   6,C   2,C   8)    -69.6908         0.000000   
    301. D(H  17,C   6,C   5,C   4)    173.7687         0.000000   
    302. D(C   7,C   6,C   2,C   8)     44.8847         0.000000   
    303. D(H  17,C   6,C   2,C   8)    159.0510         0.000000   
    304. D(H  17,C   6,C   5,H  16)      0.6606         0.000000   
    305. D(H  17,C   6,C   2,C   4)   -159.2872         0.000000   
    306. D(H  17,C   6,C   2,C   3)   -130.1734         0.000000   
    307. D(H  17,C   6,C   2,H  13)    104.0468         0.000000   
    308. D(H  17,C   6,C   2,C   1)     -9.0494         0.000000   
    309. D(C   7,C   6,C   5,C   4)      0.6965         0.000000   
    310. D(H  17,C   6,C   2,C   7)    114.1663         0.000000   
    311. D(C   7,C   6,C   2,C   4)     86.5465         0.000000   
    312. D(C   7,C   6,C   2,H  13)    -10.1195         0.000000   
    313. D(C   7,C   6,C   2,C   3)    115.6603         0.000000   
    314. D(C   7,C   6,C   2,C   1)   -123.2157         0.000000   
    315. D(H  17,C   6,C   5,C   3)    124.8815         0.000000   
    316. D(C   2,C   6,C   5,C   4)     48.3548         0.000000   
    317. D(C   5,C   6,C   2,C   7)   -114.5754         0.000000   
    318. D(C   7,C   6,C   5,C   3)    -48.1907         0.000000   
    319. D(C   5,C   6,C   2,C   4)    -28.0289         0.000000   
    320. D(C   5,C   6,C   2,H  13)   -124.6950         0.000000   
    321. D(C   5,C   6,C   2,C   3)      1.0848         0.000000   
    322. D(C   5,C   6,C   2,C   1)    122.2089         0.000000   
    323. D(C   7,C   6,C   5,H  16)   -172.4116         0.000000   
    324. D(C   3,C   7,C   6,C   2)    -26.0942         0.000000   
    325. D(C   3,C   7,C   6,H  17)   -125.2583         0.000000   
    326. D(C   3,C   7,C   6,C   5)     47.8272         0.000000   
    327. D(C   2,C   7,C   6,H  17)    -99.1641         0.000000   
    328. D(C   1,C   7,C   6,C   2)     25.7807         0.000000   
    329. D(C   1,C   7,C   6,H  17)    -73.3834         0.000000   
    330. D(C   1,C   7,C   6,C   5)     99.7021         0.000000   
    331. D(H  18,C   7,C   6,H  17)     12.3562         0.000000   
    332. D(H  18,C   7,C   6,C   5)   -174.5583         0.000000   
    333. D(C   8,C   7,C   6,C   2)    -92.1126         0.000000   
    334. D(C   8,C   7,C   6,C   5)    -18.1912         0.000000   
    335. D(C   2,C   7,C   3,C   8)    136.2009         0.000000   
    336. D(C   2,C   7,C   3,C   5)   -143.3736         0.000000   
    337. D(C   2,C   7,C   3,C   4)    178.6996         0.000000   
    338. D(C   2,C   7,C   3,H  14)    110.1742         0.000000   
    339. D(C   2,C   7,C   3,C  11)   -107.6475         0.000000   
    340. D(C   1,C   7,C   3,C   8)    169.2361         0.000000   
    341. D(C   1,C   7,C   3,C   4)   -148.2651         0.000000   
    342. D(C   1,C   7,C   3,H  14)    143.2094         0.000000   
    343. D(C   1,C   7,C   3,C  11)    -74.6122         0.000000   
    344. D(H  18,C   7,C   3,C   8)    116.2560         0.000000   
    345. D(H  18,C   7,C   3,C   5)   -163.3185         0.000000   
    346. D(H  18,C   7,C   3,C   4)    158.7547         0.000000   
    347. D(H  18,C   7,C   3,C  11)   -127.5924         0.000000   
    348. D(H  18,C   7,C   3,C   2)    -19.9449         0.000000   
    349. D(C   8,C   7,C   3,C   5)     80.4256         0.000000   
    350. D(C   8,C   7,C   3,C   4)     42.4988         0.000000   
    351. D(C   8,C   7,C   3,H  14)    -26.0267         0.000000   
    352. D(C   8,C   7,C   3,C  11)    116.1517         0.000000   
    353. D(C   8,C   7,C   3,C   2)   -136.2009         0.000000   
    354. D(C   6,C   7,C   3,C   5)    -28.2215         0.000000   
    355. D(C   6,C   7,C   3,C   4)    -66.1483         0.000000   
    356. D(C   6,C   7,C   3,H  14)   -134.6737         0.000000   
    357. D(C   6,C   7,C   3,C   2)    115.1521         0.000000   
    358. D(C   3,C   7,C   2,C   8)    -39.7290         0.000000   
    359. D(C   3,C   7,C   2,C   6)     67.1335         0.000000   
    360. D(C   3,C   7,C   2,C   4)     -1.0225         0.000000   
    361. D(C   3,C   7,C   2,H  13)   -121.6584         0.000000   
    362. D(C   3,C   7,C   2,C   1)    123.7641         0.000000   
    363. D(C   1,C   7,C   2,C   8)   -163.4931         0.000000   
    364. D(C   6,C   7,C   3,C  11)      7.5046         0.000000   
    365. D(C   1,C   7,C   2,C   4)   -124.7866         0.000000   
    366. D(C   1,C   7,C   2,H  13)    114.5775         0.000000   
    367. D(C   1,C   7,C   2,C   3)   -123.7641         0.000000   
    368. D(C   6,C   7,C   3,C   8)   -108.6470         0.000000   
    369. D(H  18,C   7,C   2,H  13)     42.4870         0.000000   
    370. D(H  18,C   7,C   2,C   3)    164.1454         0.000000   
    371. D(H  18,C   7,C   2,C   1)    -72.0906         0.000000   
    372. D(C   8,C   7,C   2,C   6)    106.8626         0.000000   
    373. D(H  18,C   7,C   2,C   4)    163.1229         0.000000   
    374. D(C   8,C   7,C   2,C   4)     38.7066         0.000000   
    375. D(C   8,C   7,C   2,H  13)    -81.9294         0.000000   
    376. D(H  18,C   7,C   3,H  14)     90.2293         0.000000   
    377. D(C   8,C   7,C   2,C   3)     39.7290         0.000000   
    378. D(H  18,C   7,C   2,C   8)    124.4163         0.000000   
    379. D(C   8,C   7,C   2,C   1)    163.4931         0.000000   
    380. D(C   1,C   7,C   3,C   2)     33.0352         0.000000   
    381. D(C   6,C   7,C   2,C   8)   -106.8626         0.000000   
    382. D(C   6,C   7,C   2,C   4)    -68.1560         0.000000   
    383. D(C   6,C   7,C   2,H  13)    171.2081         0.000000   
    384. D(C   1,C   7,C   3,C   5)   -110.3384         0.000000   
    385. D(C   6,C   7,C   2,C   3)    -67.1335         0.000000   
    386. D(C   6,C   7,C   2,C   1)     56.6305         0.000000   
    387. D(C   1,C   7,C   2,C   6)    -56.6305         0.000000   
    388. D(H  18,C   7,C   2,C   6)   -128.7211         0.000000   
    389. D(C   3,C   7,C   1,C   9)     77.2996         0.000000   
    390. D(C   3,C   7,C   1,C   2)    -30.2111         0.000000   
    391. D(C   3,C   7,C   1,O   0)   -149.9223         0.000000   
    392. D(C   8,C   7,C   6,H  17)    168.7233         0.000000   
    393. D(C   2,C   7,C   1,C   9)    107.5107         0.000000   
    394. D(H  18,C   7,C   1,O   0)     -8.8101         0.000000   
    395. D(C   6,C   7,C   1,C   9)    -16.7835         0.000000   
    396. D(H  18,C   7,C   6,C   2)    111.5203         0.000000   
    397. D(C   6,C   7,C   1,O   0)    115.9946         0.000000   
    398. D(C   6,C   7,C   1,C   2)   -124.2942         0.000000   
    399. D(C   8,C   7,C   1,C   9)     88.6285         0.000000   
    400. D(C   2,C   7,C   6,C   5)     73.9213         0.000000   
    401. D(C   8,C   7,C   1,C   2)    -18.8822         0.000000   
    402. D(H  18,C   7,C   1,C   2)    110.9011         0.000000   
    403. D(C   8,C   7,C   1,O   0)   -138.5934         0.000000   
    404. D(C   2,C   7,C   1,O   0)   -119.7112         0.000000   
    405. D(H  18,C   7,C   1,C   9)   -141.5882         0.000000   
    406. D(H  19,C   8,C   2,C   1)   -155.0559         0.000000   
    407. D(C   7,C   8,C   2,C   6)    -37.1783         0.000000   
    408. D(C   7,C   8,C   2,C   4)   -107.6023         0.000000   
    409. D(C   7,C   8,C   2,H  13)     97.2614         0.000000   
    410. D(C   7,C   8,C   2,C   3)   -139.7328         0.000000   
    411. D(C   7,C   8,C   2,C   1)    -21.6655         0.000000   
    412. D(C   4,C   8,C   2,C   7)    107.6023         0.000000   
    413. D(C   4,C   8,C   2,C   6)     70.4240         0.000000   
    414. D(C   4,C   8,C   2,H  13)   -155.1364         0.000000   
    415. D(C   4,C   8,C   2,C   3)    -32.1306         0.000000   
    416. D(H  19,C   8,C   2,C   3)     86.8767         0.000000   
    417. D(C   4,C   8,C   2,C   1)     85.9368         0.000000   
    418. D(C   3,C   8,C   7,C   1)     -9.6584         0.000000   
    419. D(C   3,C   8,C   7,H  18)   -121.7797         0.000000   
    420. D(C   3,C   8,C   7,C   6)     81.6672         0.000000   
    421. D(C   2,C   8,C   7,C   3)     19.2937         0.000000   
    422. D(C   2,C   8,C   7,C   1)      9.6353         0.000000   
    423. D(C   2,C   8,C   7,H  18)   -102.4860         0.000000   
    424. D(C   2,C   8,C   7,C   6)    100.9609         0.000000   
    425. D(H  20,C   8,C   7,C   2)    173.8768         0.000000   
    426. D(H  20,C   8,C   7,C   1)   -176.4879         0.000000   
    427. D(H  20,C   8,C   7,H  18)     71.3908         0.000000   
    428. D(H  19,C   8,C   7,C   3)     71.9542         0.000000   
    429. D(H  19,C   8,C   7,C   2)     52.6605         0.000000   
    430. D(H  19,C   8,C   7,C   1)     62.2958         0.000000   
    431. D(H  19,C   8,C   7,C   6)    153.6214         0.000000   
    432. D(C   4,C   8,C   7,C   3)    -54.7720         0.000000   
    433. D(C   4,C   8,C   7,C   2)    -74.0657         0.000000   
    434. D(C   4,C   8,C   7,C   1)    -64.4304         0.000000   
    435. D(C   4,C   8,C   7,H  18)   -176.5517         0.000000   
    436. D(C   4,C   8,C   7,C   6)     26.8952         0.000000   
    437. D(C   3,C   8,C   4,C  11)    -10.7305         0.000000   
    438. D(C   3,C   8,C   4,H  15)    101.9395         0.000000   
    439. D(C   3,C   8,C   4,C   5)    -99.2577         0.000000   
    440. D(C   2,C   8,C   4,C  11)      7.7970         0.000000   
    441. D(C   2,C   8,C   4,H  15)    120.4670         0.000000   
    442. D(C   2,C   8,C   4,C   5)    -80.7303         0.000000   
    443. D(H  20,C   8,C   4,C  11)    174.2489         0.000000   
    444. D(H  20,C   8,C   4,C   2)    166.4519         0.000000   
    445. D(H  20,C   8,C   4,H  15)    -73.0811         0.000000   
    446. D(H  20,C   8,C   4,C   5)     85.7217         0.000000   
    447. D(H  19,C   8,C   4,C  11)    -64.9236         0.000000   
    448. D(H  19,C   8,C   4,C   3)    -54.1931         0.000000   
    449. D(H  19,C   8,C   4,C   2)    -72.7206         0.000000   
    450. D(H  19,C   8,C   4,H  15)     47.7464         0.000000   
    451. D(C   7,C   8,C   4,C  11)     61.9603         0.000000   
    452. D(C   7,C   8,C   4,C   3)     72.6907         0.000000   
    453. D(C   7,C   8,C   4,C   2)     54.1633         0.000000   
    454. D(C   7,C   8,C   4,H  15)    174.6302         0.000000   
    455. D(C   7,C   8,C   4,C   5)    -26.5670         0.000000   
    456. D(C   2,C   8,C   3,C   7)    -33.1482         0.000000   
    457. D(C   2,C   8,C   3,C   5)   -104.1193         0.000000   
    458. D(C   2,C   8,C   3,C   4)   -141.4099         0.000000   
    459. D(C   2,C   8,C   3,H  14)    123.4489         0.000000   
    460. D(C   2,C   8,C   3,C  11)   -117.6775         0.000000   
    461. D(H  20,C   8,C   3,C   7)    126.1961         0.000000   
    462. D(H  20,C   8,C   3,C   5)     55.2249         0.000000   
    463. D(H  20,C   8,C   3,C   4)     17.9343         0.000000   
    464. D(H  19,C   8,C   4,C   5)   -153.4509         0.000000   
    465. D(H  20,C   8,C   3,H  14)    -77.2069         0.000000   
    466. D(H  20,C   8,C   3,C  11)     41.6667         0.000000   
    467. D(H  20,C   8,C   3,C   2)    159.3442         0.000000   
    468. D(H  19,C   8,C   3,C   7)   -119.6858         0.000000   
    469. D(H  19,C   8,C   3,C   5)    169.3431         0.000000   
    470. D(H  19,C   8,C   3,C   4)    132.0525         0.000000   
    471. D(H  19,C   8,C   3,H  14)     36.9112         0.000000   
    472. D(H  20,C   8,C   4,C   3)   -175.0206         0.000000   
    473. D(H  19,C   8,C   3,C  11)    155.7849         0.000000   
    474. D(H  19,C   8,C   3,C   2)    -86.5377         0.000000   
    475. D(C   7,C   8,C   3,C   5)    -70.9711         0.000000   
    476. D(C   2,C   8,C   4,C   3)     18.5275         0.000000   
    477. D(C   7,C   8,C   3,C   4)   -108.2617         0.000000   
    478. D(C   7,C   8,C   3,H  14)    156.5970         0.000000   
    479. D(C   7,C   8,C   3,C  11)    -84.5293         0.000000   
    480. D(C   3,C   8,C   4,C   2)    -18.5275         0.000000   
    481. D(C   7,C   8,C   3,C   2)     33.1482         0.000000   
    482. D(C   4,C   8,C   3,C   7)    108.2617         0.000000   
    483. D(C   4,C   8,C   3,C   5)     37.2906         0.000000   
    484. D(C   4,C   8,C   3,H  14)    -95.1412         0.000000   
    485. D(C   4,C   8,C   3,C  11)     23.7324         0.000000   
    486. D(C   4,C   8,C   3,C   2)    141.4099         0.000000   
    487. D(C   3,C   8,C   2,C   7)    139.7328         0.000000   
    488. D(H  19,C   8,C   7,H  18)    -49.8255         0.000000   
    489. D(C   3,C   8,C   2,C   6)    102.5546         0.000000   
    490. D(C   3,C   8,C   2,C   4)     32.1306         0.000000   
    491. D(C   3,C   8,C   2,H  13)   -123.0058         0.000000   
    492. D(H  20,C   8,C   7,C   6)    -85.1623         0.000000   
    493. D(C   3,C   8,C   2,C   1)    118.0674         0.000000   
    494. D(H  20,C   8,C   2,C   7)    -20.8535         0.000000   
    495. D(H  20,C   8,C   2,C   6)    -58.0318         0.000000   
    496. D(H  20,C   8,C   7,C   3)   -166.8295         0.000000   
    497. D(H  20,C   8,C   2,C   4)   -128.4558         0.000000   
    498. D(H  20,C   8,C   2,H  13)     76.4078         0.000000   
    499. D(H  20,C   8,C   2,C   3)   -160.5864         0.000000   
    500. D(H  20,C   8,C   2,C   1)    -42.5190         0.000000   
    501. D(H  19,C   8,C   2,C   7)   -133.3904         0.000000   
    502. D(H  19,C   8,C   2,C   6)   -170.5687         0.000000   
    503. D(H  19,C   8,C   2,C   4)    119.0073         0.000000   
    504. D(C   3,C   8,C   7,C   2)    -19.2937         0.000000   
    505. D(H  19,C   8,C   2,H  13)    -36.1291         0.000000   
    506. D(H  21,C   9,C   1,C   7)    116.0543         0.000000   
    507. D(H  21,C   9,C   1,C   2)    171.8993         0.000000   
    508. D(H  21,C   9,C   1,O   0)     -8.4538         0.000000   
    509. D(C  10,C   9,C   1,C   7)    -67.1883         0.000000   
    510. D(C  10,C   9,C   1,C   2)    -11.3433         0.000000   
    511. D(C  10,C   9,C   1,O   0)    168.3036         0.000000   
    512. D(H  22,C  10,C   9,H  21)     -0.3388         0.000000   
    513. D(H  22,C  10,C   9,C   1)   -176.8801         0.000000   
    514. D(C  11,C  10,C   9,H  21)    176.8050         0.000000   
    515. D(C  11,C  10,C   9,C   1)      0.2637         0.000000   
    516. D(C   4,C  11,C  10,H  22)   -115.0863         0.000000   
    517. D(C   4,C  11,C  10,C   9)     67.5917         0.000000   
    518. D(O  12,C  11,C  10,H  22)      6.6294         0.000000   
    519. D(O  12,C  11,C  10,C   9)   -170.6926         0.000000   
    520. D(C   3,C  11,C  10,H  22)   -173.1149         0.000000   
    521. D(C   3,C  11,C  10,C   9)      9.5631         0.000000   
    522. D(O  12,C  11,C   4,C   3)    121.8247         0.000000   
    523. D(O  12,C  11,C   4,H  15)     12.8629         0.000000   
    524. D(O  12,C  11,C   4,C   8)    142.8842         0.000000   
    525. D(O  12,C  11,C   4,C   5)   -112.4209         0.000000   
    526. D(C  10,C  11,C   4,C   2)    -76.3734         0.000000   
    527. D(C  10,C  11,C   4,H  15)    144.5301         0.000000   
    528. D(C  10,C  11,C   4,C   8)    -85.4487         0.000000   
    529. D(C   3,C  11,C   4,C   2)     30.1347         0.000000   
    530. D(C   3,C  11,C   4,H  15)   -108.9619         0.000000   
    531. D(C   3,C  11,C   4,C   8)     21.0594         0.000000   
    532. D(C   3,C  11,C   4,C   5)    125.7543         0.000000   
    533. D(C   4,C  11,C   3,C   8)    -13.0921         0.000000   
    534. D(C   4,C  11,C   3,C   7)    -49.3904         0.000000   
    535. D(C   4,C  11,C   3,C   5)    -23.5929         0.000000   
    536. D(C  10,C  11,C   4,C   5)     19.2463         0.000000   
    537. D(C   4,C  11,C   3,H  14)     93.1150         0.000000   
    538. D(C   4,C  11,C   3,C   2)   -107.3602         0.000000   
    539. D(O  12,C  11,C   3,C   8)    -93.5427         0.000000   
    540. D(C  10,C  11,C   4,C   3)   -106.5081         0.000000   
    541. D(O  12,C  11,C   3,C   7)   -129.8410         0.000000   
    542. D(O  12,C  11,C   3,C   5)   -104.0435         0.000000   
    543. D(O  12,C  11,C   3,C   4)    -80.4506         0.000000   
    544. D(O  12,C  11,C   4,C   2)    151.9595         0.000000   
    545. D(O  12,C  11,C   3,H  14)     12.6644         0.000000   
    546. D(O  12,C  11,C   3,C   2)    172.1892         0.000000   
    547. D(C  10,C  11,C   3,C   8)     86.1967         0.000000   
    548. D(C  10,C  11,C   3,C   7)     49.8984         0.000000   
    549. D(C  10,C  11,C   3,C   5)     75.6959         0.000000   
    550. D(C  10,C  11,C   3,C   4)     99.2888         0.000000   
    551. D(C  10,C  11,C   3,H  14)   -167.5962         0.000000   
    552. D(C  10,C  11,C   3,C   2)     -8.0714         0.000000   
    -----------------------------------------------------------------

Number of atoms                         .... 23
Number of degrees of freedom            .... 552

         *************************************************************
         *                GEOMETRY OPTIMIZATION CYCLE   1            *
         *************************************************************
---------------------------------
CARTESIAN COORDINATES (ANGSTROEM)
---------------------------------
  O      0.983810   -2.915018   -0.561162
  C      1.058563   -1.717437   -0.360906
  C      0.332277   -0.722192   -1.175509
  C      0.647762    0.635323   -1.091920
  C     -1.143228    1.440837    0.030074
  C     -0.906189    0.865119    1.280099
  C     -1.200018   -0.506573    1.207385
  C     -1.610042   -0.812067   -0.093737
  C     -1.997552    0.485762   -0.741815
  C      1.907728   -1.175415    0.730851
  C      2.189852    0.134896    0.829371
  C      1.665919    1.127358   -0.144176
  O      2.062415    2.277800   -0.141860
  H     -0.128406   -1.132319   -2.077586
  H      0.438352    1.313572   -1.922175
  H     -1.064834    2.506612   -0.194085
  H     -0.452405    1.373653    2.132374
  H     -1.020379   -1.235004    1.999110
  H     -1.980844   -1.787891   -0.413503
  H     -1.916125    0.532892   -1.835304
  H     -3.052689    0.693980   -0.470345
  H      2.331275   -1.917300    1.413614
  H      2.854659    0.533612    1.601306

----------------------------
CARTESIAN COORDINATES (A.U.)
----------------------------
  NO LB      ZA    FRAG     MASS         X           Y           Z
   0 O     8.0000    0    15.999    1.859131   -5.508586   -1.060442
   1 C     6.0000    0    12.011    2.000394   -3.245486   -0.682014
   2 C     6.0000    0    12.011    0.627913   -1.364745   -2.221390
   3 C     6.0000    0    12.011    1.224093    1.200586   -2.063430
   4 C     6.0000    0    12.011   -2.160388    2.722787    0.056832
   5 C     6.0000    0    12.011   -1.712449    1.634838    2.419037
   6 C     6.0000    0    12.011   -2.267705   -0.957284    2.281627
   7 C     6.0000    0    12.011   -3.042538   -1.534584   -0.177137
   8 C     6.0000    0    12.011   -3.774826    0.917957   -1.401827
   9 C     6.0000    0    12.011    3.605083   -2.221212    1.381108
  10 C     6.0000    0    12.011    4.138221    0.254916    1.567284
  11 C     6.0000    0    12.011    3.148131    2.130398   -0.272453
  12 O     8.0000    0    15.999    3.897400    4.304418   -0.268077
  13 H     1.0000    0     1.008   -0.242652   -2.139773   -3.926069
  14 H     1.0000    0     1.008    0.828365    2.482291   -3.632384
  15 H     1.0000    0     1.008   -2.012245    4.736810   -0.366767
  16 H     1.0000    0     1.008   -0.854922    2.595828    4.029603
  17 H     1.0000    0     1.008   -1.928237   -2.333819    3.777770
  18 H     1.0000    0     1.008   -3.743253   -3.378624   -0.781407
  19 H     1.0000    0     1.008   -3.620951    1.007020   -3.468222
  20 H     1.0000    0     1.008   -5.768746    1.311432   -0.888823
  21 H     1.0000    0     1.008    4.405471   -3.623172    2.671343
  22 H     1.0000    0     1.008    5.394524    1.008381    3.026030

--------------------------------
INTERNAL COORDINATES (ANGSTROEM)
--------------------------------
 O      0   0   0     0.000000000000     0.00000000     0.00000000
 C      1   0   0     1.216507594759     0.00000000     0.00000000
 C      2   1   0     1.477017945534   122.84257697     0.00000000
 C      3   2   1     1.396196576908   120.73200873   192.96608224
 C      4   3   2     2.261718046161   101.36465437   252.38162685
 C      5   4   3     1.396496044989    99.37012810    69.35979037
 C      6   5   4     1.404692759966   108.70723825   286.15631693
 C      7   6   5     1.397985952539   108.83958295     0.69647984
 C      5   4   3     1.495944645006    88.21660294   322.22587792
 C      2   1   3     1.485531013731   121.01730032   180.37728595
 C     10   2   1     1.343955006128   121.97869236   168.30362531
 C      4   3   2     1.475452746587   121.24007016   356.97611795
 O     12   4   3     1.216853005599   122.77570654   172.18921297
 H      3   2   1     1.092783554299   114.18461463   349.43917452
 H      4   3   2     1.092335854546   120.99012598   155.16560473
 H      5   4   3     1.091910814647   100.89054270   197.97908631
 H      6   5   4     1.091283383653   125.27779955    99.29409873
 H      7   6   5     1.090738450641   125.45889523   173.76867853
 H      8   7   6     1.091776944681   124.57752459   185.44167574
 H      9   5   4     1.097528945564   116.37870817   305.80686399
 H      9   5   4     1.109218096315   107.28472556   184.97940335
 H     10   2   1     1.093595322138   115.63915822   351.54624784
 H     11  10   2     1.093995630764   122.31857925   183.11991152

---------------------------
INTERNAL COORDINATES (A.U.)
---------------------------
 O      0   0   0     0.000000000000     0.00000000     0.00000000
 C      1   0   0     2.298866193930     0.00000000     0.00000000
 C      2   1   0     2.791159411947   122.84257697     0.00000000
 C      3   2   1     2.638429159475   120.73200873   192.96608224
 C      4   3   2     4.274027699392   101.36465437   252.38162685
 C      5   4   3     2.638995072133    99.37012810    69.35979037
 C      6   5   4     2.654484618638   108.70723825   286.15631693
 C      7   6   5     2.641810589367   108.83958295     0.69647984
 C      5   4   3     2.826925690567    88.21660294   322.22587792
 C      2   1   3     2.807246779399   121.01730032   180.37728595
 C     10   2   1     2.539706897895   121.97869236   168.30362531
 C      4   3   2     2.788201614591   121.24007016   356.97611795
 O     12   4   3     2.299518925822   122.77570654   172.18921297
 H      3   2   1     2.065061641279   114.18461463   349.43917452
 H      4   3   2     2.064215611354   120.99012598   155.16560473
 H      5   4   3     2.063412402349   100.89054270   197.97908631
 H      6   5   4     2.062226729603   125.27779955    99.29409873
 H      7   6   5     2.061196955449   125.45889523   173.76867853
 H      8   7   6     2.063159424776   124.57752459   185.44167574
 H      9   5   4     2.074029131167   116.37870817   305.80686399
 H      9   5   4     2.096118424825   107.28472556   184.97940335
 H     10   2   1     2.066595660179   115.63915822   351.54624784
 H     11  10   2     2.067352133850   122.31857925   183.11991152

---------------------
BASIS SET INFORMATION
---------------------
There are 3 groups of distinct atoms

 Group   1 Type O   : 7s4p1d contracted to 3s2p1d pattern {511/31/1}
 Group   2 Type C   : 7s4p1d contracted to 3s2p1d pattern {511/31/1}
 Group   3 Type H   : 4s1p contracted to 2s1p pattern {31/1}

Atom   0O    basis set group =>   1
Atom   1C    basis set group =>   2
Atom   2C    basis set group =>   2
Atom   3C    basis set group =>   2
Atom   4C    basis set group =>   2
Atom   5C    basis set group =>   2
Atom   6C    basis set group =>   2
Atom   7C    basis set group =>   2
Atom   8C    basis set group =>   2
Atom   9C    basis set group =>   2
Atom  10C    basis set group =>   2
Atom  11C    basis set group =>   2
Atom  12O    basis set group =>   1
Atom  13H    basis set group =>   3
Atom  14H    basis set group =>   3
Atom  15H    basis set group =>   3
Atom  16H    basis set group =>   3
Atom  17H    basis set group =>   3
Atom  18H    basis set group =>   3
Atom  19H    basis set group =>   3
Atom  20H    basis set group =>   3
Atom  21H    basis set group =>   3
Atom  22H    basis set group =>   3
-------------------------------
AUXILIARY BASIS SET INFORMATION
-------------------------------
There are 3 groups of distinct atoms

 Group   1 Type O   : 12s5p4d2f1g contracted to 6s4p3d1f1g pattern {711111/2111/211/2/1}
 Group   2 Type C   : 12s5p4d2f1g contracted to 6s4p3d1f1g pattern {711111/2111/211/2/1}
 Group   3 Type H   : 5s2p1d contracted to 3s1p1d pattern {311/2/1}

Atom   0O    basis set group =>   1
Atom   1C    basis set group =>   2
Atom   2C    basis set group =>   2
Atom   3C    basis set group =>   2
Atom   4C    basis set group =>   2
Atom   5C    basis set group =>   2
Atom   6C    basis set group =>   2
Atom   7C    basis set group =>   2
Atom   8C    basis set group =>   2
Atom   9C    basis set group =>   2
Atom  10C    basis set group =>   2
Atom  11C    basis set group =>   2
Atom  12O    basis set group =>   1
Atom  13H    basis set group =>   3
Atom  14H    basis set group =>   3
Atom  15H    basis set group =>   3
Atom  16H    basis set group =>   3
Atom  17H    basis set group =>   3
Atom  18H    basis set group =>   3
Atom  19H    basis set group =>   3
Atom  20H    basis set group =>   3
Atom  21H    basis set group =>   3
Atom  22H    basis set group =>   3


           ************************************************************
           *        Program running with 8 parallel MPI-processes     *
           *              working on a common directory               *
           ************************************************************
------------------------------------------------------------------------------
                           ORCA GTO INTEGRAL CALCULATION
                           -- RI-GTO INTEGRALS CHOSEN --
------------------------------------------------------------------------------

                         BASIS SET STATISTICS AND STARTUP INFO

Gaussian basis set:
 # of primitive gaussian shells          ...  206
 # of primitive gaussian functions       ...  382
 # of contracted shells                  ...  108
 # of contracted basis functions         ...  232
 Highest angular momentum                ...    2
 Maximum contraction depth               ...    5
Auxiliary gaussian basis set:
 # of primitive gaussian shells          ...  392
 # of primitive gaussian functions       ... 1070
 # of contracted shells                  ...  245
 # of contracted aux-basis functions     ...  747
 Highest angular momentum                ...    4
 Maximum contraction depth               ...    7
Ratio of auxiliary to basis functions    ...  3.22
Integral package used                  ... LIBINT
 One Electron integrals                  ... done
 Ordering auxiliary basis shells         ... done
 Integral threshhold             Thresh  ...  2.500e-11
 Primitive cut-off               TCut    ...  2.500e-12
 Pre-screening matrix                    ... done
 Shell pair data                         ... 
 Ordering of the shell pairs             ... done (   0.001 sec) 5518 of 5886 pairs
 Determination of significant pairs      ... done (   0.000 sec)
 Creation of shell pair data             ... done (   0.001 sec)
 Storage of shell pair data              ... done (   0.008 sec)
 Shell pair data done in (   0.009 sec)
 Computing two index integrals           ... done
 Cholesky decomposition of the V-matrix  ... done


Timings:
 Total evaluation time                   ...   0.209 sec (  0.003 min)
 One electron matrix time                ...   0.023 sec (  0.000 min) = 11.1%
 Schwartz matrix evaluation time         ...   0.132 sec (  0.002 min) = 62.8%
 Two index repulsion integral time       ...   0.010 sec (  0.000 min) =  4.7%
 Cholesky decomposition of V             ...   0.010 sec (  0.000 min) =  4.8%
 Three index repulsion integral time     ...   0.000 sec (  0.000 min) =  0.0%



           ************************************************************
           *        Program running with 8 parallel MPI-processes     *
           *              working on a common directory               *
           ************************************************************
-------------------------------------------------------------------------------
                                 ORCA SCF
-------------------------------------------------------------------------------

------------
SCF SETTINGS
------------
Hamiltonian:
 Density Functional     Method          .... DFT(GTOs)
 Exchange Functional    Exchange        .... PBE
   PBE kappa parameter   XKappa         ....  0.804000
   PBE mue parameter    XMuePBE         ....  0.219520
 Correlation Functional Correlation     .... PBE
   PBE beta parameter  CBetaPBE         ....  0.066725
 LDA part of GGA corr.  LDAOpt          .... PW91-LDA
 Gradients option       PostSCFGGA      .... off
 Hybrid DFT is turned on
   Fraction HF Exchange ScalHFX         ....  0.250000
   Scaling of DF-GGA-X  ScalDFX         ....  0.750000
   Scaling of DF-GGA-C  ScalDFC         ....  1.000000
   Scaling of DF-LDA-C  ScalLDAC        ....  1.000000
   Perturbative correction              ....  0.000000
   Density functional embedding theory  .... OFF
   NL short-range parameter             ....  6.900000
 RI-approximation to the Coulomb term is turned on
   Number of auxiliary basis functions  .... 747
   RIJ-COSX (HFX calculated with COS-X)).... on


General Settings:
 Integral files         IntName         .... get_template_ts_guess_breaking_bonds_TS_orca_opt
 Hartree-Fock type      HFTyp           .... RHF
 Total Charge           Charge          ....    0
 Multiplicity           Mult            ....    1
 Number of Electrons    NEL             ....   92
 Basis Dimension        Dim             ....  232
 Nuclear Repulsion      ENuc            ....    780.5938979690 Eh

Convergence Acceleration:
 DIIS                   CNVDIIS         .... on
   Start iteration      DIISMaxIt       ....    12
   Startup error        DIISStart       ....  0.200000
   # of expansion vecs  DIISMaxEq       ....     5
   Bias factor          DIISBfac        ....   1.050
   Max. coefficient     DIISMaxC        ....  10.000
 Newton-Raphson         CNVNR           .... off
 SOSCF                  CNVSOSCF        .... on
   Start iteration      SOSCFMaxIt      ....   150
   Startup grad/error   SOSCFStart      ....  0.003300
 Level Shifting         CNVShift        .... on
   Level shift para.    LevelShift      ....    0.2500
   Turn off err/grad.   ShiftErr        ....    0.0010
 Zerner damping         CNVZerner       .... off
 Static damping         CNVDamp         .... on
   Fraction old density DampFac         ....    0.7000
   Max. Damping (<1)    DampMax         ....    0.9800
   Min. Damping (>=0)   DampMin         ....    0.0000
   Turn off err/grad.   DampErr         ....    0.1000
 Fernandez-Rico         CNVRico         .... off

SCF Procedure:
 Maximum # iterations   MaxIter         ....   250
 SCF integral mode      SCFMode         .... Direct
   Integral package                     .... LIBINT
 Reset frequency        DirectResetFreq ....    20
 Integral Threshold     Thresh          ....  2.500e-11 Eh
 Primitive CutOff       TCut            ....  2.500e-12 Eh

Convergence Tolerance:
 Convergence Check Mode ConvCheckMode   .... Total+1el-Energy
 Convergence forced     ConvForced      .... 0
 Energy Change          TolE            ....  1.000e-08 Eh
 1-El. energy change                    ....  1.000e-05 Eh
 Orbital Gradient       TolG            ....  1.000e-05
 Orbital Rotation angle TolX            ....  1.000e-05
 DIIS Error             TolErr          ....  5.000e-07


Diagonalization of the overlap matrix:
Smallest eigenvalue                        ... 2.573e-04
Time for diagonalization                   ...    0.009 sec
Threshold for overlap eigenvalues          ... 1.000e-08
Number of eigenvalues below threshold      ... 0
Time for construction of square roots      ...    0.005 sec
Total time needed                          ...    0.014 sec

-------------------
DFT GRID GENERATION
-------------------

General Integration Accuracy     IntAcc      ...  4.340
Radial Grid Type                 RadialGrid  ... Gauss-Chebyshev
Angular Grid (max. acc.)         AngularGrid ... Lebedev-110
Angular grid pruning method      GridPruning ... 3 (G Style)
Weight generation scheme         WeightScheme... Becke
Basis function cutoff            BFCut       ...    1.0000e-11
Integration weight cutoff        WCut        ...    1.0000e-14
Grids for H and He will be reduced by one unit

# of grid points (after initial pruning)     ...  29588 (   0.0 sec)
# of grid points (after weights+screening)   ...  26639 (   0.0 sec)
nearest neighbour list constructed           ...    0.0 sec
Grid point re-assignment to atoms done       ...    0.0 sec
Grid point division into batches done        ...    0.0 sec
Reduced shell lists constructed in    0.1 sec

Total number of grid points                  ...    26639
Total number of batches                      ...      430
Average number of points per batch           ...       61
Average number of grid points per atom       ...     1158
Average number of shells per batch           ...    73.13 (67.71%)
Average number of basis functions per batch  ...   153.89 (66.33%)
Average number of large shells per batch     ...    54.84 (74.99%)
Average number of large basis fcns per batch ...   113.45 (73.72%)
Maximum spatial batch extension              ...  19.49, 14.10, 16.97 au
Average spatial batch extension              ...   0.42,  0.36,  0.38 au

Time for grid setup =    0.093 sec

------------------------------
INITIAL GUESS: MODEL POTENTIAL
------------------------------
Loading Hartree-Fock densities                     ... done
Calculating cut-offs                               ... done
Setting up the integral package                    ... done
Initializing the effective Hamiltonian             ... done
Starting the Coulomb interaction                   ... done (   0.0 sec)
Reading the grid                                   ... done
Mapping shells                                     ... done
Starting the XC term evaluation                    ... done (   0.1 sec)
  promolecular density results
     # of electrons  =     92.004309411
     EX              =    -75.445227561
     EC              =     -3.076826080
     EX+EC           =    -78.522053641
Transforming the Hamiltonian                       ... done (   0.0 sec)
Diagonalizing the Hamiltonian                      ... done (   0.0 sec)
Back transforming the eigenvectors                 ... done (   0.0 sec)
Now organizing SCF variables                       ... done
                      ------------------
                      INITIAL GUESS DONE (   0.3 sec)
                      ------------------
--------------------
COSX GRID GENERATION
--------------------

General Integration Accuracy     IntAcc      ...  3.340
Radial Grid Type                 RadialGrid  ... Gauss-Chebyshev
Angular Grid (max. acc.)         AngularGrid ... Lebedev-50
Angular grid pruning method      GridPruning ... 3 (G Style)
Weight generation scheme         WeightScheme... Becke
Basis function cutoff            BFCut       ...    1.0000e-11
Integration weight cutoff        WCut        ...    1.0000e-14
Grids for H and He will be reduced by one unit

# of grid points (after initial pruning)     ...  10740 (   0.0 sec)
# of grid points (after weights+screening)   ...   9767 (   0.0 sec)
nearest neighbour list constructed           ...    0.0 sec
Grid point re-assignment to atoms done       ...    0.0 sec
Grid point division into batches done        ...    0.0 sec
Reduced shell lists constructed in    0.0 sec

Total number of grid points                  ...     9767
Total number of batches                      ...      165
Average number of points per batch           ...       59
Average number of grid points per atom       ...      425
Average number of shells per batch           ...    78.36 (72.56%)
Average number of basis functions per batch  ...   166.64 (71.83%)
Average number of large shells per batch     ...    59.86 (76.39%)
Average number of large basis fcns per batch ...   125.68 (75.42%)
Maximum spatial batch extension              ...  15.96, 12.96, 15.75 au
Average spatial batch extension              ...   0.59,  0.48,  0.56 au

Overlap Fitting                  UseSFitting ... on
Constructing numerical overlap ... done (      0.0 sec)
Inverting numerical overlap    ... done (      0.0 sec)
Obtaining analytic overlap     ... done (      0.0 sec)
Final contraction and storage  ... done (      0.0 sec)


General Integration Accuracy     IntAcc      ...  3.670
Radial Grid Type                 RadialGrid  ... Gauss-Chebyshev
Angular Grid (max. acc.)         AngularGrid ... Lebedev-50
Angular grid pruning method      GridPruning ... 3 (G Style)
Weight generation scheme         WeightScheme... Becke
Basis function cutoff            BFCut       ...    1.0000e-11
Integration weight cutoff        WCut        ...    1.0000e-14
Grids for H and He will be reduced by one unit

# of grid points (after initial pruning)     ...  13586 (   0.0 sec)
# of grid points (after weights+screening)   ...  12329 (   0.0 sec)
nearest neighbour list constructed           ...    0.0 sec
Grid point re-assignment to atoms done       ...    0.0 sec
Grid point division into batches done        ...    0.0 sec
Reduced shell lists constructed in    0.0 sec

Total number of grid points                  ...    12329
Total number of batches                      ...      205
Average number of points per batch           ...       60
Average number of grid points per atom       ...      536
Average number of shells per batch           ...    77.22 (71.50%)
Average number of basis functions per batch  ...   164.19 (70.77%)
Average number of large shells per batch     ...    58.15 (75.30%)
Average number of large basis fcns per batch ...   121.56 (74.04%)
Maximum spatial batch extension              ...  16.94, 13.83, 17.68 au
Average spatial batch extension              ...   0.54,  0.45,  0.57 au

Overlap Fitting                  UseSFitting ... on
Constructing numerical overlap ... done (      0.0 sec)
Inverting numerical overlap    ... done (      0.0 sec)
Obtaining analytic overlap     ... done (      0.0 sec)
Final contraction and storage  ... done (      0.0 sec)


General Integration Accuracy     IntAcc      ...  4.010
Radial Grid Type                 RadialGrid  ... Gauss-Chebyshev
Angular Grid (max. acc.)         AngularGrid ... Lebedev-110
Angular grid pruning method      GridPruning ... 3 (G Style)
Weight generation scheme         WeightScheme... Becke
Basis function cutoff            BFCut       ...    1.0000e-11
Integration weight cutoff        WCut        ...    1.0000e-14
Grids for H and He will be reduced by one unit

# of grid points (after initial pruning)     ...  25672 (   0.0 sec)
# of grid points (after weights+screening)   ...  23175 (   0.0 sec)
nearest neighbour list constructed           ...    0.0 sec
Grid point re-assignment to atoms done       ...    0.0 sec
Grid point division into batches done        ...    0.0 sec
Reduced shell lists constructed in    0.1 sec

Total number of grid points                  ...    23175
Total number of batches                      ...      375
Average number of points per batch           ...       61
Average number of grid points per atom       ...     1008
Average number of shells per batch           ...    74.23 (68.73%)
Average number of basis functions per batch  ...   156.56 (67.48%)
Average number of large shells per batch     ...    55.44 (74.68%)
Average number of large basis fcns per batch ...   114.44 (73.09%)
Maximum spatial batch extension              ...  19.82, 13.60, 16.26 au
Average spatial batch extension              ...   0.44,  0.37,  0.40 au

Overlap Fitting                  UseSFitting ... on
Constructing numerical overlap ... done (      0.0 sec)
Inverting numerical overlap    ... done (      0.0 sec)
Obtaining analytic overlap     ... done (      0.0 sec)
Final contraction and storage  ... done (      0.0 sec)

Time for X-Grid setup             =    0.264 sec
--------------
SCF ITERATIONS
--------------
ITER       Energy         Delta-E        Max-DP      RMS-DP      [F,P]     Damp
               ***  Starting incremental Fock matrix formation  ***
  0   -574.1932177011   0.000000000000 0.22754266  0.00319320  0.2343115 0.7000
  1   -574.3150626936  -0.121844992496 0.15082206  0.00212511  0.0950345 0.7000
                               ***Turning on DIIS***
  2   -574.3629664173  -0.047903723758 0.15397825  0.00292691  0.0295666 0.0000
  3   -574.4429175171  -0.079951099746 0.11134525  0.00162030  0.0495608 0.0000
  4   -574.4571528095  -0.014235292389 0.00982058  0.00033053  0.0149296 0.0000
  5   -574.4582962216  -0.001143412103 0.01687060  0.00019412  0.0037984 0.0000
                      *** Initiating the SOSCF procedure ***
                           *** Shutting down DIIS ***
                      *** Re-Reading the Fockian *** 
                      *** Removing any level shift *** 
ITER      Energy       Delta-E        Grad      Rot      Max-DP    RMS-DP
  6   -574.45837982  -0.0000835963  0.000303  0.000303  0.003404  0.000058
               *** Restarting incremental Fock matrix formation ***
  7   -574.45837171   0.0000081114  0.000134  0.000735  0.002412  0.000035
  8   -574.45836944   0.0000022686  0.000301  0.000634  0.001375  0.000020
  9   -574.45837317  -0.0000037354  0.000037  0.000110  0.000306  0.000005
 10   -574.45837311   0.0000000585  0.000062  0.000070  0.000167  0.000003
 11   -574.45837321  -0.0000000971  0.000009  0.000019  0.000097  0.000002
                 **** Energy Check signals convergence ****
              ***Rediagonalizing the Fockian in SOSCF/NRSCF***

               *****************************************************
               *                     SUCCESS                       *
               *           SCF CONVERGED AFTER  12 CYCLES          *
               *****************************************************

Setting up the final grid:

General Integration Accuracy     IntAcc      ...  4.670
Radial Grid Type                 RadialGrid  ... Gauss-Chebyshev
Angular Grid (max. acc.)         AngularGrid ... Lebedev-302
Angular grid pruning method      GridPruning ... 3 (G Style)
Weight generation scheme         WeightScheme... Becke
Basis function cutoff            BFCut       ...    1.0000e-11
Integration weight cutoff        WCut        ...    1.0000e-14
Grids for H and He will be reduced by one unit

# of grid points (after initial pruning)     ... 114696 (   0.0 sec)
# of grid points (after weights+screening)   ... 101080 (   0.1 sec)
nearest neighbour list constructed           ...    0.0 sec
Grid point re-assignment to atoms done       ...    0.0 sec
Grid point division into batches done        ...    0.3 sec
Reduced shell lists constructed in    0.4 sec

Total number of grid points                  ...   101080
Total number of batches                      ...     1592
Average number of points per batch           ...       63
Average number of grid points per atom       ...     4395
Average number of shells per batch           ...    69.39 (64.25%)
Average number of basis functions per batch  ...   145.55 (62.74%)
Average number of large shells per batch     ...    51.48 (74.19%)
Average number of large basis fcns per batch ...   105.76 (72.66%)
Maximum spatial batch extension              ...  14.47, 14.35, 14.69 au
Average spatial batch extension              ...   0.27,  0.25,  0.26 au

Final grid set up in    0.4 sec
Final integration                            ... done (   0.2 sec)
Change in XC energy                          ...     0.000501342
Integrated number of electrons               ...    92.000176024
Previous integrated no of electrons          ...    92.005170353
Old exchange energy                            =    -19.195778899 Eh
New exchange energy                            =    -19.195286826 Eh
Exchange energy change after final integration =      0.000492073 Eh
Total energy after final integration           =   -574.457379799 Eh
Final COS-X integration done in                =     1.217 sec

----------------
TOTAL SCF ENERGY
----------------

Total Energy       :         -574.45737980 Eh          -15631.78001 eV

Components:
Nuclear Repulsion  :          780.59389797 Eh           21241.03984 eV
Electronic Energy  :        -1355.05127777 Eh          -36872.81985 eV
One Electron Energy:        -2328.43137439 Eh          -63359.83885 eV
Two Electron Energy:          973.38009662 Eh           26487.01900 eV

Virial components:
Potential Energy   :        -1143.37320099 Eh          -31112.76654 eV
Kinetic Energy     :          568.91582119 Eh           15480.98653 eV
Virial Ratio       :            2.00974056


DFT components:
N(Alpha)           :       46.000088011800 electrons
N(Beta)            :       46.000088011800 electrons
N(Total)           :       92.000176023599 electrons
E(X)               :      -57.467722553400 Eh       
E(C)               :       -3.094692706324 Eh       
E(XC)              :      -60.562415259723 Eh       
DFET-embed. en.    :        0.000000000000 Eh       

---------------
SCF CONVERGENCE
---------------

  Last Energy change         ...   -2.0286e-09  Tolerance :   1.0000e-08
  Last MAX-Density change    ...    4.8850e-15  Tolerance :   1.0000e-07
  Last RMS-Density change    ...    4.8187e-17  Tolerance :   5.0000e-09
  Last Orbital Gradient      ...    1.0992e-05  Tolerance :   1.0000e-05
  Last Orbital Rotation      ...    1.3564e-05  Tolerance :   1.0000e-05

             **** THE GBW FILE WAS UPDATED (get_template_ts_guess_breaking_bonds_TS_orca_opt.gbw) ****
             **** DENSITY FILE WAS UPDATED (get_template_ts_guess_breaking_bonds_TS_orca_opt.scfp.tmp) ****
             **** ENERGY FILE WAS UPDATED (get_template_ts_guess_breaking_bonds_TS_orca_opt.en.tmp) ****
----------------
ORBITAL ENERGIES
----------------

  NO   OCC          E(Eh)            E(eV) 
   0   2.0000     -19.197696      -522.3959 
   1   2.0000     -19.195484      -522.3357 
   2   2.0000     -10.323865      -280.9267 
   3   2.0000     -10.322772      -280.8969 
   4   2.0000     -10.279508      -279.7196 
   5   2.0000     -10.279407      -279.7169 
   6   2.0000     -10.265551      -279.3398 
   7   2.0000     -10.264447      -279.3098 
   8   2.0000     -10.263705      -279.2896 
   9   2.0000     -10.262429      -279.2549 
  10   2.0000     -10.261052      -279.2174 
  11   2.0000     -10.259444      -279.1737 
  12   2.0000     -10.258957      -279.1604 
  13   2.0000      -1.059128       -28.8203 
  14   2.0000      -1.056261       -28.7423 
  15   2.0000      -0.919181       -25.0122 
  16   2.0000      -0.858681       -23.3659 
  17   2.0000      -0.790920       -21.5220 
  18   2.0000      -0.748467       -20.3668 
  19   2.0000      -0.748188       -20.3592 
  20   2.0000      -0.704085       -19.1591 
  21   2.0000      -0.642582       -17.4855 
  22   2.0000      -0.603529       -16.4229 
  23   2.0000      -0.593385       -16.1468 
  24   2.0000      -0.564906       -15.3719 
  25   2.0000      -0.556922       -15.1546 
  26   2.0000      -0.517860       -14.0917 
  27   2.0000      -0.501577       -13.6486 
  28   2.0000      -0.491609       -13.3774 
  29   2.0000      -0.479332       -13.0433 
  30   2.0000      -0.463717       -12.6184 
  31   2.0000      -0.438426       -11.9302 
  32   2.0000      -0.429801       -11.6955 
  33   2.0000      -0.424682       -11.5562 
  34   2.0000      -0.418899       -11.3988 
  35   2.0000      -0.415271       -11.3001 
  36   2.0000      -0.414173       -11.2702 
  37   2.0000      -0.408642       -11.1197 
  38   2.0000      -0.399234       -10.8637 
  39   2.0000      -0.392559       -10.6821 
  40   2.0000      -0.345658        -9.4058 
  41   2.0000      -0.306202        -8.3322 
  42   2.0000      -0.275167        -7.4877 
  43   2.0000      -0.274028        -7.4567 
  44   2.0000      -0.270508        -7.3609 
  45   2.0000      -0.258538        -7.0352 
  46   0.0000      -0.093121        -2.5340 
  47   0.0000      -0.041270        -1.1230 
  48   0.0000      -0.026302        -0.7157 
  49   0.0000       0.038286         1.0418 
  50   0.0000       0.056817         1.5461 
  51   0.0000       0.067685         1.8418 
  52   0.0000       0.088311         2.4031 
  53   0.0000       0.092023         2.5041 
  54   0.0000       0.106325         2.8933 
  55   0.0000       0.108059         2.9404 
  56   0.0000       0.124448         3.3864 
  57   0.0000       0.129820         3.5326 
  58   0.0000       0.143605         3.9077 
  59   0.0000       0.158212         4.3052 
  60   0.0000       0.160793         4.3754 
  61   0.0000       0.184520         5.0210 
  62   0.0000       0.187618         5.1053 
  63   0.0000       0.198535         5.4024 
  64   0.0000       0.217131         5.9084 
  65   0.0000       0.247490         6.7345 
  66   0.0000       0.247909         6.7459 
[...]
      5       0.000087   0.000571  -0.000445  -0.001078   0.001590   0.000064
      6      -0.001315   0.009875   0.026585   0.025177   0.006038   0.000518
      7      -0.001013   0.007652   0.021018   0.024266   0.005373   0.000244
      8      -0.002108   0.018436   0.049519   0.045876   0.010744   0.000850
      9      -0.000526  -0.004304  -0.011700   0.011972   0.003032  -0.000916
     10       0.001408   0.011150   0.032067  -0.042446  -0.009756   0.002861
     11      -0.001501  -0.014671  -0.040969   0.047106   0.011067  -0.003455
     12      -0.001335  -0.000103  -0.000192   0.000766   0.000195   0.005043
     13       0.002661  -0.000896  -0.003161   0.004818   0.001233   0.051184
     14      -0.001577   0.000147   0.000481  -0.001763  -0.000416  -0.010507
     15      -0.000344  -0.000007   0.000445  -0.000619  -0.000048  -0.020932
     16      -0.000537  -0.000006   0.000410  -0.001335  -0.000172  -0.024405
     17      -0.000094   0.000020   0.000774  -0.000768  -0.000020  -0.038776
     18      -0.000083   0.000008  -0.000163   0.000177   0.000092   0.005455
     19       0.000611   0.000065   0.000538   0.000893  -0.000080  -0.021732
     20      -0.000033  -0.000046  -0.000590   0.000014   0.000261   0.024608
     21      -0.002218  -0.000259  -0.000984  -0.000610  -0.000097   0.009258
     22      -0.001552  -0.000807  -0.002511  -0.002607  -0.000538   0.026155
     23      -0.001701  -0.000262  -0.000713  -0.001586  -0.000334   0.008531
     24      -0.020404  -0.000032  -0.000048  -0.000675  -0.000089  -0.000717
     25       0.000222   0.000059   0.000143  -0.000042  -0.000023  -0.001648
     26       0.086409   0.000240   0.000548   0.002575   0.000489  -0.001432
     27      -0.000012  -0.020152   0.007284   0.005543  -0.024108   0.000153
     28       0.000120   0.031565  -0.011838  -0.012228   0.050852  -0.000261
     29      -0.000087  -0.031940   0.011615   0.009472  -0.040700   0.000250
     30      -0.000066   0.038123  -0.013991   0.007273  -0.033133  -0.000180
     31      -0.000095   0.021814  -0.008253   0.006120  -0.025721  -0.000095
     32      -0.000113   0.045023  -0.016477   0.008233  -0.037684  -0.000188
     33       0.000029   0.000190   0.000910  -0.001540  -0.000214   0.000020
     34       0.000192   0.001947   0.000248  -0.001264  -0.002758   0.000023
     35       0.000119  -0.000669   0.000602  -0.001355   0.000941  -0.000062
     36      -0.000007  -0.000141  -0.000071   0.000236   0.000239  -0.000010
     37      -0.000048  -0.000491  -0.000062   0.000429   0.000920  -0.000005
     38      -0.000024   0.000064   0.000005   0.000151  -0.000103   0.000024
     39       0.013309  -0.113511  -0.304013  -0.280378  -0.065352  -0.005057
     40       0.010227  -0.094678  -0.254171  -0.237761  -0.054803  -0.004520
     41       0.021760  -0.214215  -0.573268  -0.527644  -0.122600  -0.009977
     42       0.005409   0.045678   0.127036  -0.146171  -0.034299   0.009917
     43      -0.013649  -0.137122  -0.384120   0.449277   0.104040  -0.032771
     44       0.015217   0.169303   0.472731  -0.547403  -0.127074   0.040404
     45      -0.000436   0.000929   0.003019  -0.005166  -0.001345  -0.048429
     46      -0.040526   0.009173   0.033844  -0.053717  -0.013583  -0.590611
     47       0.009452  -0.002005  -0.007348   0.011863   0.003011   0.126004
     48       0.001303   0.000098  -0.005637   0.007110   0.000421   0.246483
     49       0.000937  -0.000246  -0.005998   0.008089   0.000859   0.276451
     50       0.001013  -0.000363  -0.010001   0.013250   0.001145   0.460422
     51       0.000733  -0.000019   0.001911   0.000887  -0.000774  -0.063383
     52      -0.001279  -0.000626  -0.007246  -0.003974   0.002024   0.263700
     53       0.000696   0.000834   0.007796   0.004212  -0.002249  -0.290049
     54       0.015752   0.002805   0.009590   0.009727   0.001775  -0.113849
     55       0.033891   0.008184   0.026798   0.028215   0.005504  -0.304343
     56       0.012318   0.002773   0.009073   0.009664   0.001905  -0.100352
     57       0.081040   0.000234   0.000597   0.001462   0.000324  -0.000116
     58       0.030913   0.000386   0.001071   0.001238   0.000233   0.002163
     59      -0.968828  -0.002712  -0.006142  -0.029935  -0.005730   0.013508
     60       0.195534   0.000381   0.000640   0.003951   0.000147   0.001560
     61      -0.041963  -0.000155  -0.000466  -0.000733  -0.000003   0.001323
     62      -0.038037  -0.000142  -0.000256  -0.002189  -0.000250  -0.000019
     63       0.000305   0.228270  -0.083112  -0.069705   0.295464  -0.001814
     64      -0.000679  -0.391640   0.143699   0.121994  -0.513196   0.003070
     65       0.000367   0.366309  -0.134168  -0.112351   0.474336  -0.003005
     66       0.000636  -0.443549   0.162175  -0.081041   0.366350   0.002249
     67       0.000495  -0.261345   0.096092  -0.049065   0.218867   0.001219
     68       0.000595  -0.520173   0.190596  -0.094775   0.427850   0.002656
                  66         67         68    
      0       0.000011  -0.000021   0.000001
      1       0.000073  -0.000062  -0.000091
      2       0.000015   0.000003   0.000029
      3      -0.000052   0.000043  -0.000035
      4      -0.000176   0.000090   0.000178
      5      -0.000025  -0.000019  -0.000159
      6      -0.001382   0.000391   0.000202
      7      -0.001390   0.000224   0.000084
      8      -0.002958   0.000880   0.000809
      9      -0.000459  -0.000350   0.000093
     10       0.002006   0.000920  -0.000243
     11      -0.002504  -0.001449   0.000673
     12       0.004189   0.003623  -0.001583
     13       0.045290   0.047811  -0.021921
     14      -0.009707  -0.014068   0.007309
     15      -0.005873   0.021862  -0.019933
     16      -0.009058   0.022176  -0.025099
     17      -0.009101   0.044513  -0.037347
     18      -0.004836  -0.006115  -0.009862
     19       0.026400   0.017295   0.046114
     20      -0.024763  -0.025656  -0.049783
     21      -0.020480   0.014117   0.012160
     22      -0.056953   0.037111   0.031298
     23      -0.018474   0.015057   0.014382
     24      -0.001575  -0.000808   0.001523
     25       0.000973  -0.002397  -0.000870
     26      -0.005582  -0.000616   0.003031
     27      -0.000087  -0.000010  -0.000119
     28       0.000110  -0.000036   0.000179
     29      -0.000067   0.000031  -0.000138
     30      -0.000068   0.000079  -0.000143
     31      -0.000032   0.000018  -0.000092
     32      -0.000013   0.000067  -0.000136
     33       0.000044   0.000051  -0.000107
     34       0.000222   0.000183  -0.000097
     35       0.000042   0.000098  -0.000152
     36      -0.000010  -0.000012   0.000031
     37      -0.000089  -0.000109   0.000056
     38      -0.000005  -0.000032   0.000036
     39       0.016964  -0.004372  -0.003605
     40       0.015598  -0.004800  -0.003729
     41       0.034980  -0.011080  -0.008422
     42       0.006663   0.003109  -0.001341
     43      -0.023459  -0.013071   0.005006
     44       0.029567   0.016927  -0.006290
     45      -0.040715  -0.042637   0.018369
     46      -0.504783  -0.527882   0.225601
     47       0.108361   0.116308  -0.050845
     48       0.067619  -0.247865   0.213350
     49       0.077405  -0.275080   0.240846
     50       0.123357  -0.465511   0.398684
     51       0.067626   0.057073   0.115839
     52      -0.285821  -0.230528  -0.486192
     53       0.308722   0.257692   0.531806
     54       0.240195  -0.157867  -0.126132
     55       0.638855  -0.419147  -0.335003
     56       0.211306  -0.140927  -0.114509
     57      -0.002637   0.000587   0.000233
     58      -0.002671   0.002581   0.001536
     59       0.053893   0.003990  -0.023908
     60       0.006854   0.001635  -0.008292
     61      -0.001807   0.000638   0.001880
     62      -0.000807  -0.000224   0.001382
     63       0.001008  -0.000058   0.001423
     64      -0.001528   0.000150  -0.002188
     65       0.001393  -0.000172   0.002058
     66       0.000773  -0.000943   0.001789
     67       0.000381  -0.000494   0.000937
     68       0.000722  -0.001007   0.001964


-----------
IR SPECTRUM
-----------

 Mode    freq (cm**-1)   T**2         TX         TY         TZ
-------------------------------------------------------------------
   7:        83.10    0.293183  ( -0.039522  -0.528966  -0.108700)
   8:       102.62   10.925910  (  2.551185  -0.282798  -2.082640)
   9:       131.95    0.128884  (  0.288416   0.186664  -0.104194)
  10:       140.36    0.015337  (  0.063316  -0.079687   0.070553)
  11:       209.63    6.362992  ( -0.386163  -2.484776  -0.199400)
  12:       270.23    0.663042  ( -0.241282  -0.708454  -0.320809)
  13:       277.88    1.789551  (  0.677671  -0.435461   1.068029)
  14:       411.19   15.736816  (  3.088588  -1.122833   2.221865)
  15:       437.58    3.969773  ( -0.775735  -1.772691  -0.474949)
  16:       456.92    1.652385  (  0.737816   0.000124  -1.052622)
  17:       473.67    4.417931  ( -1.506652   0.942908  -1.121987)
  18:       474.47    3.031029  ( -1.402982  -0.399790  -0.950179)
  19:       570.56    0.637536  ( -0.121345  -0.785753  -0.073512)
  20:       584.42    0.285953  (  0.176592   0.046175   0.502629)
  21:       633.01    0.552821  (  0.128379   0.730142   0.056857)
  22:       760.42   24.624630  ( -4.749635   0.923669   1.101104)
  23:       783.05   12.353083  (  2.463255  -0.716396  -2.402547)
  24:       783.12    1.187367  (  0.556349   0.804047  -0.480990)
  25:       800.03    1.513566  ( -0.497912  -1.124824   0.020499)
  26:       806.78    4.449515  (  1.858964   0.452760  -0.888130)
  27:       807.80    9.519071  (  2.493899  -1.144454  -1.410590)
  28:       838.71   15.986360  ( -3.660445   0.751622   1.422170)
  29:       850.04    3.399347  (  0.060875   1.835333   0.164903)
  30:       884.70   41.178089  (  5.914976  -0.754783  -2.370960)
  31:       911.63   12.796028  ( -1.536607   0.162933   3.226193)
  32:       931.13    4.494259  (  0.252922   2.075084   0.352587)
  33:       979.51    6.022808  (  0.507592   2.361858   0.432185)
  34:       980.47    1.360751  ( -0.379242  -0.961447   0.540876)
  35:       983.91   12.250206  ( -1.120561  -2.314602  -2.374272)
  36:       987.82   13.881444  ( -0.427691   2.503922  -2.725601)
  37:      1008.53    0.070406  ( -0.060739  -0.172550   0.192205)
  38:      1039.14    0.509965  ( -0.138710  -0.700006  -0.026765)
  39:      1069.04   23.664332  ( -3.933735   1.063420  -2.656915)
  40:      1079.93    0.243276  (  0.096437   0.482237   0.037727)
  41:      1086.23   12.956471  (  3.489410  -0.801924   0.370682)
  42:      1115.34    1.695545  (  0.324188   1.260608   0.036255)
  43:      1133.46   10.203044  ( -2.975344   0.726751  -0.906754)
  44:      1139.52    3.930390  (  0.500928   0.006585  -1.918181)
  45:      1232.46    0.079975  (  0.092183   0.258994   0.066329)
  46:      1277.38    1.102359  (  0.247943   1.018049   0.066773)
  47:      1325.39    6.266995  (  1.037426   2.260945   0.280836)
  48:      1328.61  136.365624  (-10.888583   2.808280  -3.149277)
  49:      1363.83    4.211932  (  0.475006   1.991127   0.147366)
  50:      1413.99    0.272649  ( -0.029109   0.516674  -0.069638)
  51:      1421.43   40.833032  ( -5.768337   1.325819  -2.408635)
  52:      1426.92   10.550717  (  2.670165  -0.426182  -1.799807)
  53:      1477.27   15.424180  ( -3.364562   0.851053  -1.838372)
  54:      1535.11   14.744606  (  0.759402   3.756580   0.236696)
  55:      1543.65    6.895247  ( -2.453338   0.832033  -0.429067)
  56:      1700.35   22.129476  ( -4.246242   1.147902  -1.667702)
  57:      1807.47  436.862959  (  2.557161  20.613522   2.325210)
  58:      1811.02   97.753661  (  9.075922   2.010555  -3.367338)
  59:      3030.12    4.108725  (  1.963125  -0.458234  -0.211862)
  60:      3160.43    7.185525  (  0.853393  -0.346239   2.517412)
  61:      3203.08    1.438582  (  0.439592   1.094542   0.217529)
  62:      3204.72    0.231723  (  0.094376   0.459838   0.106607)
  63:      3217.98    0.875313  (  0.747536  -0.239570   0.509028)
  64:      3222.72    1.821495  ( -1.129031   0.389491  -0.628554)
  65:      3229.89    0.007193  ( -0.053016  -0.012277  -0.065052)
  66:      3237.36    0.131801  ( -0.112915   0.024400  -0.344174)
  67:      3246.06    0.072039  (  0.068849   0.254654   0.049497)
  68:      3257.81    0.209364  (  0.029268   0.125874  -0.438934)

The first frequency considered to be a vibration is 7
The total number of vibrations considered is 62


--------------------------
THERMOCHEMISTRY AT 298.15K
--------------------------

Temperature         ... 298.15 K
Pressure            ... 1.00 atm
Total Mass          ... 174.20 AMU

Throughout the following assumptions are being made:
  (1) The electronic state is orbitally nondegenerate
  (2) There are no thermally accessible electronically excited states
  (3) Hindered rotations indicated by low frequency modes are not
      treated as such but are treated as vibrations and this may
      cause some error
  (4) All equations used are the standard statistical mechanics
      equations for an ideal gas
  (5) All vibrations are strictly harmonic

freq.      83.10  E(vib)   ...       0.48 
freq.     102.62  E(vib)   ...       0.46 
freq.     131.95  E(vib)   ...       0.42 
freq.     140.36  E(vib)   ...       0.41 
freq.     209.63  E(vib)   ...       0.34 
freq.     270.23  E(vib)   ...       0.29 
freq.     277.88  E(vib)   ...       0.28 
freq.     411.19  E(vib)   ...       0.19 
freq.     437.58  E(vib)   ...       0.17 
freq.     456.92  E(vib)   ...       0.16 
freq.     473.67  E(vib)   ...       0.15 
freq.     474.47  E(vib)   ...       0.15 
freq.     570.56  E(vib)   ...       0.11 
freq.     584.42  E(vib)   ...       0.11 
freq.     633.01  E(vib)   ...       0.09 
freq.     760.42  E(vib)   ...       0.06 
freq.     783.05  E(vib)   ...       0.05 
freq.     783.12  E(vib)   ...       0.05 
freq.     800.03  E(vib)   ...       0.05 
freq.     806.78  E(vib)   ...       0.05 
freq.     807.80  E(vib)   ...       0.05 
freq.     838.71  E(vib)   ...       0.04 
freq.     850.04  E(vib)   ...       0.04 
freq.     884.70  E(vib)   ...       0.04 
freq.     911.63  E(vib)   ...       0.03 
freq.     931.13  E(vib)   ...       0.03 
freq.     979.51  E(vib)   ...       0.03 
freq.     980.47  E(vib)   ...       0.02 
freq.     983.91  E(vib)   ...       0.02 
freq.     987.82  E(vib)   ...       0.02 
freq.    1008.53  E(vib)   ...       0.02 
freq.    1039.14  E(vib)   ...       0.02 
freq.    1069.04  E(vib)   ...       0.02 
freq.    1079.93  E(vib)   ...       0.02 
freq.    1086.23  E(vib)   ...       0.02 
freq.    1115.34  E(vib)   ...       0.01 
freq.    1133.46  E(vib)   ...       0.01 
freq.    1139.52  E(vib)   ...       0.01 
freq.    1232.46  E(vib)   ...       0.01 
freq.    1277.38  E(vib)   ...       0.01 
freq.    1325.39  E(vib)   ...       0.01 
freq.    1328.61  E(vib)   ...       0.01 
freq.    1363.83  E(vib)   ...       0.01 
freq.    1413.99  E(vib)   ...       0.00 
freq.    1421.43  E(vib)   ...       0.00 
freq.    1426.92  E(vib)   ...       0.00 
freq.    1477.27  E(vib)   ...       0.00 
freq.    1535.11  E(vib)   ...       0.00 
freq.    1543.65  E(vib)   ...       0.00 
freq.    1700.35  E(vib)   ...       0.00 
freq.    1807.47  E(vib)   ...       0.00 
freq.    1811.02  E(vib)   ...       0.00 
freq.    3030.12  E(vib)   ...       0.00 
freq.    3160.43  E(vib)   ...       0.00 
freq.    3203.08  E(vib)   ...       0.00 
freq.    3204.72  E(vib)   ...       0.00 
freq.    3217.98  E(vib)   ...       0.00 
freq.    3222.72  E(vib)   ...       0.00 
freq.    3229.89  E(vib)   ...       0.00 
freq.    3237.36  E(vib)   ...       0.00 
freq.    3246.06  E(vib)   ...       0.00 
freq.    3257.81  E(vib)   ...       0.00 

------------
INNER ENERGY
------------

The inner energy is: U= E(el) + E(ZPE) + E(vib) + E(rot) + E(trans)
    E(el)   - is the total energy from the electronic structure calculation
              = E(kin-el) + E(nuc-el) + E(el-el) + E(nuc-nuc)
    E(ZPE)  - the the zero temperature vibrational energy from the frequency calculation
    E(vib)  - the the finite temperature correction to E(ZPE) due to population
              of excited vibrational states
    E(rot)  - is the rotational thermal energy
    E(trans)- is the translational thermal energy

Summary of contributions to the inner energy U:
Electronic energy                ...   -574.48624537 Eh
Zero point energy                ...      0.18155396 Eh     113.93 kcal/mol
Thermal vibrational correction   ...      0.00733954 Eh       4.61 kcal/mol
Thermal rotational correction    ...      0.00141627 Eh       0.89 kcal/mol
Thermal translational correction ...      0.00141627 Eh       0.89 kcal/mol
-----------------------------------------------------------------------
Total thermal energy                   -574.29451932 Eh


Summary of corrections to the electronic energy:
(perhaps to be used in another calculation)
Total thermal correction                  0.01017209 Eh       6.38 kcal/mol
Non-thermal (ZPE) correction              0.18155396 Eh     113.93 kcal/mol
-----------------------------------------------------------------------
Total correction                          0.19172605 Eh     120.31 kcal/mol


--------
ENTHALPY
--------

The enthalpy is H = U + kB*T
                kB is Boltzmann's constant
Total free energy                 ...   -574.29451932 Eh 
Thermal Enthalpy correction       ...      0.00094421 Eh       0.59 kcal/mol
-----------------------------------------------------------------------
Total Enthalpy                    ...   -574.29357511 Eh


Note: Rotational entropy computed according to Herzberg 
Infrared and Raman Spectra, Chapter V,1, Van Nostrand Reinhold, 1945 
Point Group:  C1, Symmetry Number:   1  
Rotational constants in cm-1:     0.035004     0.033664     0.022711 

Vibrational entropy computed according to the QRRHO of S. Grimme
Chem.Eur.J. 2012 18 9955


-------
ENTROPY
-------

The entropy contributions are T*S = T*(S(el)+S(vib)+S(rot)+S(trans))
     S(el)   - electronic entropy
     S(vib)  - vibrational entropy
     S(rot)  - rotational entropy
     S(trans)- translational entropy
The entropies will be listed as mutliplied by the temperature to get
units of energy

Electronic entropy                ...      0.00000000 Eh      0.00 kcal/mol
Vibrational entropy               ...      0.01225355 Eh      7.69 kcal/mol
Rotational entropy                ...      0.01448123 Eh      9.09 kcal/mol
Translational entropy             ...      0.01965731 Eh     12.34 kcal/mol
-----------------------------------------------------------------------
Final entropy term                ...      0.04639209 Eh     29.11 kcal/mol


-------------------
GIBBS FREE ENTHALPY
-------------------

The Gibbs free enthalpy is G = H - T*S

Total enthalpy                    ...   -574.29357511 Eh 
Total entropy correction          ...     -0.04639209 Eh    -29.11 kcal/mol
-----------------------------------------------------------------------
Final Gibbs free enthalpy         ...   -574.33996721 Eh

For completeness - the Gibbs free enthalpy minus the electronic energy
G-E(el)                           ...      0.14627817 Eh     91.79 kcal/mol


Timings for individual modules:

Sum of individual times         ...      349.840 sec (=   5.831 min)
GTO integral calculation        ...        3.530 sec (=   0.059 min)   1.0 %
SCF iterations                  ...       43.926 sec (=   0.732 min)  12.6 %
SCF Gradient evaluation         ...       13.075 sec (=   0.218 min)   3.7 %
Geometry relaxation             ...        1.702 sec (=   0.028 min)   0.5 %
Analytical frequency calculation...      287.608 sec (=   4.793 min)  82.2 %
                             ****ORCA TERMINATED NORMALLY****
TOTAL RUN TIME: 0 days 0 hours 5 minutes 53 seconds 789 msec
