
                                 *****************
                                 * O   R   C   A *
                                 *****************

           --- An Ab Initio, DFT and Semiempirical electronic structure package ---

                  #######################################################
                  #                        -***-                        #
                  #          Department of theory and spectroscopy      #
                  #               Directorship: Frank Neese             #
                  #        Max Planck Institute fuer Kohlenforschung    #
                  #                Kaiser Wilhelm Platz 1               #
                  #                 D-45470 Muelheim/Ruhr               #
                  #                      Germany                        #
                  #                                                     #
                  #                  All rights reserved                #
                  #                        -***-                        #
                  #######################################################


                         Program Version 4.1.1  - RELEASE  -


 With contributions from (in alphabetic order):
   Daniel Aravena         : Magnetic Properties
   Michael Atanasov       : Ab Initio Ligand Field Theory
   Alexander A. Auer      : GIAO ZORA
   Ute Becker             : Parallelization
   Giovanni Bistoni       : ED, Open-shell LED
   Martin Brehm           : Molecular dynamics
   Dmytro Bykov           : SCF Hessian
   Vijay G. Chilkuri      : MRCI spin determinant printing
   Dipayan Datta          : RHF DLPNO-CCSD density
   Achintya Kumar Dutta   : EOM-CC, STEOM-CC
   Dmitry Ganyushin       : Spin-Orbit,Spin-Spin,Magnetic field MRCI
   Miquel Garcia          : C-PCM Hessian
   Yang Guo               : DLPNO-NEVPT2, CIM, IAO-localization
   Andreas Hansen         : Spin unrestricted coupled pair/coupled cluster methods
   Benjamin Helmich-Paris : CASSCF linear response (MC-RPA)
   Lee Huntington         : MR-EOM, pCC
   Robert Izsak           : Overlap fitted RIJCOSX, COSX-SCS-MP3, EOM
   Christian Kollmar      : KDIIS, OOCD, Brueckner-CCSD(T), CCSD density
   Simone Kossmann        : Meta GGA functionals, TD-DFT gradient, OOMP2, MP2 Hessian
   Martin Krupicka        : AUTO-CI
   Lucas Lang             : DCDCAS
   Dagmar Lenk            : GEPOL surface, SMD
   Dimitrios Liakos       : Extrapolation schemes; parallel MDCI
   Dimitrios Manganas     : ROCIS; embedding schemes
   Dimitrios Pantazis     : SARC Basis sets
   Taras Petrenko         : DFT Hessian,TD-DFT gradient, ASA, ECA, R-Raman, ABS, FL, XAS/XES, NRVS
   Peter Pinski           : DLPNO-MP2, DLPNO-MP2 Gradient
   Christoph Reimann      : Effective Core Potentials
   Marius Retegan         : Local ZFS, SOC
   Christoph Riplinger    : Optimizer, TS searches, QM/MM, DLPNO-CCSD(T), (RO)-DLPNO pert. Triples
   Tobias Risthaus        : Range-separated hybrids, TD-DFT gradient, RPA, STAB
   Michael Roemelt        : Restricted open shell CIS
   Masaaki Saitow         : Open-shell DLPNO
   Barbara Sandhoefer     : DKH picture change effects
   Avijit Sen             : IP-ROCIS
   Kantharuban Sivalingam : CASSCF convergence, NEVPT2, FIC-MRCI
   Bernardo de Souza      : ESD, SOC TD-DFT
   Georgi Stoychev        : AutoAux, RI-MP2 NMR
   Willem Van den Heuvel  : Paramagnetic NMR
   Boris Wezisla          : Elementary symmetry handling
   Frank Wennmohs         : Technical directorship


 We gratefully acknowledge several colleagues who have allowed us to
 interface, adapt or use parts of their codes:
   Stefan Grimme, W. Hujo, H. Kruse,             : VdW corrections, initial TS optimization,
                  C. Bannwarth                     DFT functionals, gCP, sTDA/sTD-DF
   Ed Valeev                                     : LibInt (2-el integral package), F12 methods
   Garnet Chan, S. Sharma, J. Yang, R. Olivares  : DMRG
   Ulf Ekstrom                                   : XCFun DFT Library
   Mihaly Kallay                                 : mrcc  (arbitrary order and MRCC methods)
   Andreas Klamt, Michael Diedenhofen            : otool_cosmo (COSMO solvation model)
   Jiri Pittner, Ondrej Demel                    : Mk-CCSD
   Frank Weinhold                                : gennbo (NPA and NBO analysis)
   Christopher J. Cramer and Donald G. Truhlar   : smd solvation model
   Lars Goerigk                                  : TD-DFT with DH, B97 family of functionals
   V. Asgeirsson, H. Jonsson                     : NEB implementation
   FAccTs GmbH                                   : IRC, NEB, NEB-TS, Multilevel


 Your calculation uses the libint2 library for the computation of 2-el integrals
 For citations please refer to: http://libint.valeyev.net

 This ORCA versions uses:
   CBLAS   interface :  Fast vector & matrix operations
   LAPACKE interface :  Fast linear algebra routines
   SCALAPACK package :  Parallel linear algebra routines


Your calculation utilizes the atom-pairwise dispersion correction
with the Becke-Johnson damping scheme (D3BJ)
Cite in your paper:
S.Grimme, S.Ehrlich, L.Goerigk, J Comput Chem, (2011), 32, 1456–1465 
S.Grimme, J.Antony, S.Ehrlich and H.Krieg, J.Chem.Phys., 132, (2010), 154104 
   

----- Orbital basis set information -----
Your calculation utilizes the basis: def2-SVP
   F. Weigend and R. Ahlrichs, Phys. Chem. Chem. Phys. 7, 3297 (2005).

----- AuxJ basis set information -----
Your calculation utilizes the auxiliary basis: def2/J
   F. Weigend, Phys. Chem. Chem. Phys. 8, 1057 (2006).

================================================================================
                                        WARNINGS
                       Please study these warnings very carefully!
================================================================================


WARNING: Geometry Optimization
  ===> : Switching off AutoStart
         For restart on a previous wavefunction, please use MOREAD

INFO   : the flag for use of LIBINT has been found!

================================================================================
                                       INPUT FILE
================================================================================
NAME = template_ts_guess_orca_opt.inp
|  1> ! OptTS Freq PBE0 RIJCOSX D3BJ def2-SVP def2/J PAL8
|  2> %geom
|  3> Calc_Hess true
|  4> Recalc_Hess 40
|  5> Trust 0.2
|  6> MaxIter 100
|  7> end
|  8> %geom
|  9> modify_internal
| 10> { B 3 4 A } end
| 11> end
| 12> %geom
| 13> modify_internal
| 14> { B 2 7 A } end
| 15> end
| 16> %geom MaxIter 100 end
| 17> %scf 
| 18> maxiter 250 
| 19> end
| 20> % maxcore 4000
| 21> *xyz 0 1
| 22> O   1.53753900  2.52276500  0.92923500 
| 23> C   1.39977400  1.38864900  0.51009400 
| 24> C   0.60310500  0.36163500  1.21290100 
| 25> C   0.62532500 -0.97178600  0.79885600 
| 26> C  -1.41029900 -1.17444700 -0.16578500 
| 27> C  -1.22519900 -0.34559800 -1.27207700 
| 28> C  -1.23213700  0.99181700 -0.84275800 
| 29> C  -1.41375400  1.01951400  0.54179400 
| 30> C  -1.95441300 -0.32295200  0.94002300 
| 31> C   2.04455800  0.96358100 -0.75689400 
| 32> C   2.05693100 -0.31872100 -1.15879000 
| 33> C   1.42205700 -1.40144700 -0.36612100 
| 34> O   1.56842100 -2.56928600 -0.67709800 
| 35> H   0.34584400  0.62175000  2.24264100 
| 36> H   0.37150100 -1.77500200  1.49378300 
| 37> H  -1.51434600 -2.26017700 -0.21422400 
| 38> H  -0.99390500 -0.69020300 -2.28095500 
| 39> H  -1.00985100  1.85932400 -1.46520800 
| 40> H  -1.54079700  1.93020800  1.12997300 
| 41> H  -3.05721500 -0.28812100  0.82644900 
| 42> H  -1.73649900 -0.65624300  1.96301800 
| 43> H   2.54611100  1.75618000 -1.31868300 
| 44> H   2.56734900 -0.64154000 -2.07037600 
| 45> *
| 46> 
| 47>                          ****END OF INPUT****
================================================================================

                       *****************************
                       * Geometry Optimization Run *
                       *****************************

Geometry optimization settings:
Update method            Update   .... Bofill
Choice of coordinates    CoordSys .... Z-matrix Internals
Initial Hessian          InHess   .... Almoef's Model

Convergence Tolerances:
Energy Change            TolE     ....  5.0000e-06 Eh
Max. Gradient            TolMAXG  ....  3.0000e-04 Eh/bohr
RMS Gradient             TolRMSG  ....  1.0000e-04 Eh/bohr
Max. Displacement        TolMAXD  ....  4.0000e-03 bohr
RMS Displacement         TolRMSD  ....  2.0000e-03 bohr

------------------------------------------------------------------------------
                        ORCA OPTIMIZATION COORDINATE SETUP
------------------------------------------------------------------------------

The optimization will be done in new redundant internal coordinates
Making redundant internal coordinates   ...  (new redundants) Bond   4,  3 is already included
Bond   7,  2 is already included
done
Following TS mode number                ...     0
Evaluating the initial hessian          ...  (Is done on the fly) done
Evaluating the coordinates              ...  done
Calculating the B-matrix                .... done
Calculating the G-matrix                .... done
Diagonalizing the G-matrix              .... done
The first mode is                       ....  489
The number of degrees of freedom        ....   63

    -----------------------------------------------------------------
                    Redundant Internal Coordinates


    -----------------------------------------------------------------
         Definition                    Initial Value    d2E/dq (diagonal element)
    -----------------------------------------------------------------
      1. B(C   1,O   0)                  1.2169         0.000000   
      2. B(C   2,C   1)                  1.4776         0.000000   
      3. B(C   3,C   2)                  1.3964         0.000000   
      4. B(C   4,C   2)                  2.8834         0.000000   
      5. B(C   4,C   3)                  2.2617         0.000000   
      6. B(C   5,C   4)                  1.3947         0.000000   
      7. B(C   5,C   3)                  2.8470         0.000000   
      8. B(C   6,C   5)                  1.4047         0.000000   
      9. B(C   6,C   2)                  2.8268         0.000000   
     10. B(C   7,C   6)                  1.3967         0.000000   
     11. B(C   7,C   1)                  2.8378         0.000000   
     12. B(C   7,C   2)                  2.2251         0.000000   
     13. B(C   7,C   3)                  2.8617         0.000000   
     14. B(C   8,C   4)                  1.4980         0.000000   
     15. B(C   8,C   2)                  2.6616         0.000000   
     16. B(C   8,C   7)                  1.5010         0.000000   
     17. B(C   8,C   3)                  2.6638         0.000000   
     18. B(C   9,C   1)                  1.4838         0.000000   
     19. B(C  10,C   9)                  1.3439         0.000000   
     20. B(C  11,C  10)                  1.4845         0.000000   
     21. B(C  11,C   3)                  1.4753         0.000000   
     22. B(C  11,C   4)                  2.8485         0.000000   
     23. B(O  12,C  11)                  1.2174         0.000000   
     24. B(H  13,C   2)                  1.0928         0.000000   
     25. B(H  13,C   7)                  2.4794         0.000000   
     26. B(H  13,C   8)                  2.8072         0.000000   
     27. B(H  14,C   3)                  1.0920         0.000000   
     28. B(H  14,C   8)                  2.7973         0.000000   
     29. B(H  14,C   4)                  2.5079         0.000000   
     30. B(H  15,H  14)                  2.5902         0.000000   
     31. B(H  15,C   3)                  2.6953         0.000000   
     32. B(H  15,C   4)                  1.0918         0.000000   
     33. B(H  16,C   5)                  1.0909         0.000000   
     34. B(H  17,C   6)                  1.0906         0.000000   
     35. B(H  18,C   2)                  2.6577         0.000000   
     36. B(H  18,H  13)                  2.5514         0.000000   
     37. B(H  18,C   7)                  1.0915         0.000000   
     38. B(H  19,C   8)                  1.1092         0.000000   
     39. B(H  20,C   2)                  2.6594         0.000000   
     40. B(H  20,H  14)                  2.4322         0.000000   
     41. B(H  20,C   8)                  1.0978         0.000000   
     42. B(H  20,H  13)                  2.4592         0.000000   
     43. B(H  20,C   3)                  2.6520         0.000000   
     44. B(H  21,C   9)                  1.0933         0.000000   
     45. B(H  22,C  10)                  1.0935         0.000000   
     46. A(O   0,C   1,C   7)          103.2746         0.000000   
     47. A(O   0,C   1,C   9)          120.7895         0.000000   
     48. A(O   0,C   1,C   2)          123.0225         0.000000   
     49. A(C   2,C   1,C   9)          116.1875         0.000000   
     50. A(C   7,C   1,C   9)          113.7723         0.000000   
     51. A(C   2,C   1,C   7)           50.9305         0.000000   
     52. A(C   4,C   2,H  13)          114.3917         0.000000   
     53. A(C   6,C   2,H  13)          118.6419         0.000000   
     54. A(C   3,C   2,C   7)          101.9656         0.000000   
     55. A(C   4,C   2,C   6)           46.9784         0.000000   
     56. A(C   1,C   2,C   3)          120.9365         0.000000   
     57. A(C   1,C   2,C   8)          130.3972         0.000000   
     58. A(C   7,C   2,C   8)           34.3241         0.000000   
     59. A(C   3,C   2,C   6)           90.4346         0.000000   
     60. A(C   7,C   2,H  13)           90.0255         0.000000   
     61. A(C   3,C   2,H  13)          120.6929         0.000000   
     62. A(C   1,C   2,H  13)          114.1843         0.000000   
     63. A(C   4,C   2,C   8)           31.0172         0.000000   
     64. A(C   1,C   2,C   4)          121.2870         0.000000   
     65. A(C   1,C   2,C   6)           81.3272         0.000000   
     66. A(C   1,C   2,C   7)           98.0332         0.000000   
     67. A(C   8,C   2,H  13)           86.0791         0.000000   
     68. A(C   4,C   2,C   7)           51.7106         0.000000   
     69. A(C   6,C   2,C   7)           29.1065         0.000000   
     70. A(C   3,C   2,C   8)           74.8873         0.000000   
     71. A(C   3,C   2,C   4)           50.2556         0.000000   
     72. A(C   6,C   2,C   8)           50.1295         0.000000   
     73. A(C   4,C   3,C  11)           97.0751         0.000000   
     74. A(C   7,C   3,H  14)          113.7887         0.000000   
     75. A(C   7,C   3,C  11)          121.0995         0.000000   
     76. A(C   2,C   3,C   8)           74.7097         0.000000   
     77. A(C   2,C   3,C   5)           89.7315         0.000000   
     78. A(C   5,C   3,C   7)           47.0355         0.000000   
     79. A(C   4,C   3,C   7)           51.8824         0.000000   
     80. A(C   4,C   3,C   5)           28.8891         0.000000   
     81. A(C   5,C   3,H  14)          118.2682         0.000000   
     82. A(C   5,C   3,C  11)           80.8327         0.000000   
     83. A(C   4,C   3,H  14)           89.7885         0.000000   
     84. A(C  11,C   3,H  14)          114.4449         0.000000   
     85. A(C   8,C   3,C  11)          129.4776         0.000000   
     86. A(C   2,C   3,C   4)          101.4028         0.000000   
     87. A(C   2,C   3,H  14)          120.6619         0.000000   
     88. A(C   4,C   3,C   8)           34.1882         0.000000   
     89. A(C   2,C   3,C   7)           49.5210         0.000000   
     90. A(C   2,C   3,C  11)          121.3878         0.000000   
     91. A(C   8,C   3,H  14)           85.4306         0.000000   
     92. A(C   7,C   3,C   8)           31.2641         0.000000   
     93. A(C   5,C   3,C   8)           49.8717         0.000000   
     94. A(C   3,C   4,H  15)          101.1749         0.000000   
     95. A(C   3,C   4,C  11)           30.9297         0.000000   
     96. A(C   2,C   4,C  11)           51.8129         0.000000   
     97. A(C   2,C   4,C   3)           28.3416         0.000000   
     98. A(C   5,C   4,C  11)           81.9293         0.000000   
     99. A(C   2,C   4,H  15)          128.1364         0.000000   
    100. A(C   2,C   4,C   8)           66.2872         0.000000   
    101. A(C  11,C   4,H  15)           90.7099         0.000000   
    102. A(C   8,C   4,H  15)          124.2925         0.000000   
    103. A(C   5,C   4,C   8)          107.2147         0.000000   
    104. A(C   5,C   4,H  15)          124.6426         0.000000   
    105. A(C   2,C   4,C   5)           88.2810         0.000000   
    106. A(C   3,C   4,C   8)           87.7729         0.000000   
    107. A(C   3,C   4,C   5)           99.5328         0.000000   
    108. A(C   8,C   4,C  11)          117.2835         0.000000   
    109. A(C   6,C   5,H  16)          125.7658         0.000000   
    110. A(C   4,C   5,C   6)          108.8293         0.000000   
    111. A(C   4,C   5,H  16)          125.0285         0.000000   
    112. A(C   3,C   5,H  16)          117.7377         0.000000   
    113. A(C   3,C   5,C   6)           89.4444         0.000000   
    114. A(C   3,C   5,C   4)           51.5781         0.000000   
    115. A(C   2,C   6,H  17)          117.3896         0.000000   
    116. A(C   2,C   6,C   5)           90.3894         0.000000   
    117. A(C   7,C   6,H  17)          125.2053         0.000000   
    118. A(C   5,C   6,H  17)          125.5852         0.000000   
    119. A(C   2,C   6,C   7)           50.7996         0.000000   
    120. A(C   5,C   6,C   7)          108.8147         0.000000   
    121. A(C   1,C   7,C   2)           31.0363         0.000000   
    122. A(C   2,C   7,H  18)          100.9326         0.000000   
    123. A(C   2,C   7,C   8)           88.9706         0.000000   
    124. A(C   2,C   7,C   6)          100.0939         0.000000   
    125. A(C   8,C   7,H  18)          124.1458         0.000000   
    126. A(C   6,C   7,C   8)          106.9836         0.000000   
    127. A(C   2,C   7,C   3)           28.5134         0.000000   
    128. A(C   1,C   7,C   3)           52.0531         0.000000   
    129. A(C   3,C   7,H  18)          127.9585         0.000000   
    130. A(C   3,C   7,C   8)           67.0754         0.000000   
    131. A(C   3,C   7,C   6)           89.0027         0.000000   
    132. A(C   1,C   7,H  18)           90.7383         0.000000   
    133. A(C   1,C   7,C   8)          118.4510         0.000000   
    134. A(C   1,C   7,C   6)           82.1017         0.000000   
    135. A(C   6,C   7,H  18)          124.4614         0.000000   
    136. A(C   7,C   8,H  20)          116.5685         0.000000   
    137. A(C   4,C   8,H  20)          116.3107         0.000000   
    138. A(C   7,C   8,H  19)          107.6299         0.000000   
    139. A(C   4,C   8,H  19)          107.6624         0.000000   
    140. A(C   4,C   8,C   7)          100.4689         0.000000   
    141. A(C   2,C   8,C   3)           30.4030         0.000000   
    142. A(C   3,C   8,H  20)           77.4784         0.000000   
    143. A(C   3,C   8,H  19)          164.8152         0.000000   
    144. A(C   3,C   8,C   7)           81.6605         0.000000   
    145. A(C   3,C   8,C   4)           58.0389         0.000000   
    146. A(C   2,C   8,H  20)           77.9834         0.000000   
    147. A(C   2,C   8,H  19)          163.2946         0.000000   
    148. A(C   2,C   8,C   7)           56.7053         0.000000   
    149. A(C   2,C   8,C   4)           82.6956         0.000000   
    150. A(H  19,C   8,H  20)          107.5970         0.000000   
    151. A(C   1,C   9,C  10)          122.1886         0.000000   
    152. A(C  10,C   9,H  21)          122.2652         0.000000   
    153. A(C   1,C   9,H  21)          115.4941         0.000000   
    154. A(C   9,C  10,C  11)          122.1626         0.000000   
    155. A(C  11,C  10,H  22)          115.4326         0.000000   
    156. A(C   9,C  10,H  22)          122.3644         0.000000   
    157. A(C  10,C  11,O  12)          120.7883         0.000000   
    158. A(C   4,C  11,O  12)          102.3548         0.000000   
    159. A(C   4,C  11,C  10)          113.8712         0.000000   
    160. A(C   3,C  11,C   4)           51.9952         0.000000   
    161. A(C   3,C  11,O  12)          123.0950         0.000000   
    162. A(C   3,C  11,C  10)          116.1163         0.000000   
    163. D(H  13,C   2,C   1,O   0)    -13.7351         0.000000   
    164. D(C   8,C   2,C   1,C   9)    -87.5112         0.000000   
    165. D(C   4,C   2,C   1,C   9)    -50.6107         0.000000   
    166. D(H  13,C   2,C   1,C   7)    -93.6622         0.000000   
    167. D(C   7,C   2,C   1,C   9)   -100.3327         0.000000   
    168. D(C   4,C   2,C   1,C   7)     49.7220         0.000000   
    169. D(C   8,C   2,C   1,O   0)     92.7486         0.000000   
    170. D(C   6,C   2,C   1,C   9)    -76.4123         0.000000   
    171. D(C   3,C   2,C   1,O   0)   -170.8834         0.000000   
    172. D(C   6,C   2,C   1,C   7)     23.9205         0.000000   
    173. D(C   4,C   2,C   1,O   0)    129.6491         0.000000   
    174. D(C   7,C   2,C   1,O   0)     79.9271         0.000000   
    175. D(C   6,C   2,C   1,O   0)    103.8476         0.000000   
    176. D(C   3,C   2,C   1,C   9)      8.8568         0.000000   
    177. D(C   8,C   2,C   1,C   7)     12.8215         0.000000   
    178. D(H  13,C   2,C   1,C   9)    166.0051         0.000000   
    179. D(C   3,C   2,C   1,C   7)    109.1895         0.000000   
    180. D(H  14,C   3,C   2,C   6)   -123.2772         0.000000   
    181. D(C   7,C   3,C   2,C   6)    -26.9325         0.000000   
    182. D(C   8,C   3,C   2,C   1)   -128.3731         0.000000   
    183. D(C  11,C   3,C   2,C   8)    127.2503         0.000000   
    184. D(C   8,C   3,C   2,H  13)     75.9558         0.000000   
    185. D(H  14,C   3,C   2,C   1)    156.5839         0.000000   
    186. D(C   5,C   3,C   2,C   6)     -0.0608         0.000000   
    187. D(C   7,C   3,C   2,C   4)     -0.2701         0.000000   
    188. D(H  14,C   3,C   2,C   7)    -96.3447         0.000000   
    189. D(C   4,C   3,C   2,C   8)     21.5718         0.000000   
    190. D(C  11,C   3,C   2,C   7)    105.9486         0.000000   
    191. D(C   8,C   3,C   2,C   7)    -21.3017         0.000000   
    192. D(C   5,C   3,C   2,C   7)     26.8717         0.000000   
    193. D(C   4,C   3,C   2,C   7)      0.2701         0.000000   
    194. D(C   5,C   3,C   2,H  13)    124.1292         0.000000   
    195. D(C   8,C   3,C   2,C   6)    -48.2342         0.000000   
    196. D(C  11,C   3,C   2,C   4)    105.6785         0.000000   
    197. D(C   5,C   3,C   2,C   1)    -80.1997         0.000000   
    198. D(C   8,C   3,C   2,C   4)    -21.5718         0.000000   
    199. D(C  11,C   3,C   2,C   1)     -1.1228         0.000000   
    200. D(C   5,C   3,C   2,C   8)     48.1734         0.000000   
    201. D(H  14,C   3,C   2,C   4)    -96.6148         0.000000   
    202. D(C   7,C   3,C   2,H  13)     97.2575         0.000000   
    203. D(C   7,C   3,C   2,C   1)   -107.0714         0.000000   
    204. D(C   5,C   3,C   2,C   4)     26.6016         0.000000   
    205. D(C   4,C   3,C   2,H  13)     97.5276         0.000000   
    206. D(C  11,C   3,C   2,C   6)     79.0161         0.000000   
    207. D(H  14,C   3,C   2,H  13)      0.9127         0.000000   
    208. D(C  11,C   3,C   2,H  13)   -156.7939         0.000000   
    209. D(C   4,C   3,C   2,C   1)   -106.8013         0.000000   
    210. D(C   4,C   3,C   2,C   6)    -26.6624         0.000000   
    211. D(H  14,C   3,C   2,C   8)    -75.0430         0.000000   
    212. D(C   7,C   3,C   2,C   8)     21.3017         0.000000   
    213. D(H  15,C   4,C   3,H  14)    -42.3818         0.000000   
    214. D(H  15,C   4,C   2,C   8)   -115.9458         0.000000   
    215. D(C   2,C   4,C   3,C   5)    -67.9501         0.000000   
    216. D(C   8,C   4,C   2,C   3)    136.4624         0.000000   
    217. D(H  15,C   4,C   3,C  11)     72.2345         0.000000   
    218. D(H  15,C   4,C   3,C   7)   -163.4193         0.000000   
    219. D(C   5,C   4,C   2,C   7)     66.4672         0.000000   
    220. D(C  11,C   4,C   3,C   8)    163.2202         0.000000   
    221. D(C   2,C   4,C   3,C  11)   -124.0851         0.000000   
    222. D(C  11,C   4,C   3,C   7)    124.3462         0.000000   
    223. D(C  11,C   4,C   3,C   2)    124.0851         0.000000   
    224. D(C   2,C   4,C   3,C   7)      0.2611         0.000000   
    225. D(C   8,C   4,C   2,C   7)    -43.2009         0.000000   
    226. D(C  11,C   4,C   3,C   5)     56.1350         0.000000   
    227. D(C   2,C   4,C   3,H  14)    121.2987         0.000000   
    228. D(C  11,C   4,C   3,H  14)   -114.6162         0.000000   
    229. D(C   5,C   4,C   3,H  14)   -170.7513         0.000000   
    230. D(H  15,C   4,C   3,C   5)    128.3695         0.000000   
    231. D(H  15,C   4,C   3,C   8)   -124.5454         0.000000   
    232. D(C   5,C   4,C   2,C   6)     28.2684         0.000000   
    233. D(C   8,C   4,C   3,C   7)    -38.8739         0.000000   
    234. D(H  15,C   4,C   3,C   2)   -163.6804         0.000000   
    235. D(C   8,C   4,C   2,C   1)   -117.4530         0.000000   
    236. D(C   8,C   4,C   3,H  14)     82.1636         0.000000   
    237. D(H  15,C   4,C   2,C   6)    162.6545         0.000000   
    238. D(H  15,C   4,C   2,C   3)     20.5166         0.000000   
    239. D(C   8,C   4,C   2,H  13)     25.8615         0.000000   
    240. D(C   3,C   4,C   2,H  13)   -110.6009         0.000000   
    241. D(C   5,C   4,C   3,C  11)    -56.1350         0.000000   
    242. D(C   5,C   4,C   2,C   3)   -113.8695         0.000000   
    243. D(H  15,C   4,C   2,C   1)    126.6011         0.000000   
    244. D(C   5,C   4,C   3,C   8)    107.0851         0.000000   
    245. D(C   8,C   4,C   3,C   2)    -39.1351         0.000000   
    246. D(C   8,C   4,C   3,C  11)   -163.2202         0.000000   
    247. D(C   3,C   4,C   2,C   6)    142.1379         0.000000   
    248. D(C   8,C   4,C   3,C   5)   -107.0851         0.000000   
    249. D(C  11,C   4,C   2,C   6)    109.3461         0.000000   
    250. D(C  11,C   4,C   2,C   3)    -32.7918         0.000000   
    251. D(C   5,C   4,C   2,C   8)    109.6681         0.000000   
    252. D(C  11,C   4,C   2,H  13)   -143.3927         0.000000   
    253. D(C   3,C   4,C   2,C   8)   -136.4624         0.000000   
    254. D(C   5,C   4,C   2,H  13)    135.5296         0.000000   
    255. D(C  11,C   4,C   2,C   1)     73.2927         0.000000   
    256. D(C  11,C   4,C   2,C   8)   -169.2543         0.000000   
    257. D(C   5,C   4,C   3,C   2)     67.9501         0.000000   
    258. D(C   3,C   4,C   2,C   7)   -179.6633         0.000000   
    259. D(C  11,C   4,C   2,C   7)    147.5448         0.000000   
    260. D(C   5,C   4,C   2,C   1)     -7.7850         0.000000   
    261. D(C   8,C   4,C   2,C   6)    -81.3996         0.000000   
    262. D(C   3,C   4,C   2,C   1)    106.0845         0.000000   
    263. D(H  15,C   4,C   2,C   7)   -159.1467         0.000000   
    264. D(C   2,C   4,C   3,C   8)     39.1351         0.000000   
    265. D(C   5,C   4,C   3,C   7)     68.2112         0.000000   
    266. D(H  15,C   4,C   2,H  13)    -90.0843         0.000000   
    267. D(H  16,C   5,C   4,C   8)   -169.6254         0.000000   
    268. D(C   6,C   5,C   4,C   2)    -47.4103         0.000000   
    269. D(C   6,C   5,C   4,C  11)    -99.0619         0.000000   
    270. D(C   6,C   5,C   4,H  15)    175.6856         0.000000   
    271. D(C   6,C   5,C   4,C   8)     17.0904         0.000000   
    272. D(H  16,C   5,C   3,C   7)    159.0868         0.000000   
    273. D(H  16,C   5,C   3,C   2)    131.0639         0.000000   
    274. D(C   6,C   5,C   3,C   4)    114.8136         0.000000   
    275. D(C   6,C   5,C   3,H  14)    125.3280         0.000000   
    276. D(C   4,C   5,C   3,C   7)    -86.6683         0.000000   
    277. D(C   4,C   5,C   3,C  11)    123.4163         0.000000   
    278. D(C   4,C   5,C   3,H  14)     10.5144         0.000000   
    279. D(C   6,C   5,C   3,C  11)   -121.7701         0.000000   
    280. D(C   6,C   5,C   3,C   2)      0.1224         0.000000   
    281. D(C   6,C   5,C   3,C   7)     28.1453         0.000000   
    282. D(C   4,C   5,C   3,C   8)    -44.6260         0.000000   
    283. D(C   4,C   5,C   3,C   2)   -114.6912         0.000000   
    284. D(H  16,C   5,C   3,H  14)   -103.7305         0.000000   
    285. D(H  16,C   5,C   3,C  11)      9.1713         0.000000   
    286. D(C   6,C   5,C   4,C   3)    -73.5271         0.000000   
    287. D(C   3,C   5,C   4,C  11)    -25.5348         0.000000   
    288. D(C   6,C   5,C   3,C   8)     70.1876         0.000000   
    289. D(C   3,C   5,C   4,C   2)     26.1168         0.000000   
    290. D(C   3,C   5,C   4,H  15)   -110.7873         0.000000   
    291. D(C   3,C   5,C   4,C   8)     90.6175         0.000000   
    292. D(H  16,C   5,C   4,C  11)     74.2223         0.000000   
    293. D(H  16,C   5,C   4,C   3)     99.7571         0.000000   
    294. D(H  16,C   5,C   4,C   2)    125.8739         0.000000   
    295. D(H  16,C   5,C   4,H  15)    -11.0302         0.000000   
    296. D(H  16,C   5,C   3,C   8)   -158.8710         0.000000   
    297. D(H  16,C   5,C   3,C   4)   -114.2449         0.000000   
    298. D(C   2,C   6,C   5,C   3)     -0.0605         0.000000   
    299. D(C   2,C   6,C   5,H  16)   -124.5767         0.000000   
    300. D(C   5,C   6,C   2,C   8)    -69.6310         0.000000   
    301. D(H  17,C   6,C   5,C   4)    173.4345         0.000000   
    302. D(C   7,C   6,C   2,C   8)     44.6140         0.000000   
    303. D(H  17,C   6,C   2,C   8)    159.1515         0.000000   
    304. D(H  17,C   6,C   5,H  16)      0.2123         0.000000   
    305. D(H  17,C   6,C   2,C   4)   -159.2544         0.000000   
    306. D(H  17,C   6,C   2,C   3)   -131.0942         0.000000   
    307. D(H  17,C   6,C   2,H  13)    103.0487         0.000000   
    308. D(H  17,C   6,C   2,C   1)     -9.8363         0.000000   
    309. D(C   7,C   6,C   5,C   4)      0.3596         0.000000   
    310. D(H  17,C   6,C   2,C   7)    114.5375         0.000000   
    311. D(C   7,C   6,C   2,C   4)     86.2081         0.000000   
    312. D(C   7,C   6,C   2,H  13)    -11.4888         0.000000   
    313. D(C   7,C   6,C   2,C   3)    114.3683         0.000000   
    314. D(C   7,C   6,C   2,C   1)   -124.3738         0.000000   
    315. D(H  17,C   6,C   5,C   3)    124.7285         0.000000   
    316. D(C   2,C   6,C   5,C   4)     48.6456         0.000000   
    317. D(C   5,C   6,C   2,C   7)   -114.2450         0.000000   
    318. D(C   7,C   6,C   5,C   3)    -48.3464         0.000000   
    319. D(C   5,C   6,C   2,C   4)    -28.0369         0.000000   
    320. D(C   5,C   6,C   2,H  13)   -125.7338         0.000000   
    321. D(C   5,C   6,C   2,C   3)      0.1233         0.000000   
    322. D(C   5,C   6,C   2,C   1)    121.3812         0.000000   
    323. D(C   7,C   6,C   5,H  16)   -172.8626         0.000000   
    324. D(C   3,C   7,C   6,C   2)    -26.3945         0.000000   
    325. D(C   3,C   7,C   6,H  17)   -125.0842         0.000000   
    326. D(C   3,C   7,C   6,C   5)     48.0234         0.000000   
    327. D(C   2,C   7,C   6,H  17)    -98.6898         0.000000   
    328. D(C   1,C   7,C   6,C   2)     25.3989         0.000000   
    329. D(C   1,C   7,C   6,H  17)    -73.2908         0.000000   
    330. D(C   1,C   7,C   6,C   5)     99.8168         0.000000   
    331. D(H  18,C   7,C   6,H  17)     12.1533         0.000000   
    332. D(H  18,C   7,C   6,C   5)   -174.7391         0.000000   
    333. D(C   8,C   7,C   6,C   2)    -92.0224         0.000000   
    334. D(C   8,C   7,C   6,C   5)    -17.6045         0.000000   
    335. D(C   2,C   7,C   3,C   8)    137.5301         0.000000   
    336. D(C   2,C   7,C   3,C   5)   -141.8545         0.000000   
    337. D(C   2,C   7,C   3,C   4)   -179.6635         0.000000   
    338. D(C   2,C   7,C   3,H  14)    110.8844         0.000000   
    339. D(C   2,C   7,C   3,C  11)   -106.5487         0.000000   
    340. D(C   1,C   7,C   3,C   8)    170.3092         0.000000   
    341. D(C   1,C   7,C   3,C   4)   -146.8844         0.000000   
    342. D(C   1,C   7,C   3,H  14)    143.6634         0.000000   
    343. D(C   1,C   7,C   3,C  11)    -73.7696         0.000000   
    344. D(H  18,C   7,C   3,C   8)    116.2965         0.000000   
    345. D(H  18,C   7,C   3,C   5)   -163.0881         0.000000   
    346. D(H  18,C   7,C   3,C   4)    159.1029         0.000000   
    347. D(H  18,C   7,C   3,C  11)   -127.7823         0.000000   
    348. D(H  18,C   7,C   3,C   2)    -21.2336         0.000000   
    349. D(C   8,C   7,C   3,C   5)     80.6154         0.000000   
    350. D(C   8,C   7,C   3,C   4)     42.8064         0.000000   
    351. D(C   8,C   7,C   3,H  14)    -26.6457         0.000000   
    352. D(C   8,C   7,C   3,C  11)    115.9212         0.000000   
    353. D(C   8,C   7,C   3,C   2)   -137.5301         0.000000   
    354. D(C   6,C   7,C   3,C   5)    -28.3235         0.000000   
    355. D(C   6,C   7,C   3,C   4)    -66.1324         0.000000   
    356. D(C   6,C   7,C   3,H  14)   -135.5845         0.000000   
    357. D(C   6,C   7,C   3,C   2)    113.5311         0.000000   
    358. D(C   3,C   7,C   2,C   8)    -38.4604         0.000000   
    359. D(C   3,C   7,C   2,C   6)     68.6096         0.000000   
    360. D(C   3,C   7,C   2,C   4)      0.2646         0.000000   
    361. D(C   3,C   7,C   2,H  13)   -121.4576         0.000000   
    362. D(C   3,C   7,C   2,C   1)    124.0989         0.000000   
    363. D(C   1,C   7,C   2,C   8)   -162.5593         0.000000   
    364. D(C   6,C   7,C   3,C  11)      6.9824         0.000000   
    365. D(C   1,C   7,C   2,C   4)   -123.8343         0.000000   
    366. D(C   1,C   7,C   2,H  13)    114.4435         0.000000   
    367. D(C   1,C   7,C   2,C   3)   -124.0989         0.000000   
    368. D(C   6,C   7,C   3,C   8)   -108.9388         0.000000   
    369. D(H  18,C   7,C   2,H  13)     41.6345         0.000000   
    370. D(H  18,C   7,C   2,C   3)    163.0921         0.000000   
    371. D(H  18,C   7,C   2,C   1)    -72.8091         0.000000   
    372. D(C   8,C   7,C   2,C   6)    107.0700         0.000000   
    373. D(H  18,C   7,C   2,C   4)    163.3567         0.000000   
    374. D(C   8,C   7,C   2,C   4)     38.7250         0.000000   
    375. D(C   8,C   7,C   2,H  13)    -82.9972         0.000000   
    376. D(H  18,C   7,C   3,H  14)     89.6508         0.000000   
    377. D(C   8,C   7,C   2,C   3)     38.4604         0.000000   
    378. D(H  18,C   7,C   2,C   8)    124.6316         0.000000   
    379. D(C   8,C   7,C   2,C   1)    162.5593         0.000000   
    380. D(C   1,C   7,C   3,C   2)     32.7790         0.000000   
    381. D(C   6,C   7,C   2,C   8)   -107.0700         0.000000   
    382. D(C   6,C   7,C   2,C   4)    -68.3450         0.000000   
    383. D(C   6,C   7,C   2,H  13)    169.9328         0.000000   
    384. D(C   1,C   7,C   3,C   5)   -109.0755         0.000000   
    385. D(C   6,C   7,C   2,C   3)    -68.6096         0.000000   
    386. D(C   6,C   7,C   2,C   1)     55.4893         0.000000   
    387. D(C   1,C   7,C   2,C   6)    -55.4893         0.000000   
    388. D(H  18,C   7,C   2,C   6)   -128.2983         0.000000   
    389. D(C   3,C   7,C   1,C   9)     75.1964         0.000000   
    390. D(C   3,C   7,C   1,C   2)    -30.0840         0.000000   
    391. D(C   3,C   7,C   1,O   0)   -152.0680         0.000000   
    392. D(C   8,C   7,C   6,H  17)    169.2878         0.000000   
    393. D(C   2,C   7,C   1,C   9)    105.2803         0.000000   
    394. D(H  18,C   7,C   1,O   0)    -11.7131         0.000000   
    395. D(C   6,C   7,C   1,C   9)    -19.7313         0.000000   
    396. D(H  18,C   7,C   6,C   2)    110.8431         0.000000   
    397. D(C   6,C   7,C   1,O   0)    113.0043         0.000000   
    398. D(C   6,C   7,C   1,C   2)   -125.0116         0.000000   
    399. D(C   8,C   7,C   1,C   9)     85.3526         0.000000   
    400. D(C   2,C   7,C   6,C   5)     74.4179         0.000000   
    401. D(C   8,C   7,C   1,C   2)    -19.9277         0.000000   
    402. D(H  18,C   7,C   1,C   2)    110.2710         0.000000   
    403. D(C   8,C   7,C   1,O   0)   -141.9118         0.000000   
    404. D(C   2,C   7,C   1,O   0)   -121.9840         0.000000   
    405. D(H  18,C   7,C   1,C   9)   -144.4487         0.000000   
    406. D(H  19,C   8,C   2,C   1)    -44.8482         0.000000   
    407. D(C   7,C   8,C   2,C   6)    -37.2918         0.000000   
    408. D(C   7,C   8,C   2,C   4)   -107.6586         0.000000   
    409. D(C   7,C   8,C   2,H  13)     95.8069         0.000000   
    410. D(C   7,C   8,C   2,C   3)   -140.9309         0.000000   
    411. D(C   7,C   8,C   2,C   1)    -22.9353         0.000000   
    412. D(C   4,C   8,C   2,C   7)    107.6586         0.000000   
    413. D(C   4,C   8,C   2,C   6)     70.3668         0.000000   
    414. D(C   4,C   8,C   2,H  13)   -156.5345         0.000000   
    415. D(C   4,C   8,C   2,C   3)    -33.2723         0.000000   
    416. D(H  19,C   8,C   2,C   3)   -162.8437         0.000000   
    417. D(C   4,C   8,C   2,C   1)     84.7233         0.000000   
    418. D(C   3,C   8,C   7,C   1)     -8.6836         0.000000   
    419. D(C   3,C   8,C   7,H  18)   -121.3397         0.000000   
    420. D(C   3,C   8,C   7,C   6)     81.4352         0.000000   
    421. D(C   2,C   8,C   7,C   3)     18.8063         0.000000   
    422. D(C   2,C   8,C   7,C   1)     10.1227         0.000000   
    423. D(C   2,C   8,C   7,H  18)   -102.5335         0.000000   
    424. D(C   2,C   8,C   7,C   6)    100.2414         0.000000   
    425. D(H  20,C   8,C   7,C   2)     52.6335         0.000000   
    426. D(H  20,C   8,C   7,C   1)     62.7562         0.000000   
    427. D(H  20,C   8,C   7,H  18)    -49.8999         0.000000   
    428. D(H  19,C   8,C   7,C   3)   -167.6568         0.000000   
    429. D(H  19,C   8,C   7,C   2)    173.5370         0.000000   
    430. D(H  19,C   8,C   7,C   1)   -176.3404         0.000000   
    431. D(H  19,C   8,C   7,C   6)    -86.2216         0.000000   
    432. D(C   4,C   8,C   7,C   3)    -55.1700         0.000000   
    433. D(C   4,C   8,C   7,C   2)    -73.9763         0.000000   
    434. D(C   4,C   8,C   7,C   1)    -63.8536         0.000000   
    435. D(C   4,C   8,C   7,H  18)   -176.5098         0.000000   
    436. D(C   4,C   8,C   7,C   6)     26.2651         0.000000   
    437. D(C   3,C   8,C   4,C  11)     -9.6111         0.000000   
    438. D(C   3,C   8,C   4,H  15)    102.0191         0.000000   
    439. D(C   3,C   8,C   4,C   5)    -99.2917         0.000000   
    440. D(C   2,C   8,C   4,C  11)      9.4911         0.000000   
    441. D(C   2,C   8,C   4,H  15)    121.1212         0.000000   
    442. D(C   2,C   8,C   4,C   5)    -80.1896         0.000000   
    443. D(H  20,C   8,C   4,C  11)    -63.1991         0.000000   
    444. D(H  20,C   8,C   4,C   2)    -72.6902         0.000000   
    445. D(H  20,C   8,C   4,H  15)     48.4310         0.000000   
    446. D(H  20,C   8,C   4,C   5)   -152.8798         0.000000   
    447. D(H  19,C   8,C   4,C  11)    176.0446         0.000000   
    448. D(H  19,C   8,C   4,C   3)   -174.3444         0.000000   
    449. D(H  19,C   8,C   4,C   2)    166.5535         0.000000   
    450. D(H  19,C   8,C   4,H  15)    -72.3253         0.000000   
    451. D(C   7,C   8,C   4,C  11)     63.5827         0.000000   
    452. D(C   7,C   8,C   4,C   3)     73.1938         0.000000   
    453. D(C   7,C   8,C   4,C   2)     54.0916         0.000000   
    454. D(C   7,C   8,C   4,H  15)    175.2129         0.000000   
    455. D(C   7,C   8,C   4,C   5)    -26.0979         0.000000   
    456. D(C   2,C   8,C   3,C   7)    -32.1702         0.000000   
    457. D(C   2,C   8,C   3,C   5)   -102.9494         0.000000   
    458. D(C   2,C   8,C   3,C   4)   -140.1039         0.000000   
    459. D(C   2,C   8,C   3,H  14)    123.5195         0.000000   
    460. D(C   2,C   8,C   3,C  11)   -118.3161         0.000000   
    461. D(H  20,C   8,C   3,C   7)   -119.7105         0.000000   
    462. D(H  20,C   8,C   3,C   5)    169.5103         0.000000   
    463. D(H  20,C   8,C   3,C   4)    132.3558         0.000000   
    464. D(H  19,C   8,C   4,C   5)     86.3639         0.000000   
    465. D(H  20,C   8,C   3,H  14)     35.9792         0.000000   
    466. D(H  20,C   8,C   3,C  11)    154.1436         0.000000   
    467. D(H  20,C   8,C   3,C   2)    -87.5403         0.000000   
    468. D(H  19,C   8,C   3,C   7)    128.9420         0.000000   
    469. D(H  19,C   8,C   3,C   5)     58.1628         0.000000   
    470. D(H  19,C   8,C   3,C   4)     21.0082         0.000000   
    471. D(H  19,C   8,C   3,H  14)    -75.3683         0.000000   
    472. D(H  20,C   8,C   4,C   3)    -53.5880         0.000000   
    473. D(H  19,C   8,C   3,C  11)     42.7961         0.000000   
    474. D(H  19,C   8,C   3,C   2)    161.1122         0.000000   
    475. D(C   7,C   8,C   3,C   5)    -70.7792         0.000000   
    476. D(C   2,C   8,C   4,C   3)     19.1022         0.000000   
    477. D(C   7,C   8,C   3,C   4)   -107.9338         0.000000   
    478. D(C   7,C   8,C   3,H  14)    155.6897         0.000000   
    479. D(C   7,C   8,C   3,C  11)    -86.1459         0.000000   
    480. D(C   3,C   8,C   4,C   2)    -19.1022         0.000000   
    481. D(C   7,C   8,C   3,C   2)     32.1702         0.000000   
    482. D(C   4,C   8,C   3,C   7)    107.9338         0.000000   
    483. D(C   4,C   8,C   3,C   5)     37.1546         0.000000   
    484. D(C   4,C   8,C   3,H  14)    -96.3766         0.000000   
    485. D(C   4,C   8,C   3,C  11)     21.7878         0.000000   
    486. D(C   4,C   8,C   3,C   2)    140.1039         0.000000   
    487. D(C   3,C   8,C   2,C   7)    140.9309         0.000000   
    488. D(H  19,C   8,C   7,H  18)     71.0035         0.000000   
    489. D(C   3,C   8,C   2,C   6)    103.6391         0.000000   
    490. D(C   3,C   8,C   2,C   4)     33.2723         0.000000   
    491. D(C   3,C   8,C   2,H  13)   -123.2623         0.000000   
    492. D(H  20,C   8,C   7,C   6)    152.8750         0.000000   
    493. D(C   3,C   8,C   2,C   1)    117.9956         0.000000   
    494. D(H  20,C   8,C   2,C   7)   -133.3839         0.000000   
    495. D(H  20,C   8,C   2,C   6)   -170.6756         0.000000   
    496. D(H  20,C   8,C   7,C   3)     71.4398         0.000000   
    497. D(H  20,C   8,C   2,C   4)    118.9575         0.000000   
    498. D(H  20,C   8,C   2,H  13)    -37.5770         0.000000   
    499. D(H  20,C   8,C   2,C   3)     85.6853         0.000000   
    500. D(H  20,C   8,C   2,C   1)   -156.3192         0.000000   
    501. D(H  19,C   8,C   2,C   7)    -21.9128         0.000000   
    502. D(H  19,C   8,C   2,C   6)    -59.2046         0.000000   
    503. D(H  19,C   8,C   2,C   4)   -129.5714         0.000000   
    504. D(C   3,C   8,C   7,C   2)    -18.8063         0.000000   
    505. D(H  19,C   8,C   2,H  13)     73.8940         0.000000   
    506. D(H  21,C   9,C   1,C   7)    117.4938         0.000000   
    507. D(H  21,C   9,C   1,C   2)    174.0684         0.000000   
    508. D(H  21,C   9,C   1,O   0)     -6.1852         0.000000   
    509. D(C  10,C   9,C   1,C   7)    -65.0759         0.000000   
    510. D(C  10,C   9,C   1,C   2)     -8.5014         0.000000   
    511. D(C  10,C   9,C   1,O   0)    171.2451         0.000000   
    512. D(H  22,C  10,C   9,H  21)     -0.1051         0.000000   
    513. D(H  22,C  10,C   9,C   1)   -177.3619         0.000000   
    514. D(C  11,C  10,C   9,H  21)    177.4778         0.000000   
    515. D(C  11,C  10,C   9,C   1)      0.2210         0.000000   
    516. D(C   4,C  11,C  10,H  22)   -116.8115         0.000000   
    517. D(C   4,C  11,C  10,C   9)     65.4491         0.000000   
    518. D(O  12,C  11,C  10,H  22)      5.6036         0.000000   
    519. D(O  12,C  11,C  10,C   9)   -172.1358         0.000000   
    520. D(C   3,C  11,C  10,H  22)   -174.6076         0.000000   
    521. D(C   3,C  11,C  10,C   9)      7.6529         0.000000   
    522. D(O  12,C  11,C   4,C   3)    122.5636         0.000000   
    523. D(O  12,C  11,C   4,H  15)     11.6836         0.000000   
    524. D(O  12,C  11,C   4,C   8)    141.5042         0.000000   
    525. D(O  12,C  11,C   4,C   5)   -113.2362         0.000000   
    526. D(C  10,C  11,C   4,C   2)    -75.3583         0.000000   
    527. D(C  10,C  11,C   4,H  15)    143.7470         0.000000   
    528. D(C  10,C  11,C   4,C   8)    -86.4324         0.000000   
    529. D(C   3,C  11,C   4,C   2)     30.0147         0.000000   
    530. D(C   3,C  11,C   4,H  15)   -110.8800         0.000000   
    531. D(C   3,C  11,C   4,C   8)     18.9406         0.000000   
    532. D(C   3,C  11,C   4,C   5)    124.2002         0.000000   
    533. D(C   4,C  11,C   3,C   8)    -12.1321         0.000000   
    534. D(C   4,C  11,C   3,C   7)    -49.3413         0.000000   
    535. D(C   4,C  11,C   3,C   5)    -23.9755         0.000000   
    536. D(C  10,C  11,C   4,C   5)     18.8273         0.000000   
    537. D(C   4,C  11,C   3,H  14)     92.9998         0.000000   
    538. D(C   4,C  11,C   3,C   2)   -108.0048         0.000000   
    539. D(O  12,C  11,C   3,C   8)    -91.4606         0.000000   
    540. D(C  10,C  11,C   4,C   3)   -105.3730         0.000000   
    541. D(O  12,C  11,C   3,C   7)   -128.6698         0.000000   
    542. D(O  12,C  11,C   3,C   5)   -103.3040         0.000000   
    543. D(O  12,C  11,C   3,C   4)    -79.3285         0.000000   
    544. D(O  12,C  11,C   4,C   2)    152.5782         0.000000   
    545. D(O  12,C  11,C   3,H  14)     13.6713         0.000000   
    546. D(O  12,C  11,C   3,C   2)    172.6667         0.000000   
    547. D(C  10,C  11,C   3,C   8)     88.7560         0.000000   
    548. D(C  10,C  11,C   3,C   7)     51.5468         0.000000   
    549. D(C  10,C  11,C   3,C   5)     76.9126         0.000000   
    550. D(C  10,C  11,C   3,C   4)    100.8881         0.000000   
    551. D(C  10,C  11,C   3,H  14)   -166.1121         0.000000   
    552. D(C  10,C  11,C   3,C   2)     -7.1167         0.000000   
    -----------------------------------------------------------------

Number of atoms                         .... 23
Number of degrees of freedom            .... 552

         *************************************************************
         *                GEOMETRY OPTIMIZATION CYCLE   1            *
         *************************************************************
---------------------------------
CARTESIAN COORDINATES (ANGSTROEM)
---------------------------------
  O      1.537539    2.522765    0.929235
  C      1.399774    1.388649    0.510094
  C      0.603105    0.361635    1.212901
  C      0.625325   -0.971786    0.798856
  C     -1.410299   -1.174447   -0.165785
  C     -1.225199   -0.345598   -1.272077
  C     -1.232137    0.991817   -0.842758
  C     -1.413754    1.019514    0.541794
  C     -1.954413   -0.322952    0.940023
  C      2.044558    0.963581   -0.756894
  C      2.056931   -0.318721   -1.158790
  C      1.422057   -1.401447   -0.366121
  O      1.568421   -2.569286   -0.677098
  H      0.345844    0.621750    2.242641
  H      0.371501   -1.775002    1.493783
  H     -1.514346   -2.260177   -0.214224
  H     -0.993905   -0.690203   -2.280955
  H     -1.009851    1.859324   -1.465208
  H     -1.540797    1.930208    1.129973
  H     -3.057215   -0.288121    0.826449
  H     -1.736499   -0.656243    1.963018
  H      2.546111    1.756180   -1.318683
  H      2.567349   -0.641540   -2.070376

----------------------------
CARTESIAN COORDINATES (A.U.)
----------------------------
  NO LB      ZA    FRAG     MASS         X           Y           Z
   0 O     8.0000    0    15.999    2.905528    4.767335    1.756000
   1 C     6.0000    0    12.011    2.645190    2.624166    0.963938
   2 C     6.0000    0    12.011    1.139703    0.683391    2.292051
   3 C     6.0000    0    12.011    1.181693   -1.836409    1.509619
   4 C     6.0000    0    12.011   -2.665079   -2.219383   -0.313288
   5 C     6.0000    0    12.011   -2.315291   -0.653086   -2.403877
   6 C     6.0000    0    12.011   -2.328401    1.874263   -1.592582
   7 C     6.0000    0    12.011   -2.671608    1.926602    1.023842
   8 C     6.0000    0    12.011   -3.693305   -0.610291    1.776386
   9 C     6.0000    0    12.011    3.863655    1.820904   -1.430322
  10 C     6.0000    0    12.011    3.887036   -0.602295   -2.189796
  11 C     6.0000    0    12.011    2.687298   -2.648351   -0.691868
  12 O     8.0000    0    15.999    2.963886   -4.855247   -1.279530
  13 H     1.0000    0     1.008    0.653550    1.174937    4.237977
  14 H     1.0000    0     1.008    0.702035   -3.354268    2.822841
  15 H     1.0000    0     1.008   -2.861699   -4.271116   -0.404825
  16 H     1.0000    0     1.008   -1.878208   -1.304295   -4.310380
  17 H     1.0000    0     1.008   -1.908342    3.513613   -2.768842
  18 H     1.0000    0     1.008   -2.911684    3.647565    2.135340
  19 H     1.0000    0     1.008   -5.777299   -0.544470    1.561762
  20 H     1.0000    0     1.008   -3.281508   -1.240120    3.709566
  21 H     1.0000    0     1.008    4.811452    3.318699   -2.491950
  22 H     1.0000    0     1.008    4.851587   -1.212335   -3.912444

--------------------------------
INTERNAL COORDINATES (ANGSTROEM)
--------------------------------
 O      0   0   0     0.000000000000     0.00000000     0.00000000
 C      1   0   0     1.216913092444     0.00000000     0.00000000
 C      2   1   0     1.477625436640   123.02252166     0.00000000
 C      3   2   1     1.396402002887   120.93645561   189.11658340
 C      4   3   2     2.261718110017   101.40279187   253.19869861
 C      5   4   3     1.394680846669    99.53284224    67.95007152
 C      6   5   4     1.404650070954   108.82928394   286.47287530
 C      7   6   5     1.396687545302   108.81473585     0.35959646
 C      5   4   3     1.497970331110    87.77285949   320.86492503
 C      2   1   3     1.483808546755   120.78950753   180.27139769
 C     10   2   1     1.343864541220   122.18864195   171.24505740
 C      4   3   2     1.475317547267   121.38776217   358.87723201
 O     12   4   3     1.217364795345   123.09504493   172.66667659
 H      3   2   1     1.092798015621   114.18432205   346.26490893
 H      4   3   2     1.092019276827   120.66191352   156.58387873
 H      5   4   3     1.091779166237   101.17492096   196.31955189
 H      6   5   4     1.090909867654   125.02853986    99.75705306
 H      7   6   5     1.090606924306   125.58521684   173.43452402
 H      8   7   6     1.091539289960   124.46136002   185.26093135
 H      9   5   4     1.109181907192   107.66235488   185.65563291
 H      9   5   4     1.097765080562   116.31070648   306.41196606
 H     10   2   1     1.093332276635   115.49407067   353.81480304
 H     11  10   2     1.093493336459   122.36437729   182.63809380

---------------------------
INTERNAL COORDINATES (A.U.)
---------------------------
 O      0   0   0     0.000000000000     0.00000000     0.00000000
 C      1   0   0     2.299632473503     0.00000000     0.00000000
 C      2   1   0     2.792307403766   123.02252166     0.00000000
 C      3   2   1     2.638817358315   120.93645561   189.11658340
 C      4   3   2     4.274027820062   101.40279187   253.19869861
 C      5   4   3     2.635564844430    99.53284224    67.95007152
 C      6   5   4     2.654403948095   108.82928394   286.47287530
 C      7   6   5     2.639356955280   108.81473585     0.35959646
 C      5   4   3     2.830753682537    87.77285949   320.86492503
 C      2   1   3     2.803991788539   120.78950753   180.27139769
 C     10   2   1     2.539535943994   122.18864195   171.24505740
 C      4   3   2     2.787946124903   121.38776217   358.87723201
 O     12   4   3     2.300486068280   123.09504493   172.66667659
 H      3   2   1     2.065088969217   114.18432205   346.26490893
 H      4   3   2     2.063617366165   120.66191352   156.58387873
 H      5   4   3     2.063163622910   101.17492096   196.31955189
 H      6   5   4     2.061520886658   125.02853986    99.75705306
 H      7   6   5     2.060948406697   125.58521684   173.43452402
 H      8   7   6     2.062710322439   124.46136002   185.26093135
 H      9   5   4     2.096050037292   107.66235488   185.65563291
 H      9   5   4     2.074475361645   116.31070648   306.41196606
 H     10   2   1     2.066098576216   115.49407067   353.81480304
 H     11  10   2     2.066402935176   122.36437729   182.63809380

---------------------
BASIS SET INFORMATION
---------------------
There are 3 groups of distinct atoms

 Group   1 Type O   : 7s4p1d contracted to 3s2p1d pattern {511/31/1}
 Group   2 Type C   : 7s4p1d contracted to 3s2p1d pattern {511/31/1}
 Group   3 Type H   : 4s1p contracted to 2s1p pattern {31/1}

Atom   0O    basis set group =>   1
Atom   1C    basis set group =>   2
Atom   2C    basis set group =>   2
Atom   3C    basis set group =>   2
Atom   4C    basis set group =>   2
Atom   5C    basis set group =>   2
Atom   6C    basis set group =>   2
Atom   7C    basis set group =>   2
Atom   8C    basis set group =>   2
Atom   9C    basis set group =>   2
Atom  10C    basis set group =>   2
Atom  11C    basis set group =>   2
Atom  12O    basis set group =>   1
Atom  13H    basis set group =>   3
Atom  14H    basis set group =>   3
Atom  15H    basis set group =>   3
Atom  16H    basis set group =>   3
Atom  17H    basis set group =>   3
Atom  18H    basis set group =>   3
Atom  19H    basis set group =>   3
Atom  20H    basis set group =>   3
Atom  21H    basis set group =>   3
Atom  22H    basis set group =>   3
-------------------------------
AUXILIARY BASIS SET INFORMATION
-------------------------------
There are 3 groups of distinct atoms

 Group   1 Type O   : 12s5p4d2f1g contracted to 6s4p3d1f1g pattern {711111/2111/211/2/1}
 Group   2 Type C   : 12s5p4d2f1g contracted to 6s4p3d1f1g pattern {711111/2111/211/2/1}
 Group   3 Type H   : 5s2p1d contracted to 3s1p1d pattern {311/2/1}

Atom   0O    basis set group =>   1
Atom   1C    basis set group =>   2
Atom   2C    basis set group =>   2
Atom   3C    basis set group =>   2
Atom   4C    basis set group =>   2
Atom   5C    basis set group =>   2
Atom   6C    basis set group =>   2
Atom   7C    basis set group =>   2
Atom   8C    basis set group =>   2
Atom   9C    basis set group =>   2
Atom  10C    basis set group =>   2
Atom  11C    basis set group =>   2
Atom  12O    basis set group =>   1
Atom  13H    basis set group =>   3
Atom  14H    basis set group =>   3
Atom  15H    basis set group =>   3
Atom  16H    basis set group =>   3
Atom  17H    basis set group =>   3
Atom  18H    basis set group =>   3
Atom  19H    basis set group =>   3
Atom  20H    basis set group =>   3
Atom  21H    basis set group =>   3
Atom  22H    basis set group =>   3


           ************************************************************
           *        Program running with 8 parallel MPI-processes     *
           *              working on a common directory               *
           ************************************************************
------------------------------------------------------------------------------
                           ORCA GTO INTEGRAL CALCULATION
                           -- RI-GTO INTEGRALS CHOSEN --
------------------------------------------------------------------------------

                         BASIS SET STATISTICS AND STARTUP INFO

Gaussian basis set:
 # of primitive gaussian shells          ...  206
 # of primitive gaussian functions       ...  382
 # of contracted shells                  ...  108
 # of contracted basis functions         ...  232
 Highest angular momentum                ...    2
 Maximum contraction depth               ...    5
Auxiliary gaussian basis set:
 # of primitive gaussian shells          ...  392
 # of primitive gaussian functions       ... 1070
 # of contracted shells                  ...  245
 # of contracted aux-basis functions     ...  747
 Highest angular momentum                ...    4
 Maximum contraction depth               ...    7
Ratio of auxiliary to basis functions    ...  3.22
Integral package used                  ... LIBINT
 One Electron integrals                  ... done
 Ordering auxiliary basis shells         ... done
 Integral threshhold             Thresh  ...  2.500e-11
 Primitive cut-off               TCut    ...  2.500e-12
 Pre-screening matrix                    ... done
 Shell pair data                         ... 
 Ordering of the shell pairs             ... done (   0.001 sec) 5505 of 5886 pairs
 Determination of significant pairs      ... done (   0.000 sec)
 Creation of shell pair data             ... done (   0.001 sec)
 Storage of shell pair data              ... done (   0.027 sec)
 Shell pair data done in (   0.029 sec)
 Computing two index integrals           ... done
 Cholesky decomposition of the V-matrix  ... done


Timings:
 Total evaluation time                   ...   0.256 sec (  0.004 min)
 One electron matrix time                ...   0.037 sec (  0.001 min) = 14.5%
 Schwartz matrix evaluation time         ...   0.146 sec (  0.002 min) = 57.1%
 Two index repulsion integral time       ...   0.014 sec (  0.000 min) =  5.5%
 Cholesky decomposition of V             ...   0.014 sec (  0.000 min) =  5.3%
 Three index repulsion integral time     ...   0.000 sec (  0.000 min) =  0.0%



           ************************************************************
           *        Program running with 8 parallel MPI-processes     *
           *              working on a common directory               *
           ************************************************************
-------------------------------------------------------------------------------
                                 ORCA SCF
-------------------------------------------------------------------------------

------------
SCF SETTINGS
------------
Hamiltonian:
 Density Functional     Method          .... DFT(GTOs)
 Exchange Functional    Exchange        .... PBE
   PBE kappa parameter   XKappa         ....  0.804000
   PBE mue parameter    XMuePBE         ....  0.219520
 Correlation Functional Correlation     .... PBE
   PBE beta parameter  CBetaPBE         ....  0.066725
 LDA part of GGA corr.  LDAOpt          .... PW91-LDA
 Gradients option       PostSCFGGA      .... off
 Hybrid DFT is turned on
   Fraction HF Exchange ScalHFX         ....  0.250000
   Scaling of DF-GGA-X  ScalDFX         ....  0.750000
   Scaling of DF-GGA-C  ScalDFC         ....  1.000000
   Scaling of DF-LDA-C  ScalLDAC        ....  1.000000
   Perturbative correction              ....  0.000000
   Density functional embedding theory  .... OFF
   NL short-range parameter             ....  6.900000
 RI-approximation to the Coulomb term is turned on
   Number of auxiliary basis functions  .... 747
   RIJ-COSX (HFX calculated with COS-X)).... on


General Settings:
 Integral files         IntName         .... template_ts_guess_orca_opt
 Hartree-Fock type      HFTyp           .... RHF
 Total Charge           Charge          ....    0
 Multiplicity           Mult            ....    1
 Number of Electrons    NEL             ....   92
 Basis Dimension        Dim             ....  232
 Nuclear Repulsion      ENuc            ....    779.6571448072 Eh

Convergence Acceleration:
 DIIS                   CNVDIIS         .... on
   Start iteration      DIISMaxIt       ....    12
   Startup error        DIISStart       ....  0.200000
   # of expansion vecs  DIISMaxEq       ....     5
   Bias factor          DIISBfac        ....   1.050
   Max. coefficient     DIISMaxC        ....  10.000
 Newton-Raphson         CNVNR           .... off
 SOSCF                  CNVSOSCF        .... on
   Start iteration      SOSCFMaxIt      ....   150
   Startup grad/error   SOSCFStart      ....  0.003300
 Level Shifting         CNVShift        .... on
   Level shift para.    LevelShift      ....    0.2500
   Turn off err/grad.   ShiftErr        ....    0.0010
 Zerner damping         CNVZerner       .... off
 Static damping         CNVDamp         .... on
   Fraction old density DampFac         ....    0.7000
   Max. Damping (<1)    DampMax         ....    0.9800
   Min. Damping (>=0)   DampMin         ....    0.0000
   Turn off err/grad.   DampErr         ....    0.1000
 Fernandez-Rico         CNVRico         .... off

SCF Procedure:
 Maximum # iterations   MaxIter         ....   250
 SCF integral mode      SCFMode         .... Direct
   Integral package                     .... LIBINT
 Reset frequency        DirectResetFreq ....    20
 Integral Threshold     Thresh          ....  2.500e-11 Eh
 Primitive CutOff       TCut            ....  2.500e-12 Eh

Convergence Tolerance:
 Convergence Check Mode ConvCheckMode   .... Total+1el-Energy
 Convergence forced     ConvForced      .... 0
 Energy Change          TolE            ....  1.000e-08 Eh
 1-El. energy change                    ....  1.000e-05 Eh
 Orbital Gradient       TolG            ....  1.000e-05
 Orbital Rotation angle TolX            ....  1.000e-05
 DIIS Error             TolErr          ....  5.000e-07


Diagonalization of the overlap matrix:
Smallest eigenvalue                        ... 2.508e-04
Time for diagonalization                   ...    0.006 sec
Threshold for overlap eigenvalues          ... 1.000e-08
Number of eigenvalues below threshold      ... 0
Time for construction of square roots      ...    0.005 sec
Total time needed                          ...    0.011 sec

-------------------
DFT GRID GENERATION
-------------------

General Integration Accuracy     IntAcc      ...  4.340
Radial Grid Type                 RadialGrid  ... Gauss-Chebyshev
Angular Grid (max. acc.)         AngularGrid ... Lebedev-110
Angular grid pruning method      GridPruning ... 3 (G Style)
Weight generation scheme         WeightScheme... Becke
Basis function cutoff            BFCut       ...    1.0000e-11
Integration weight cutoff        WCut        ...    1.0000e-14
Grids for H and He will be reduced by one unit

# of grid points (after initial pruning)     ...  29588 (   0.0 sec)
# of grid points (after weights+screening)   ...  26623 (   0.0 sec)
nearest neighbour list constructed           ...    0.0 sec
Grid point re-assignment to atoms done       ...    0.0 sec
Grid point division into batches done        ...    0.0 sec
Reduced shell lists constructed in    0.0 sec

Total number of grid points                  ...    26623
Total number of batches                      ...      430
Average number of points per batch           ...       61
Average number of grid points per atom       ...     1158
Average number of shells per batch           ...    73.36 (67.93%)
Average number of basis functions per batch  ...   154.82 (66.73%)
Average number of large shells per batch     ...    54.71 (74.57%)
Average number of large basis fcns per batch ...   112.35 (72.57%)
Maximum spatial batch extension              ...  17.18, 15.22, 14.86 au
Average spatial batch extension              ...   0.40,  0.37,  0.37 au

Time for grid setup =    0.100 sec

------------------------------
INITIAL GUESS: MODEL POTENTIAL
------------------------------
Loading Hartree-Fock densities                     ... done
Calculating cut-offs                               ... done
Setting up the integral package                    ... done
Initializing the effective Hamiltonian             ... done
Starting the Coulomb interaction                   ... done (   0.0 sec)
Reading the grid                                   ... done
Mapping shells                                     ... done
Starting the XC term evaluation                    ... done (   0.1 sec)
  promolecular density results
     # of electrons  =     91.994285995
     EX              =    -75.444939565
     EC              =     -3.076667916
     EX+EC           =    -78.521607481
Transforming the Hamiltonian                       ... done (   0.0 sec)
Diagonalizing the Hamiltonian                      ... done (   0.0 sec)
Back transforming the eigenvectors                 ... done (   0.0 sec)
Now organizing SCF variables                       ... done
                      ------------------
                      INITIAL GUESS DONE (   0.3 sec)
                      ------------------
--------------------
COSX GRID GENERATION
--------------------

General Integration Accuracy     IntAcc      ...  3.340
Radial Grid Type                 RadialGrid  ... Gauss-Chebyshev
Angular Grid (max. acc.)         AngularGrid ... Lebedev-50
Angular grid pruning method      GridPruning ... 3 (G Style)
Weight generation scheme         WeightScheme... Becke
Basis function cutoff            BFCut       ...    1.0000e-11
Integration weight cutoff        WCut        ...    1.0000e-14
Grids for H and He will be reduced by one unit

# of grid points (after initial pruning)     ...  10740 (   0.0 sec)
# of grid points (after weights+screening)   ...   9763 (   0.0 sec)
nearest neighbour list constructed           ...    0.0 sec
Grid point re-assignment to atoms done       ...    0.0 sec
Grid point division into batches done        ...    0.0 sec
Reduced shell lists constructed in    0.0 sec

Total number of grid points                  ...     9763
Total number of batches                      ...      163
Average number of points per batch           ...       59
Average number of grid points per atom       ...      424
Average number of shells per batch           ...    78.82 (72.98%)
Average number of basis functions per batch  ...   168.00 (72.41%)
Average number of large shells per batch     ...    61.09 (77.51%)
Average number of large basis fcns per batch ...   127.45 (75.87%)
Maximum spatial batch extension              ...  17.98, 13.83, 14.61 au
Average spatial batch extension              ...   0.56,  0.53,  0.53 au

Overlap Fitting                  UseSFitting ... on
Constructing numerical overlap ... done (      0.0 sec)
Inverting numerical overlap    ... done (      0.0 sec)
Obtaining analytic overlap     ... done (      0.0 sec)
Final contraction and storage  ... done (      0.0 sec)


General Integration Accuracy     IntAcc      ...  3.670
Radial Grid Type                 RadialGrid  ... Gauss-Chebyshev
Angular Grid (max. acc.)         AngularGrid ... Lebedev-50
Angular grid pruning method      GridPruning ... 3 (G Style)
Weight generation scheme         WeightScheme... Becke
Basis function cutoff            BFCut       ...    1.0000e-11
Integration weight cutoff        WCut        ...    1.0000e-14
Grids for H and He will be reduced by one unit

# of grid points (after initial pruning)     ...  13586 (   0.0 sec)
# of grid points (after weights+screening)   ...  12327 (   0.0 sec)
nearest neighbour list constructed           ...    0.0 sec
Grid point re-assignment to atoms done       ...    0.0 sec
Grid point division into batches done        ...    0.0 sec
Reduced shell lists constructed in    0.0 sec

Total number of grid points                  ...    12327
Total number of batches                      ...      204
Average number of points per batch           ...       60
Average number of grid points per atom       ...      536
Average number of shells per batch           ...    77.48 (71.74%)
Average number of basis functions per batch  ...   164.44 (70.88%)
Average number of large shells per batch     ...    58.52 (75.53%)
Average number of large basis fcns per batch ...   121.85 (74.10%)
Maximum spatial batch extension              ...  16.91, 14.63, 15.58 au
Average spatial batch extension              ...   0.48,  0.50,  0.51 au

Overlap Fitting                  UseSFitting ... on
Constructing numerical overlap ... done (      0.0 sec)
Inverting numerical overlap    ... done (      0.0 sec)
Obtaining analytic overlap     ... done (      0.0 sec)
Final contraction and storage  ... done (      0.0 sec)


General Integration Accuracy     IntAcc      ...  4.010
Radial Grid Type                 RadialGrid  ... Gauss-Chebyshev
Angular Grid (max. acc.)         AngularGrid ... Lebedev-110
Angular grid pruning method      GridPruning ... 3 (G Style)
Weight generation scheme         WeightScheme... Becke
Basis function cutoff            BFCut       ...    1.0000e-11
Integration weight cutoff        WCut        ...    1.0000e-14
Grids for H and He will be reduced by one unit

# of grid points (after initial pruning)     ...  25672 (   0.0 sec)
# of grid points (after weights+screening)   ...  23169 (   0.0 sec)
nearest neighbour list constructed           ...    0.0 sec
Grid point re-assignment to atoms done       ...    0.0 sec
Grid point division into batches done        ...    0.0 sec
Reduced shell lists constructed in    0.0 sec

Total number of grid points                  ...    23169
Total number of batches                      ...      374
Average number of points per batch           ...       61
Average number of grid points per atom       ...     1007
Average number of shells per batch           ...    73.98 (68.50%)
Average number of basis functions per batch  ...   156.65 (67.52%)
Average number of large shells per batch     ...    55.58 (75.13%)
Average number of large basis fcns per batch ...   114.42 (73.04%)
Maximum spatial batch extension              ...  16.45, 14.54, 14.06 au
Average spatial batch extension              ...   0.42,  0.37,  0.39 au

Overlap Fitting                  UseSFitting ... on
Constructing numerical overlap ... done (      0.0 sec)
Inverting numerical overlap    ... done (      0.0 sec)
Obtaining analytic overlap     ... done (      0.0 sec)
Final contraction and storage  ... done (      0.0 sec)

Time for X-Grid setup             =    0.272 sec
--------------
SCF ITERATIONS
--------------
ITER       Energy         Delta-E        Max-DP      RMS-DP      [F,P]     Damp
               ***  Starting incremental Fock matrix formation  ***
  0   -574.1937593850   0.000000000000 0.22758358  0.00317963  0.2331466 0.7000
  1   -574.3155160697  -0.121756684716 0.15141802  0.00212208  0.0956655 0.7000
                               ***Turning on DIIS***
  2   -574.3634239779  -0.047907908234 0.15722630  0.00293712  0.0302631 0.0000
  3   -574.4433561836  -0.079932205729 0.11033109  0.00160993  0.0493971 0.0000
  4   -574.4575978971  -0.014241713445 0.00977791  0.00033038  0.0140937 0.0000
  5   -574.4587376113  -0.001139714230 0.01717409  0.00019666  0.0038920 0.0000
                      *** Initiating the SOSCF procedure ***
                           *** Shutting down DIIS ***
                      *** Re-Reading the Fockian *** 
                      *** Removing any level shift *** 
ITER      Energy       Delta-E        Grad      Rot      Max-DP    RMS-DP
  6   -574.45882131  -0.0000837000  0.000313  0.000313  0.003438  0.000058
               *** Restarting incremental Fock matrix formation ***
  7   -574.45882596  -0.0000046530  0.000152  0.000666  0.002276  0.000035
  8   -574.45882390   0.0000020691  0.000247  0.000583  0.001414  0.000021
  9   -574.45882750  -0.0000036056  0.000040  0.000119  0.000284  0.000005
 10   -574.45882745   0.0000000553  0.000067  0.000076  0.000155  0.000003
 11   -574.45882754  -0.0000000925  0.000010  0.000023  0.000101  0.000002
                 **** Energy Check signals convergence ****
              ***Rediagonalizing the Fockian in SOSCF/NRSCF***

               *****************************************************
               *                     SUCCESS                       *
               *           SCF CONVERGED AFTER  12 CYCLES          *
               *****************************************************

Setting up the final grid:

General Integration Accuracy     IntAcc      ...  4.670
Radial Grid Type                 RadialGrid  ... Gauss-Chebyshev
Angular Grid (max. acc.)         AngularGrid ... Lebedev-302
Angular grid pruning method      GridPruning ... 3 (G Style)
Weight generation scheme         WeightScheme... Becke
Basis function cutoff            BFCut       ...    1.0000e-11
Integration weight cutoff        WCut        ...    1.0000e-14
Grids for H and He will be reduced by one unit

# of grid points (after initial pruning)     ... 114696 (   0.0 sec)
# of grid points (after weights+screening)   ... 101054 (   0.1 sec)
nearest neighbour list constructed           ...    0.0 sec
Grid point re-assignment to atoms done       ...    0.0 sec
Grid point division into batches done        ...    0.3 sec
Reduced shell lists constructed in    0.4 sec

Total number of grid points                  ...   101054
Total number of batches                      ...     1591
Average number of points per batch           ...       63
Average number of grid points per atom       ...     4394
Average number of shells per batch           ...    69.58 (64.43%)
Average number of basis functions per batch  ...   146.19 (63.01%)
Average number of large shells per batch     ...    51.82 (74.48%)
Average number of large basis fcns per batch ...   106.58 (72.91%)
Maximum spatial batch extension              ...  14.42, 14.41, 14.71 au
Average spatial batch extension              ...   0.27,  0.25,  0.26 au

Final grid set up in    0.4 sec
Final integration                            ... done (   0.2 sec)
Change in XC energy                          ...     0.000899470
Integrated number of electrons               ...    91.999862323
Previous integrated no of electrons          ...    92.003500010
Old exchange energy                            =    -19.196170508 Eh
New exchange energy                            =    -19.195641270 Eh
Exchange energy change after final integration =      0.000529238 Eh
Total energy after final integration           =   -574.457398833 Eh
Final COS-X integration done in                =     1.870 sec

----------------
TOTAL SCF ENERGY
----------------

Total Energy       :         -574.45739883 Eh          -15631.78053 eV

Components:
Nuclear Repulsion  :          779.65714481 Eh           21215.54949 eV
Electronic Energy  :        -1354.11454364 Eh          -36847.33001 eV
One Electron Energy:        -2326.57314829 Eh          -63309.27395 eV
Two Electron Energy:          972.45860465 Eh           26461.94393 eV

Virial components:
Potential Energy   :        -1143.37994975 Eh          -31112.95018 eV
Kinetic Energy     :          568.92255092 Eh           15481.16966 eV
Virial Ratio       :            2.00972865


DFT components:
N(Alpha)           :       45.999931161292 electrons
N(Beta)            :       45.999931161292 electrons
N(Total)           :       91.999862322585 electrons
E(X)               :      -57.468731164365 Eh       
E(C)               :       -3.094377958940 Eh       
E(XC)              :      -60.563109123306 Eh       
DFET-embed. en.    :        0.000000000000 Eh       

---------------
SCF CONVERGENCE
---------------

  Last Energy change         ...   -1.7101e-09  Tolerance :   1.0000e-08
  Last MAX-Density change    ...    2.6645e-15  Tolerance :   1.0000e-07
  Last RMS-Density change    ...    3.7217e-17  Tolerance :   5.0000e-09
  Last Orbital Gradient      ...    1.2618e-05  Tolerance :   1.0000e-05
  Last Orbital Rotation      ...    1.6113e-05  Tolerance :   1.0000e-05

             **** THE GBW FILE WAS UPDATED (template_ts_guess_orca_opt.gbw) ****
             **** DENSITY FILE WAS UPDATED (template_ts_guess_orca_opt.scfp.tmp) ****
             **** ENERGY FILE WAS UPDATED (template_ts_guess_orca_opt.en.tmp) ****
----------------
ORBITAL ENERGIES
----------------

  NO   OCC          E(Eh)            E(eV) 
   0   2.0000     -19.197880      -522.4009 
   1   2.0000     -19.196332      -522.3588 
   2   2.0000     -10.323881      -280.9271 
   3   2.0000     -10.322816      -280.8981 
   4   2.0000     -10.279384      -279.7162 
   5   2.0000     -10.278752      -279.6991 
   6   2.0000     -10.265537      -279.3395 
   7   2.0000     -10.263917      -279.2954 
   8   2.0000     -10.263165      -279.2749 
   9   2.0000     -10.262136      -279.2469 
  10   2.0000     -10.260557      -279.2040 
  11   2.0000     -10.258738      -279.1544 
  12   2.0000     -10.258258      -279.1414 
  13   2.0000      -1.059120       -28.8201 
  14   2.0000      -1.056362       -28.7451 
  15   2.0000      -0.918637       -24.9974 
  16   2.0000      -0.858680       -23.3659 
  17   2.0000      -0.790426       -21.5086 
  18   2.0000      -0.748281       -20.3618 
  19   2.0000      -0.747924       -20.3520 
  20   2.0000      -0.704600       -19.1731 
  21   2.0000      -0.642514       -17.4837 
  22   2.0000      -0.603519       -16.4226 
  23   2.0000      -0.593269       -16.1437 
  24   2.0000      -0.564498       -15.3608 
  25   2.0000      -0.556559       -15.1447 
  26   2.0000      -0.518008       -14.0957 
  27   2.0000      -0.501542       -13.6477 
  28   2.0000      -0.490964       -13.3598 
  29   2.0000      -0.479039       -13.0353 
  30   2.0000      -0.463430       -12.6106 
  31   2.0000      -0.438515       -11.9326 
  32   2.0000      -0.429183       -11.6787 
  33   2.0000      -0.424389       -11.5482 
  34   2.0000      -0.418570       -11.3899 
  35   2.0000      -0.415501       -11.3064 
  36   2.0000      -0.413996       -11.2654 
  37   2.0000      -0.408446       -11.1144 
  38   2.0000      -0.399408       -10.8684 
  39   2.0000      -0.392073       -10.6689 
  40   2.0000      -0.346053        -9.4166 
  41   2.0000      -0.305705        -8.3186 
  42   2.0000      -0.274935        -7.4814 
  43   2.0000      -0.273853        -7.4519 
  44   2.0000      -0.270418        -7.3584 
  45   2.0000      -0.259074        -7.0498 
  46   0.0000      -0.094523        -2.5721 
  47   0.0000      -0.042122        -1.1462 
  48   0.0000      -0.024408        -0.6642 
  49   0.0000       0.040116         1.0916 
  50   0.0000       0.057717         1.5706 
  51   0.0000       0.066679         1.8144 
  52   0.0000       0.089439         2.4338 
  53   0.0000       0.091911         2.5010 
  54   0.0000       0.107394         2.9223 
  55   0.0000       0.109032         2.9669 
  56   0.0000       0.124955         3.4002 
  57   0.0000       0.130356         3.5472 
  58   0.0000       0.143923         3.9163 
  59   0.0000       0.158700         4.3184 
  60   0.0000       0.161224         4.3871 
  61   0.0000       0.187464         5.1011 
  62   0.0000       0.188161         5.1201 
  63   0.0000       0.198742         5.4080 
  64   0.0000       0.217540         5.9196 
  65   0.0000       0.245985         6.6936 
  66   0.0000       0.247997         6.7483 
  67   0.0000       0.276258         7.5174 
  68   0.0000       0.310444         8.4476 
[...]
      5      -0.000027  -0.000234   0.001047   0.000694  -0.002119  -0.000039
      6      -0.000727   0.017818   0.005646   0.010753   0.002396   0.000323
      7       0.000639  -0.015852  -0.005286  -0.013960  -0.002499  -0.000102
      8       0.002183  -0.065988  -0.020999  -0.042053  -0.008539  -0.000905
      9      -0.000737  -0.010729  -0.003236   0.017574   0.003281  -0.001152
     10      -0.001825  -0.029097  -0.009044   0.056179   0.009749  -0.003542
     11       0.001468   0.027994   0.008413  -0.045156  -0.008075   0.003061
     12      -0.001591   0.000353   0.000186  -0.000066  -0.000015  -0.004111
     13      -0.002478   0.002186   0.000874  -0.005705  -0.001194  -0.054268
     14       0.001086   0.000392   0.000158   0.000370   0.000045  -0.002642
     15      -0.000205   0.000172   0.000137  -0.000287  -0.000027  -0.009859
     16       0.000521  -0.000011  -0.000076   0.001251   0.000157   0.015975
     17       0.000241  -0.000593  -0.000429   0.001381   0.000135   0.043475
     18      -0.000189  -0.000146  -0.000116   0.000073   0.000077   0.006676
     19      -0.000544  -0.000632  -0.000368  -0.000578   0.000185   0.026535
     20      -0.000104   0.000307   0.000228  -0.000454  -0.000249  -0.019588
     21      -0.001608  -0.000302  -0.000167   0.000197   0.000052   0.002867
     22       0.001188   0.002624   0.000977   0.001616   0.000253  -0.025127
     23       0.002201   0.001711   0.000608   0.001846   0.000288  -0.016154
     24      -0.031755  -0.000227  -0.000072  -0.000973  -0.000106  -0.000205
     25       0.025115   0.000045   0.000024   0.000824   0.000129   0.001412
     26      -0.079013  -0.000624  -0.000208  -0.002331  -0.000346   0.001922
     27      -0.000029  -0.007755   0.025558   0.004929  -0.028730   0.000212
     28      -0.000128  -0.011107   0.038329   0.009353  -0.051897   0.000347
     29       0.000061   0.009062  -0.029457  -0.005133   0.030419  -0.000243
     30      -0.000031   0.009185  -0.028239   0.004829  -0.026609  -0.000088
     31       0.000073  -0.005188   0.016221  -0.004689   0.023245   0.000041
     32       0.000124  -0.016341   0.050362  -0.009253   0.049768   0.000127
     33      -0.000026   0.000336   0.000494  -0.001203   0.000348   0.000018
     34      -0.000172  -0.001105   0.001432   0.001384   0.002974  -0.000062
     35      -0.000159  -0.000213  -0.000425   0.001840  -0.000344   0.000041
     36       0.000004  -0.000047   0.000008   0.000134   0.000047  -0.000008
     37       0.000044   0.000250  -0.000346  -0.000474  -0.000958   0.000019
     38       0.000032   0.000001  -0.000060  -0.000264  -0.000130  -0.000012
     39       0.007300  -0.200470  -0.063408  -0.123922  -0.025335  -0.002538
     40      -0.006173   0.186996   0.059526   0.118907   0.023585   0.002731
     41      -0.022209   0.763901   0.241820   0.473142   0.095434   0.010853
     42       0.007298   0.119121   0.035964  -0.201491  -0.035549   0.012539
     43       0.018333   0.359021   0.108945  -0.613457  -0.107005   0.040943
     44      -0.014983  -0.316104  -0.095521   0.533472   0.093400  -0.035758
     45       0.006191  -0.001962  -0.000939   0.004624   0.000926   0.056264
     46       0.038264  -0.023889  -0.010041   0.061064   0.012758   0.624174
     47       0.000391  -0.000959  -0.000399   0.002303   0.000479   0.026338
     48       0.000840  -0.001794  -0.001547   0.004275   0.000280   0.117897
     49      -0.000680   0.002566   0.001875  -0.006563  -0.000818  -0.177024
     50      -0.000999   0.007503   0.005385  -0.018788  -0.002070  -0.516203
     51       0.000767   0.001859   0.001415   0.000166  -0.000950  -0.079285
     52       0.000893   0.007330   0.004585   0.001032  -0.002845  -0.318286
     53      -0.000249  -0.005266  -0.003244  -0.000618   0.002155   0.230052
     54       0.006744   0.003169   0.001325   0.001986   0.000177  -0.039267
     55      -0.029249  -0.027745  -0.010608  -0.019902  -0.002850   0.293154
     56      -0.020377  -0.018131  -0.006941  -0.013126  -0.001896   0.190006
     57       0.206678   0.000956   0.000275   0.004380   0.000072   0.001433
     58      -0.001237   0.000221   0.000109  -0.000592  -0.000076  -0.001583
     59       0.010279   0.000449   0.000152   0.001550   0.000152  -0.000592
     60       0.203146   0.001228   0.000412   0.005313   0.000830  -0.002310
     61      -0.289656  -0.002940  -0.000981  -0.008940  -0.001333   0.001336
     62       0.905579   0.006542   0.002182   0.028324   0.004177  -0.013361
     63       0.000382   0.089344  -0.296178  -0.058550   0.333504  -0.002513
     64       0.000663   0.138483  -0.462650  -0.092629   0.524247  -0.003926
     65      -0.000242  -0.100484   0.334086   0.065596  -0.373732   0.002937
     66       0.000401  -0.106590   0.327193  -0.057214   0.307298   0.001126
     67      -0.000404   0.065155  -0.200943   0.036511  -0.192428  -0.000591
     68      -0.000592   0.190276  -0.585886   0.103024  -0.549908  -0.001999
                  66         67         68    
      0       0.000003  -0.000020   0.000007
      1      -0.000058   0.000083   0.000097
      2      -0.000028   0.000011  -0.000013
      3      -0.000015   0.000028  -0.000046
      4       0.000158  -0.000140  -0.000212
      5       0.000063  -0.000004   0.000114
      6      -0.000645   0.000248   0.000080
      7       0.000815  -0.000106   0.000067
      8       0.003174  -0.001109  -0.000839
      9      -0.000580  -0.000305   0.000063
     10      -0.002387  -0.000876   0.000357
     11       0.002073   0.001033  -0.000601
     12      -0.003839  -0.003860   0.001990
     13      -0.047976  -0.045350   0.024063
     14      -0.001904   0.001805  -0.001802
     15      -0.002396   0.011052  -0.010291
     16       0.006944  -0.013330   0.018750
     17       0.010294  -0.051139   0.048410
     18      -0.007076  -0.006865  -0.012220
     19      -0.031223  -0.024666  -0.053509
     20       0.019009   0.023596   0.037317
     21      -0.006218   0.004785   0.003662
     22       0.052007  -0.035908  -0.026909
     23       0.033221  -0.026660  -0.021871
     24      -0.001111  -0.000104   0.001280
     25      -0.001940   0.002336   0.001245
     26       0.005125   0.000922  -0.002876
     27      -0.000081   0.000003  -0.000112
     28      -0.000076   0.000037  -0.000145
     29       0.000030  -0.000012   0.000088
     30      -0.000041   0.000050  -0.000098
     31       0.000026  -0.000012   0.000061
     32       0.000005  -0.000046   0.000141
     33      -0.000009  -0.000001  -0.000058
     34      -0.000211  -0.000136   0.000079
     35      -0.000102  -0.000134   0.000186
     36       0.000008   0.000014   0.000013
     37       0.000084   0.000088  -0.000053
     38       0.000027   0.000055  -0.000050
     39       0.008381  -0.002264  -0.001762
     40      -0.009052   0.003194   0.002241
     41      -0.037453   0.014110   0.009502
     42       0.007945   0.002850  -0.001586
     43       0.027924   0.012642  -0.005847
     44      -0.024753  -0.011409   0.005160
     45       0.048630   0.044365  -0.021559
     46       0.533330   0.491051  -0.241423
     47       0.021738   0.017278  -0.007365
     48       0.030692  -0.125650   0.116473
     49      -0.048323   0.184643  -0.176438
     50      -0.131587   0.550444  -0.511836
     51       0.086406   0.076888   0.139285
     52       0.346685   0.304883   0.560913
     53      -0.246215  -0.224265  -0.403051
     54       0.079179  -0.055938  -0.040081
     55      -0.583589   0.411845   0.296575
     56      -0.378983   0.270315   0.196740
     57       0.008030   0.000559  -0.008839
     58       0.000444  -0.000935  -0.000129
     59      -0.000043  -0.000259  -0.000212
     60      -0.008526  -0.000030   0.002861
     61       0.015521  -0.002339  -0.007071
     62      -0.047109  -0.001666   0.021150
     63       0.000933  -0.000080   0.001358
     64       0.001241  -0.000159   0.001884
     65      -0.000903   0.000132  -0.001400
     66       0.000433  -0.000561   0.001221
     67      -0.000224   0.000302  -0.000642
     68      -0.000546   0.000867  -0.001969


-----------
IR SPECTRUM
-----------

 Mode    freq (cm**-1)   T**2         TX         TY         TZ
-------------------------------------------------------------------
   7:        81.62    0.345130  ( -0.050041   0.565322   0.151779)
   8:        96.66   11.198622  (  2.785870  -0.566722   1.765326)
   9:       131.96    0.322414  ( -0.411938   0.020537  -0.390255)
  10:       132.97    0.124983  ( -0.073252   0.342639   0.047068)
  11:       211.74    5.753456  (  0.014951  -2.292136  -0.706645)
  12:       270.21    0.337846  ( -0.012072   0.541822   0.210069)
  13:       278.07    1.988356  (  0.695353   0.380737  -1.166139)
  14:       411.72   16.248602  (  3.083534   0.845086  -2.454842)
  15:       443.04    3.601919  ( -0.093453   1.784929   0.638134)
  16:       457.33    1.523046  ( -1.059921   0.257039  -0.577533)
  17:       473.51    6.767399  ( -1.841825  -0.470655   1.775828)
  18:       475.55    0.940855  ( -0.137818  -0.952345  -0.122067)
  19:       568.50    0.687927  ( -0.003507   0.788166   0.258280)
  20:       584.54    0.317132  (  0.128100   0.150796  -0.527241)
  21:       634.00    0.527269  ( -0.011765   0.693062   0.216322)
  22:       759.11   25.831923  ( -5.058227   0.105108  -0.484987)
  23:       781.52   13.194280  (  2.958535  -0.497363   2.047921)
  24:       784.30    1.341565  (  0.182872  -1.122320  -0.220277)
  25:       800.70    2.185206  ( -0.124476   1.417660   0.399938)
  26:       807.27    1.511527  (  0.852567   0.696929   0.546761)
  27:       808.41   10.874982  (  3.085218  -0.518939   1.042647)
  28:       839.05   17.817684  (  4.136930  -0.290491   0.786833)
  29:       848.57    3.119725  ( -0.004454  -1.700477  -0.477581)
  30:       886.30   39.617073  (  6.025265  -0.583764   1.724088)
  31:       910.53   13.534077  ( -2.078822   0.931127  -2.888871)
  32:       930.22    4.250674  ( -0.037515   1.973344   0.595969)
  33:       979.19    1.674672  ( -0.240135  -1.015091  -0.765896)
  34:       979.72    3.591517  ( -0.232088   1.874281   0.157232)
  35:       984.06   14.356932  ( -0.303113   2.263608   3.023431)
  36:       986.45   14.022613  ( -0.566782  -2.964324   2.216789)
  37:      1008.30    0.014998  ( -0.028649   0.095980   0.070464)
  38:      1040.96    0.348454  ( -0.020839   0.560429   0.184225)
  39:      1070.43   23.879321  ( -3.829273  -0.917516   2.893813)
  40:      1081.11    0.271741  (  0.235878  -0.418461  -0.202468)
  41:      1087.06   13.679649  (  3.600196   0.312402  -0.787810)
  42:      1116.02    1.811862  ( -0.040766  -1.278917  -0.417817)
  43:      1134.68   10.309184  ( -2.861129  -0.428785   1.392576)
  44:      1139.95    3.947161  (  0.943339  -0.517730   1.670098)
  45:      1234.32    0.038340  ( -0.010296  -0.189114  -0.049698)
  46:      1277.17    1.135018  (  0.008860  -1.013881  -0.327086)
  47:      1324.72    6.006535  (  0.129956  -2.324769  -0.764916)
  48:      1330.48  142.207379  ( 11.029155   1.486709  -4.284253)
  49:      1364.92    4.185024  ( -0.099851   1.953862   0.597894)
  50:      1415.26    0.277260  (  0.078080   0.492126   0.170221)
  51:      1421.79   42.053377  ( -5.626461  -0.964145   3.076807)
  52:      1428.62   11.183891  (  2.996534  -0.530645   1.386756)
  53:      1478.30   16.788745  ( -3.463161  -0.690536   2.078081)
  54:      1538.05   14.558101  (  0.283864   3.644939   1.091760)
  55:      1542.18    6.849022  ( -2.508605   0.167579   0.726527)
  56:      1702.10   23.849506  ( -4.358149  -0.638757   2.109035)
  57:      1805.56  436.449428  ( -1.277026  19.982274   5.960482)
  58:      1808.65   84.643487  (  8.396109   2.060661   3.146828)
  59:      3031.88    3.974131  (  1.992545   0.043501  -0.044780)
  60:      3157.07    7.497402  (  0.565043   0.830573  -2.547210)
  61:      3205.46    1.173245  (  0.164648  -0.975835  -0.440320)
  62:      3207.21    0.443297  ( -0.052067   0.626816   0.218376)
  63:      3220.07    0.755354  (  0.649875   0.371334  -0.441733)
  64:      3225.88    2.179467  ( -1.228173  -0.275303   0.771535)
  65:      3231.73    0.022454  (  0.003119   0.045794   0.142642)
  66:      3238.82    0.097619  ( -0.063254  -0.115698   0.283252)
  67:      3248.16    0.082572  ( -0.005654  -0.237365  -0.161859)
  68:      3259.69    0.194167  (  0.079485  -0.179256   0.394609)

The first frequency considered to be a vibration is 7
The total number of vibrations considered is 62


--------------------------
THERMOCHEMISTRY AT 298.15K
--------------------------

Temperature         ... 298.15 K
Pressure            ... 1.00 atm
Total Mass          ... 174.20 AMU

Throughout the following assumptions are being made:
  (1) The electronic state is orbitally nondegenerate
  (2) There are no thermally accessible electronically excited states
  (3) Hindered rotations indicated by low frequency modes are not
      treated as such but are treated as vibrations and this may
      cause some error
  (4) All equations used are the standard statistical mechanics
      equations for an ideal gas
  (5) All vibrations are strictly harmonic

freq.      81.62  E(vib)   ...       0.48 
freq.      96.66  E(vib)   ...       0.47 
freq.     131.96  E(vib)   ...       0.42 
freq.     132.97  E(vib)   ...       0.42 
freq.     211.74  E(vib)   ...       0.34 
freq.     270.21  E(vib)   ...       0.29 
freq.     278.07  E(vib)   ...       0.28 
freq.     411.72  E(vib)   ...       0.19 
freq.     443.04  E(vib)   ...       0.17 
freq.     457.33  E(vib)   ...       0.16 
freq.     473.51  E(vib)   ...       0.15 
freq.     475.55  E(vib)   ...       0.15 
freq.     568.50  E(vib)   ...       0.11 
freq.     584.54  E(vib)   ...       0.11 
freq.     634.00  E(vib)   ...       0.09 
freq.     759.11  E(vib)   ...       0.06 
freq.     781.52  E(vib)   ...       0.05 
freq.     784.30  E(vib)   ...       0.05 
freq.     800.70  E(vib)   ...       0.05 
freq.     807.27  E(vib)   ...       0.05 
freq.     808.41  E(vib)   ...       0.05 
freq.     839.05  E(vib)   ...       0.04 
freq.     848.57  E(vib)   ...       0.04 
freq.     886.30  E(vib)   ...       0.04 
freq.     910.53  E(vib)   ...       0.03 
freq.     930.22  E(vib)   ...       0.03 
freq.     979.19  E(vib)   ...       0.03 
freq.     979.72  E(vib)   ...       0.03 
freq.     984.06  E(vib)   ...       0.02 
freq.     986.45  E(vib)   ...       0.02 
freq.    1008.30  E(vib)   ...       0.02 
freq.    1040.96  E(vib)   ...       0.02 
freq.    1070.43  E(vib)   ...       0.02 
freq.    1081.11  E(vib)   ...       0.02 
freq.    1087.06  E(vib)   ...       0.02 
freq.    1116.02  E(vib)   ...       0.01 
freq.    1134.68  E(vib)   ...       0.01 
freq.    1139.95  E(vib)   ...       0.01 
freq.    1234.32  E(vib)   ...       0.01 
freq.    1277.17  E(vib)   ...       0.01 
freq.    1324.72  E(vib)   ...       0.01 
freq.    1330.48  E(vib)   ...       0.01 
freq.    1364.92  E(vib)   ...       0.01 
freq.    1415.26  E(vib)   ...       0.00 
freq.    1421.79  E(vib)   ...       0.00 
freq.    1428.62  E(vib)   ...       0.00 
freq.    1478.30  E(vib)   ...       0.00 
freq.    1538.05  E(vib)   ...       0.00 
freq.    1542.18  E(vib)   ...       0.00 
freq.    1702.10  E(vib)   ...       0.00 
freq.    1805.56  E(vib)   ...       0.00 
freq.    1808.65  E(vib)   ...       0.00 
freq.    3031.88  E(vib)   ...       0.00 
freq.    3157.07  E(vib)   ...       0.00 
freq.    3205.46  E(vib)   ...       0.00 
freq.    3207.21  E(vib)   ...       0.00 
freq.    3220.07  E(vib)   ...       0.00 
freq.    3225.88  E(vib)   ...       0.00 
freq.    3231.73  E(vib)   ...       0.00 
freq.    3238.82  E(vib)   ...       0.00 
freq.    3248.16  E(vib)   ...       0.00 
freq.    3259.69  E(vib)   ...       0.00 

------------
INNER ENERGY
------------

The inner energy is: U= E(el) + E(ZPE) + E(vib) + E(rot) + E(trans)
    E(el)   - is the total energy from the electronic structure calculation
              = E(kin-el) + E(nuc-el) + E(el-el) + E(nuc-nuc)
    E(ZPE)  - the the zero temperature vibrational energy from the frequency calculation
    E(vib)  - the the finite temperature correction to E(ZPE) due to population
              of excited vibrational states
    E(rot)  - is the rotational thermal energy
    E(trans)- is the translational thermal energy

Summary of contributions to the inner energy U:
Electronic energy                ...   -574.48615115 Eh
Zero point energy                ...      0.18160049 Eh     113.96 kcal/mol
Thermal vibrational correction   ...      0.00735757 Eh       4.62 kcal/mol
Thermal rotational correction    ...      0.00141627 Eh       0.89 kcal/mol
Thermal translational correction ...      0.00141627 Eh       0.89 kcal/mol
-----------------------------------------------------------------------
Total thermal energy                   -574.29436055 Eh


Summary of corrections to the electronic energy:
(perhaps to be used in another calculation)
Total thermal correction                  0.01019011 Eh       6.39 kcal/mol
Non-thermal (ZPE) correction              0.18160049 Eh     113.96 kcal/mol
-----------------------------------------------------------------------
Total correction                          0.19179060 Eh     120.35 kcal/mol


--------
ENTHALPY
--------

The enthalpy is H = U + kB*T
                kB is Boltzmann's constant
Total free energy                 ...   -574.29436055 Eh 
Thermal Enthalpy correction       ...      0.00094421 Eh       0.59 kcal/mol
-----------------------------------------------------------------------
Total Enthalpy                    ...   -574.29341634 Eh


Note: Rotational entropy computed according to Herzberg 
Infrared and Raman Spectra, Chapter V,1, Van Nostrand Reinhold, 1945 
Point Group:  C1, Symmetry Number:   1  
Rotational constants in cm-1:     0.034957     0.033671     0.022503 

Vibrational entropy computed according to the QRRHO of S. Grimme
Chem.Eur.J. 2012 18 9955


-------
ENTROPY
-------

The entropy contributions are T*S = T*(S(el)+S(vib)+S(rot)+S(trans))
     S(el)   - electronic entropy
     S(vib)  - vibrational entropy
     S(rot)  - rotational entropy
     S(trans)- translational entropy
The entropies will be listed as mutliplied by the temperature to get
units of energy

Electronic entropy                ...      0.00000000 Eh      0.00 kcal/mol
Vibrational entropy               ...      0.01230270 Eh      7.72 kcal/mol
Rotational entropy                ...      0.01448611 Eh      9.09 kcal/mol
Translational entropy             ...      0.01965731 Eh     12.34 kcal/mol
-----------------------------------------------------------------------
Final entropy term                ...      0.04644612 Eh     29.15 kcal/mol


-------------------
GIBBS FREE ENTHALPY
-------------------

The Gibbs free enthalpy is G = H - T*S

Total enthalpy                    ...   -574.29341634 Eh 
Total entropy correction          ...     -0.04644612 Eh    -29.15 kcal/mol
-----------------------------------------------------------------------
Final Gibbs free enthalpy         ...   -574.33986246 Eh

For completeness - the Gibbs free enthalpy minus the electronic energy
G-E(el)                           ...      0.14628869 Eh     91.80 kcal/mol


Timings for individual modules:

Sum of individual times         ...      334.282 sec (=   5.571 min)
GTO integral calculation        ...        2.679 sec (=   0.045 min)   0.8 %
SCF iterations                  ...       36.573 sec (=   0.610 min)  10.9 %
SCF Gradient evaluation         ...        8.677 sec (=   0.145 min)   2.6 %
Geometry relaxation             ...        1.247 sec (=   0.021 min)   0.4 %
Analytical frequency calculation...      285.107 sec (=   4.752 min)  85.3 %
                             ****ORCA TERMINATED NORMALLY****
TOTAL RUN TIME: 0 days 0 hours 5 minutes 37 seconds 73 msec
