
                                 *****************
                                 * O   R   C   A *
                                 *****************

           --- An Ab Initio, DFT and Semiempirical electronic structure package ---

                  #######################################################
                  #                        -***-                        #
                  #          Department of theory and spectroscopy      #
                  #               Directorship: Frank Neese             #
                  #        Max Planck Institute fuer Kohlenforschung    #
                  #                Kaiser Wilhelm Platz 1               #
                  #                 D-45470 Muelheim/Ruhr               #
                  #                      Germany                        #
                  #                                                     #
                  #                  All rights reserved                #
                  #                        -***-                        #
                  #######################################################


                         Program Version 4.1.1  - RELEASE  -


 With contributions from (in alphabetic order):
   Daniel Aravena         : Magnetic Properties
   Michael Atanasov       : Ab Initio Ligand Field Theory
   Alexander A. Auer      : GIAO ZORA
   Ute Becker             : Parallelization
   Giovanni Bistoni       : ED, Open-shell LED
   Martin Brehm           : Molecular dynamics
   Dmytro Bykov           : SCF Hessian
   Vijay G. Chilkuri      : MRCI spin determinant printing
   Dipayan Datta          : RHF DLPNO-CCSD density
   Achintya Kumar Dutta   : EOM-CC, STEOM-CC
   Dmitry Ganyushin       : Spin-Orbit,Spin-Spin,Magnetic field MRCI
   Miquel Garcia          : C-PCM Hessian
   Yang Guo               : DLPNO-NEVPT2, CIM, IAO-localization
   Andreas Hansen         : Spin unrestricted coupled pair/coupled cluster methods
   Benjamin Helmich-Paris : CASSCF linear response (MC-RPA)
   Lee Huntington         : MR-EOM, pCC
   Robert Izsak           : Overlap fitted RIJCOSX, COSX-SCS-MP3, EOM
   Christian Kollmar      : KDIIS, OOCD, Brueckner-CCSD(T), CCSD density
   Simone Kossmann        : Meta GGA functionals, TD-DFT gradient, OOMP2, MP2 Hessian
   Martin Krupicka        : AUTO-CI
   Lucas Lang             : DCDCAS
   Dagmar Lenk            : GEPOL surface, SMD
   Dimitrios Liakos       : Extrapolation schemes; parallel MDCI
   Dimitrios Manganas     : ROCIS; embedding schemes
   Dimitrios Pantazis     : SARC Basis sets
   Taras Petrenko         : DFT Hessian,TD-DFT gradient, ASA, ECA, R-Raman, ABS, FL, XAS/XES, NRVS
   Peter Pinski           : DLPNO-MP2, DLPNO-MP2 Gradient
   Christoph Reimann      : Effective Core Potentials
   Marius Retegan         : Local ZFS, SOC
   Christoph Riplinger    : Optimizer, TS searches, QM/MM, DLPNO-CCSD(T), (RO)-DLPNO pert. Triples
   Tobias Risthaus        : Range-separated hybrids, TD-DFT gradient, RPA, STAB
   Michael Roemelt        : Restricted open shell CIS
   Masaaki Saitow         : Open-shell DLPNO
   Barbara Sandhoefer     : DKH picture change effects
   Avijit Sen             : IP-ROCIS
   Kantharuban Sivalingam : CASSCF convergence, NEVPT2, FIC-MRCI
   Bernardo de Souza      : ESD, SOC TD-DFT
   Georgi Stoychev        : AutoAux, RI-MP2 NMR
   Willem Van den Heuvel  : Paramagnetic NMR
   Boris Wezisla          : Elementary symmetry handling
   Frank Wennmohs         : Technical directorship


 We gratefully acknowledge several colleagues who have allowed us to
 interface, adapt or use parts of their codes:
   Stefan Grimme, W. Hujo, H. Kruse,             : VdW corrections, initial TS optimization,
                  C. Bannwarth                     DFT functionals, gCP, sTDA/sTD-DF
   Ed Valeev                                     : LibInt (2-el integral package), F12 methods
   Garnet Chan, S. Sharma, J. Yang, R. Olivares  : DMRG
   Ulf Ekstrom                                   : XCFun DFT Library
   Mihaly Kallay                                 : mrcc  (arbitrary order and MRCC methods)
   Andreas Klamt, Michael Diedenhofen            : otool_cosmo (COSMO solvation model)
   Jiri Pittner, Ondrej Demel                    : Mk-CCSD
   Frank Weinhold                                : gennbo (NPA and NBO analysis)
   Christopher J. Cramer and Donald G. Truhlar   : smd solvation model
   Lars Goerigk                                  : TD-DFT with DH, B97 family of functionals
   V. Asgeirsson, H. Jonsson                     : NEB implementation
   FAccTs GmbH                                   : IRC, NEB, NEB-TS, Multilevel


 Your calculation uses the libint2 library for the computation of 2-el integrals
 For citations please refer to: http://libint.valeyev.net

 This ORCA versions uses:
   CBLAS   interface :  Fast vector & matrix operations
   LAPACKE interface :  Fast linear algebra routines
   SCALAPACK package :  Parallel linear algebra routines


Your calculation utilizes the atom-pairwise dispersion correction
with the Becke-Johnson damping scheme (D3BJ)
Cite in your paper:
S.Grimme, S.Ehrlich, L.Goerigk, J Comput Chem, (2011), 32, 1456–1465 
S.Grimme, J.Antony, S.Ehrlich and H.Krieg, J.Chem.Phys., 132, (2010), 154104 
   

----- Orbital basis set information -----
Your calculation utilizes the basis: def2-SVP
   F. Weigend and R. Ahlrichs, Phys. Chem. Chem. Phys. 7, 3297 (2005).

----- AuxJ basis set information -----
Your calculation utilizes the auxiliary basis: def2/J
   F. Weigend, Phys. Chem. Chem. Phys. 8, 1057 (2006).

================================================================================
                                        WARNINGS
                       Please study these warnings very carefully!
================================================================================


WARNING: Geometry Optimization
  ===> : Switching off AutoStart
         For restart on a previous wavefunction, please use MOREAD

INFO   : the flag for use of LIBINT has been found!

================================================================================
                                       INPUT FILE
================================================================================
NAME = template_ts_guess_orca_constrained_opt.inp
|  1> ! Opt PBE0 RIJCOSX D3BJ def2-SVP def2/J PAL8
|  2> %geom Constraints
|  3> { B 3 4 2.261718724744525 C }
|  4> { B 2 7 2.22506420036052 C }
|  5>     end
|  6> end
|  7> %geom MaxIter 100 end
|  8> %scf 
|  9> maxiter 250 
| 10> end
| 11> % maxcore 4000
| 12> *xyz 0 1
| 13> O   0.95900000  2.60110000 -0.16080000 
| 14> C   1.21140000  1.37760000  0.09820000 
| 15> C   0.27760000  0.52350000  0.83800000 
| 16> C   0.30890000 -0.92140000  0.38750000 
| 17> C  -1.12080000 -1.18630000 -0.00110000 
| 18> C  -1.48410000 -0.31480000 -1.16800000 
| 19> C  -1.50970000  0.94870000 -0.77020000 
| 20> C  -1.16360000  0.95030000  0.67100000 
| 21> C  -1.83590000 -0.37220000  1.09600000 
| 22> C   2.47820000  0.83510000 -0.36820000 
| 23> C   2.50390000 -0.42810000 -0.75960000 
| 24> C   1.26210000 -1.18090000 -0.69420000 
| 25> O   1.01010000 -2.04650000 -1.55840000 
| 26> H   0.49310000  0.55560000  1.94480000 
| 27> H   0.51770000 -1.59450000  1.25570000 
| 28> H  -1.43150000 -2.20120000 -0.06640000 
| 29> H  -1.68220000 -0.71010000 -2.15140000 
| 30> H  -1.73190000  1.82910000 -1.34410000 
| 31> H  -1.47630000  1.79540000  1.24080000 
| 32> H  -2.91140000 -0.34320000  0.94710000 
| 33> H  -1.49770000 -0.65500000  2.09070000 
| 34> H   3.38670000  1.42790000 -0.40400000 
| 35> H   3.43650000 -0.89020000 -1.12360000 
| 36> *
| 37> 
| 38>                          ****END OF INPUT****
================================================================================

                       *****************************
                       * Geometry Optimization Run *
                       *****************************

Geometry optimization settings:
Update method            Update   .... BFGS
Choice of coordinates    CoordSys .... Z-matrix Internals
Initial Hessian          InHess   .... Almoef's Model

Convergence Tolerances:
Energy Change            TolE     ....  5.0000e-06 Eh
Max. Gradient            TolMAXG  ....  3.0000e-04 Eh/bohr
RMS Gradient             TolRMSG  ....  1.0000e-04 Eh/bohr
Max. Displacement        TolMAXD  ....  4.0000e-03 bohr
RMS Displacement         TolRMSD  ....  2.0000e-03 bohr

------------------------------------------------------------------------------
                        ORCA OPTIMIZATION COORDINATE SETUP
------------------------------------------------------------------------------

The optimization will be done in new redundant internal coordinates
Making redundant internal coordinates   ...  (new redundants) done
Evaluating the initial hessian          ...  (Almloef) done
Evaluating the coordinates              ...  done
Calculating the B-matrix                .... done
Calculating the G-matrix                .... done
Diagonalizing the G-matrix              .... done
Imposing constraints:
 Iter   0:  RMS(Cart)=    0.0568072637 RMS(Int)=    1.1929127157
 Iter   1:  RMS(Cart)=    0.0568072637 RMS(Int)=    0.9966091154
 Iter   2:  RMS(Cart)=    0.0568072637 RMS(Int)=    0.8001629016
 Iter   3:  RMS(Cart)=    0.0568072637 RMS(Int)=    0.6036759519
 Iter   4:  RMS(Cart)=    0.0568072637 RMS(Int)=    0.4073735811
 Iter   5:  RMS(Cart)=    0.0568072637 RMS(Int)=    0.2122094671
 Iter   6:  RMS(Cart)=    0.0522345138 RMS(Int)=    0.0402489363
 Iter   7:  RMS(Cart)=    0.0102082599 RMS(Int)=    0.0089100613
 Iter   8:  RMS(Cart)=    0.0020098827 RMS(Int)=    0.0026773880
 Iter   9:  RMS(Cart)=    0.0006037381 RMS(Int)=    0.0008052533
 Iter  10:  RMS(Cart)=    0.0001815819 RMS(Int)=    0.0002421895
 Iter  11:  RMS(Cart)=    0.0000546129 RMS(Int)=    0.0000728414
 Iter  12:  RMS(Cart)=    0.0000164255 RMS(Int)=    0.0000219079
 Iter  13:  RMS(Cart)=    0.0000049402 RMS(Int)=    0.0000065891
 Iter  14:  RMS(Cart)=    0.0000014858 RMS(Int)=    0.0000019817
 Iter  15:  RMS(Cart)=    0.0000004469 RMS(Int)=    0.0000005960
 Iter  16:  RMS(Cart)=    0.0000001344 RMS(Int)=    0.0000001793
 Iter  17:  RMS(Cart)=    0.0000000404 RMS(Int)=    0.0000000539
CONVERGED
The first mode is                       ....   95
The number of degrees of freedom        ....   63
Storing new coordinates                 .... done

    -----------------------------------------------------------------
                    Redundant Internal Coordinates


    -----------------------------------------------------------------
         Definition                    Initial Value    Approx d2E/dq
    -----------------------------------------------------------------
      1. B(C   1,O   0)                  1.2764         0.851194   
      2. B(C   2,C   1)                  1.4659         0.472818   
      3. B(C   3,C   2)                  1.4493         0.396446   
      4. B(C   4,C   3)                  2.2617         0.409409 C 
      5. B(C   5,C   4)                  1.5077         0.415493   
      6. B(C   6,C   5)                  1.3451         0.793630   
      7. B(C   7,C   2)                  2.2251         0.398647 C 
      8. B(C   7,C   6)                  1.4912         0.445326   
      9. B(C   8,C   4)                  1.5721         0.357468   
     10. B(C   8,C   7)                  1.5750         0.355827   
     11. B(C   9,C   1)                  1.4578         0.492333   
     12. B(C  10,C   9)                  1.3261         0.800047   
     13. B(C  11,C   3)                  1.4638         0.474461   
     14. B(C  11,C  10)                  1.4544         0.494555   
     15. B(O  12,C  11)                  1.2491         0.939902   
     16. B(H  13,C   2)                  1.1285         0.313134   
     17. B(H  14,C   3)                  1.1187         0.324630   
     18. B(H  15,C   4)                  1.0638         0.397064   
     19. B(H  16,C   5)                  1.0802         0.376011   
     20. B(H  17,C   6)                  1.0754         0.381664   
     21. B(H  18,C   7)                  1.0662         0.393093   
     22. B(H  19,C   8)                  1.0862         0.365235   
     23. B(H  20,C   8)                  1.0882         0.362732   
     24. B(H  21,C   9)                  1.0856         0.366254   
     25. B(H  22,C  10)                  1.1028         0.343784   
     26. A(C   2,C   1,C   9)          119.2609         0.397034   
     27. A(O   0,C   1,C   2)          122.7058         0.434801   
     28. A(O   0,C   1,C   9)          118.0333         0.437981   
     29. A(C   7,C   2,H  13)          107.1163         0.320369   
     30. A(C   3,C   2,H  13)          108.8999         0.320079   
     31. A(C   3,C   2,C   7)          103.0596         0.371185   
     32. A(C   1,C   2,H  13)          110.2260         0.329479   
     33. A(C   1,C   2,C   7)          113.3217         0.382664   
     34. A(C   1,C   2,C   3)          113.7832         0.382296   
     35. A(C   2,C   3,H  14)          111.0997         0.321972   
     36. A(C  11,C   3,H  14)          109.2843         0.331640   
     37. A(C   2,C   3,C   4)           99.9401         0.372891   
     38. A(C   2,C   3,C  11)          114.9388         0.382526   
     39. A(C   4,C   3,C  11)          114.2005         0.384672   
     40. A(C   4,C   3,H  14)          106.8713         0.323675   
     41. A(C   5,C   4,C   8)           95.4529         0.367246   
     42. A(C   8,C   4,H  15)          115.0115         0.327193   
     43. A(C   3,C   4,C   8)           99.7959         0.366318   
     44. A(C   3,C   4,C   5)          110.0382         0.375923   
     45. A(C   3,C   4,H  15)          116.8284         0.334621   
     46. A(C   5,C   4,H  15)          116.5418         0.335442   
     47. A(C   4,C   5,H  16)          122.0488         0.332422   
     48. A(C   6,C   5,H  16)          127.5422         0.370821   
     49. A(C   4,C   5,C   6)          110.3913         0.422294   
     50. A(C   5,C   6,C   7)          108.4904         0.427566   
     51. A(C   5,C   6,H  17)          127.7546         0.371775   
     52. A(C   7,C   6,H  17)          123.7386         0.337109   
     53. A(C   6,C   7,H  18)          117.7218         0.338772   
     54. A(C   8,C   7,H  18)          114.4325         0.326405   
     55. A(C   2,C   7,C   8)           99.6743         0.364365   
     56. A(C   6,C   7,C   8)           96.8619         0.371353   
     57. A(C   2,C   7,C   6)          110.6478         0.378709   
     58. A(C   2,C   7,H  18)          114.7209         0.332590   
     59. A(C   7,C   8,H  19)          110.3232         0.322488   
     60. A(C   4,C   8,H  20)          111.8270         0.322367   
     61. A(C   7,C   8,H  20)          109.5526         0.322125   
     62. A(H  19,C   8,H  20)          116.6863         0.291821   
     63. A(C   4,C   8,H  19)          110.3132         0.322731   
     64. A(C   4,C   8,C   7)           96.2468         0.357652   
     65. A(C   1,C   9,C  10)          117.4170         0.435976   
     66. A(C   1,C   9,H  21)          122.6372         0.340452   
     67. A(C  10,C   9,H  21)          119.9450         0.369660   
     68. A(C   9,C  10,C  11)          117.0012         0.436330   
     69. A(C   9,C  10,H  22)          121.2891         0.365667   
     70. A(C  11,C  10,H  22)          121.7084         0.337128   
     71. A(C   3,C  11,C  10)          119.0179         0.397590   
     72. A(C   3,C  11,O  12)          120.5707         0.442926   
     73. A(C  10,C  11,O  12)          120.4111         0.446264   
     74. D(H  13,C   2,C   1,O   0)    -91.4333         0.016482   
     75. D(C   7,C   2,C   1,C   9)   -151.3161         0.016482   
     76. D(C   3,C   2,C   1,C   9)    -34.0000         0.016482   
     77. D(C   3,C   2,C   1,O   0)    145.9094         0.016482   
     78. D(C   7,C   2,C   1,O   0)     28.5933         0.016482   
     79. D(H  13,C   2,C   1,C   9)     88.6573         0.016482   
     80. D(C   4,C   3,C   2,C   1)   -122.9349         0.012478   
     81. D(C  11,C   3,C   2,H  13)   -123.6019         0.012478   
     82. D(H  14,C   3,C   2,C   7)   -112.3653         0.012478   
     83. D(C  11,C   3,C   2,C   1)     -0.2195         0.012478   
     84. D(C  11,C   3,C   2,C   7)    122.8972         0.012478   
     85. D(C   4,C   3,C   2,H  13)    113.6827         0.012478   
     86. D(H  14,C   3,C   2,C   1)    124.5180         0.012478   
     87. D(H  14,C   3,C   2,H  13)      1.1356         0.012478   
     88. D(C   4,C   3,C   2,C   7)      0.1819         0.012478   
     89. D(C   5,C   4,C   3,C   2)     62.9834         0.013279   
     90. D(C   5,C   4,C   3,H  14)    178.7729         0.013279   
     91. D(C   8,C   4,C   3,H  14)     79.2397         0.013279   
     92. D(C   8,C   4,C   3,C   2)    -36.5498         0.013279   
     93. D(H  15,C   4,C   3,C  11)     75.5945         0.013279   
     94. D(C   5,C   4,C   3,C  11)    -60.2522         0.013279   
     95. D(C   8,C   4,C   3,C  11)   -159.7854         0.013279   
     96. D(H  15,C   4,C   3,C   2)   -161.1698         0.013279   
     97. D(H  15,C   4,C   3,H  14)    -45.3803         0.013279   
     98. D(H  16,C   5,C   4,H  15)    -23.6152         0.012774   
     99. D(C   6,C   5,C   4,C   8)     33.4664         0.012774   
    100. D(H  16,C   5,C   4,C   8)   -145.1112         0.012774   
    101. D(H  16,C   5,C   4,C   3)    112.3711         0.012774   
    102. D(C   6,C   5,C   4,H  15)    154.9624         0.012774   
    103. D(C   6,C   5,C   4,C   3)    -69.0513         0.012774   
    104. D(C   7,C   6,C   5,C   4)      0.2448         0.045436   
    105. D(C   7,C   6,C   5,H  16)    178.7243         0.045436   
    106. D(H  17,C   6,C   5,C   4)   -178.3125         0.045436   
    107. D(H  17,C   6,C   5,H  16)      0.1670         0.045436   
    108. D(C   6,C   7,C   2,C   1)     58.3126         0.012612   
    109. D(H  18,C   7,C   2,C   3)    158.7726         0.012612   
    110. D(C   8,C   7,C   6,H  17)    144.7552         0.014628   
    111. D(C   6,C   7,C   2,H  13)   -179.9050         0.012612   
    112. D(C   8,C   7,C   2,C   1)    159.4848         0.012612   
    113. D(C   8,C   7,C   2,C   3)     36.0614         0.012612   
    114. D(H  18,C   7,C   2,C   1)    -77.8041         0.012612   
    115. D(H  18,C   7,C   2,H  13)     43.9784         0.012612   
    116. D(C   2,C   7,C   6,C   5)     69.2017         0.014628   
    117. D(C   2,C   7,C   6,H  17)   -112.1699         0.014628   
    118. D(C   8,C   7,C   6,C   5)    -33.8732         0.014628   
    119. D(C   6,C   7,C   2,C   3)    -65.1108         0.012612   
    120. D(H  18,C   7,C   6,C   5)   -156.1401         0.014628   
    121. D(C   8,C   7,C   2,H  13)    -78.7328         0.012612   
    122. D(H  18,C   7,C   6,H  17)     22.4883         0.014628   
    123. D(H  19,C   8,C   7,C   6)    -62.2724         0.010175   
    124. D(C   7,C   8,C   4,C   5)    -50.9816         0.010262   
    125. D(C   7,C   8,C   4,H  15)   -173.6564         0.010262   
    126. D(C   4,C   8,C   7,C   2)    -60.2657         0.010175   
    127. D(H  19,C   8,C   4,C   5)     63.4169         0.010262   
    128. D(H  19,C   8,C   4,H  15)    -59.2579         0.010262   
    129. D(H  20,C   8,C   4,C   3)    -53.5120         0.010262   
    130. D(H  20,C   8,C   4,C   5)   -164.9675         0.010262   
    131. D(H  19,C   8,C   4,C   3)    174.8723         0.010262   
    132. D(H  20,C   8,C   4,H  15)     72.3577         0.010262   
    133. D(C   4,C   8,C   7,C   6)     52.1178         0.010175   
    134. D(C   4,C   8,C   7,H  18)    176.8186         0.010175   
    135. D(C   7,C   8,C   4,C   3)     60.4739         0.010262   
    136. D(H  19,C   8,C   7,C   2)   -174.6560         0.010175   
    137. D(H  19,C   8,C   7,H  18)     62.4283         0.010175   
    138. D(H  20,C   8,C   7,C   2)     55.5698         0.010175   
    139. D(H  20,C   8,C   7,C   6)    167.9533         0.010175   
    140. D(H  20,C   8,C   7,H  18)    -67.3459         0.010175   
    141. D(C  10,C   9,C   1,O   0)   -144.7061         0.016506   
    142. D(C  10,C   9,C   1,C   2)     35.2075         0.016506   
    143. D(H  21,C   9,C   1,O   0)     34.9742         0.016506   
    144. D(H  21,C   9,C   1,C   2)   -145.1122         0.016506   
    145. D(C  11,C  10,C   9,C   1)      0.0175         0.046253   
    146. D(C  11,C  10,C   9,H  21)   -179.6718         0.046253   
    147. D(H  22,C  10,C   9,C   1)    179.6188         0.046253   
    148. D(H  22,C  10,C   9,H  21)     -0.0706         0.046253   
    149. D(C  10,C  11,C   3,C   2)     34.3996         0.016597   
    150. D(C  10,C  11,C   3,C   4)    149.0890         0.016597   
    151. D(C  10,C  11,C   3,H  14)    -91.2841         0.016597   
    152. D(O  12,C  11,C   3,C   2)   -145.4055         0.016597   
    153. D(O  12,C  11,C   3,C   4)    -30.7161         0.016597   
    154. D(O  12,C  11,C   3,H  14)     88.9108         0.016597   
    155. D(C   3,C  11,C  10,C   9)    -35.0934         0.016656   
    156. D(C   3,C  11,C  10,H  22)    145.3071         0.016656   
    157. D(O  12,C  11,C  10,C   9)    144.7120         0.016656   
    158. D(O  12,C  11,C  10,H  22)    -34.8875         0.016656   
    -----------------------------------------------------------------

Number of atoms                         .... 23
Number of degrees of freedom            .... 158

         *************************************************************
         *                GEOMETRY OPTIMIZATION CYCLE   1            *
         *************************************************************
---------------------------------
CARTESIAN COORDINATES (ANGSTROEM)
---------------------------------
  O      1.249746    2.574898   -0.143333
  C      1.538395    1.359387    0.118085
  C      0.643413    0.477542    0.873139
  C      0.687852   -0.906190    0.444415
  C     -1.493132   -1.228821   -0.060150
  C     -1.901249   -0.320746   -1.192385
  C     -1.912592    0.960903   -0.784450
  C     -1.506830    1.004302    0.649781
  C     -2.160083   -0.365367    1.071690
  C      2.812940    0.839435   -0.361741
  C      2.847881   -0.427871   -0.750827
  C      1.606555   -1.180436   -0.661640
  O      1.328331   -2.045117   -1.519114
  H      0.884807    0.526948    1.974396
  H      0.927006   -1.585556    1.300457
  H     -1.829426   -2.236609   -0.114213
  H     -2.162041   -0.703168   -2.168332
  H     -2.184909    1.831019   -1.354722
  H     -1.823482    1.841107    1.229715
  H     -3.236761   -0.328454    0.932838
  H     -1.804242   -0.649425    2.060034
  H      3.711149    1.447065   -0.413140
  H      3.776773   -0.884946   -1.130705

----------------------------
CARTESIAN COORDINATES (A.U.)
----------------------------
  NO LB      ZA    FRAG     MASS         X           Y           Z
   0 O     8.0000    0    15.999    2.361678    4.865852   -0.270859
   1 C     6.0000    0    12.011    2.907146    2.568870    0.223149
   2 C     6.0000    0    12.011    1.215875    0.902424    1.649994
   3 C     6.0000    0    12.011    1.299853   -1.712451    0.839823
   4 C     6.0000    0    12.011   -2.821611   -2.322135   -0.113667
   5 C     6.0000    0    12.011   -3.592840   -0.606123   -2.253280
   6 C     6.0000    0    12.011   -3.614275    1.815843   -1.482396
   7 C     6.0000    0    12.011   -2.847496    1.897856    1.227908
   8 C     6.0000    0    12.011   -4.081966   -0.690444    2.025200
   9 C     6.0000    0    12.011    5.315686    1.586302   -0.683592
  10 C     6.0000    0    12.011    5.381715   -0.808558   -1.418858
  11 C     6.0000    0    12.011    3.035950   -2.230701   -1.250318
  12 O     8.0000    0    15.999    2.510182   -3.864711   -2.870709
  13 H     1.0000    0     1.008    1.672042    0.995786    3.731067
  14 H     1.0000    0     1.008    1.751787   -2.996267    2.457508
  15 H     1.0000    0     1.008   -3.457114   -4.226578   -0.215832
  16 H     1.0000    0     1.008   -4.085665   -1.328795   -4.097554
  17 H     1.0000    0     1.008   -4.128880    3.460124   -2.560054
  18 H     1.0000    0     1.008   -3.445881    3.479188    2.323825
  19 H     1.0000    0     1.008   -6.116592   -0.620688    1.762809
  20 H     1.0000    0     1.008   -3.409524   -1.227235    3.892901
  21 H     1.0000    0     1.008    7.013054    2.734556   -0.780721
  22 H     1.0000    0     1.008    7.137068   -1.672306   -2.136722

--------------------------------
INTERNAL COORDINATES (ANGSTROEM)
--------------------------------
 O      0   0   0     0.000000000000     0.00000000     0.00000000
 C      1   0   0     1.275828754183     0.00000000     0.00000000
 C      2   1   0     1.465869465539   122.35668671     0.00000000
 C      3   2   1     1.513824940342   113.12688906   146.63279173
 C      4   3   2     1.505066131437   103.01390416   236.92974938
 C      5   4   3     1.501051214982   109.17415688    64.11338110
 C      6   5   4     1.324889599174   108.96288164   291.93944939
 C      7   6   5     1.482175836397   106.76627811     0.02465455
 C      5   4   3     1.541997156288    99.43358793   322.46265059
 C      2   1   3     1.454859941713   117.69560409   180.01391434
 C     10   2   1     1.322697505101   117.89783850   214.85360185
 C     11  10   2     1.453634149296   117.68872055     0.00000000
 O     12  11  10     1.248843064600   120.01305290   145.29830893
 H      3   2   1     1.128041178326   110.91009056   268.64375173
 H      4   3   2     1.118227298003   110.32456827   124.39785032
 H      5   4   3     1.063400484296   117.47607939   198.59843600
 H      6   5   4     1.078230615407   122.72639860   111.94684620
 H      7   6   5     1.074168613394   128.69789518   180.01710317
 H      8   7   6     1.066136642274   116.87496698   202.03622621
 H      9   5   4     1.086145690043   112.07148889   174.33735063
 H      9   5   4     1.088018000770   111.65881354   306.55596913
 H     10   2   1     1.085387364032   122.39458586    34.80707053
 H     11  10   2     1.102621952439   120.95474822   179.91450797

---------------------------
INTERNAL COORDINATES (A.U.)
---------------------------
 O      0   0   0     0.000000000000     0.00000000     0.00000000
 C      1   0   0     2.410966939188     0.00000000     0.00000000
 C      2   1   0     2.770091837946   122.35668671     0.00000000
 C      3   2   1     2.860714551945   113.12688906   146.63279173
 C      4   3   2     2.844162801857   103.01390416   236.92974938
 C      5   4   3     2.836575709306   109.17415688    64.11338110
 C      6   5   4     2.503678500120   108.96288164   291.93944939
 C      7   6   5     2.800906413107   106.76627811     0.02465455
 C      5   4   3     2.913952324670    99.43358793   322.46265059
 C      2   1   3     2.749286853049   117.69560409   180.01391434
 C     10   2   1     2.499536042662   117.89783850   214.85360185
 C     11  10   2     2.746970441085   117.68872055     0.00000000
 O     12  11  10     2.359971376341   120.01305290   145.29830893
 H      3   2   1     2.131688894823   110.91009056   268.64375173
 H      4   3   2     2.113143348701   110.32456827   124.39785032
 H      5   4   3     2.009535685998   117.47607939   198.59843600
 H      6   5   4     2.037560572328   122.72639860   111.94684620
 H      7   6   5     2.029884500968   128.69789518   180.01710317
 H      8   7   6     2.014706275237   116.87496698   202.03622621
 H      9   5   4     2.052517895721   112.07148889   174.33735063
 H      9   5   4     2.056056050232   111.65881354   306.55596913
 H     10   2   1     2.051084867239   122.39458586    34.80707053
 H     11  10   2     2.083653519359   120.95474822   179.91450797

---------------------
BASIS SET INFORMATION
---------------------
There are 3 groups of distinct atoms

 Group   1 Type O   : 7s4p1d contracted to 3s2p1d pattern {511/31/1}
 Group   2 Type C   : 7s4p1d contracted to 3s2p1d pattern {511/31/1}
 Group   3 Type H   : 4s1p contracted to 2s1p pattern {31/1}

Atom   0O    basis set group =>   1
Atom   1C    basis set group =>   2
Atom   2C    basis set group =>   2
Atom   3C    basis set group =>   2
Atom   4C    basis set group =>   2
Atom   5C    basis set group =>   2
Atom   6C    basis set group =>   2
Atom   7C    basis set group =>   2
Atom   8C    basis set group =>   2
Atom   9C    basis set group =>   2
Atom  10C    basis set group =>   2
Atom  11C    basis set group =>   2
Atom  12O    basis set group =>   1
Atom  13H    basis set group =>   3
Atom  14H    basis set group =>   3
Atom  15H    basis set group =>   3
Atom  16H    basis set group =>   3
Atom  17H    basis set group =>   3
Atom  18H    basis set group =>   3
Atom  19H    basis set group =>   3
Atom  20H    basis set group =>   3
Atom  21H    basis set group =>   3
Atom  22H    basis set group =>   3
-------------------------------
AUXILIARY BASIS SET INFORMATION
-------------------------------
There are 3 groups of distinct atoms

 Group   1 Type O   : 12s5p4d2f1g contracted to 6s4p3d1f1g pattern {711111/2111/211/2/1}
 Group   2 Type C   : 12s5p4d2f1g contracted to 6s4p3d1f1g pattern {711111/2111/211/2/1}
 Group   3 Type H   : 5s2p1d contracted to 3s1p1d pattern {311/2/1}

Atom   0O    basis set group =>   1
Atom   1C    basis set group =>   2
Atom   2C    basis set group =>   2
Atom   3C    basis set group =>   2
Atom   4C    basis set group =>   2
Atom   5C    basis set group =>   2
Atom   6C    basis set group =>   2
Atom   7C    basis set group =>   2
Atom   8C    basis set group =>   2
Atom   9C    basis set group =>   2
Atom  10C    basis set group =>   2
Atom  11C    basis set group =>   2
Atom  12O    basis set group =>   1
Atom  13H    basis set group =>   3
Atom  14H    basis set group =>   3
Atom  15H    basis set group =>   3
Atom  16H    basis set group =>   3
Atom  17H    basis set group =>   3
Atom  18H    basis set group =>   3
Atom  19H    basis set group =>   3
Atom  20H    basis set group =>   3
Atom  21H    basis set group =>   3
Atom  22H    basis set group =>   3


           ************************************************************
           *        Program running with 8 parallel MPI-processes     *
           *              working on a common directory               *
           ************************************************************
------------------------------------------------------------------------------
                           ORCA GTO INTEGRAL CALCULATION
                           -- RI-GTO INTEGRALS CHOSEN --
------------------------------------------------------------------------------

                         BASIS SET STATISTICS AND STARTUP INFO

Gaussian basis set:
 # of primitive gaussian shells          ...  206
 # of primitive gaussian functions       ...  382
 # of contracted shells                  ...  108
 # of contracted basis functions         ...  232
 Highest angular momentum                ...    2
 Maximum contraction depth               ...    5
Auxiliary gaussian basis set:
 # of primitive gaussian shells          ...  392
 # of primitive gaussian functions       ... 1070
 # of contracted shells                  ...  245
 # of contracted aux-basis functions     ...  747
 Highest angular momentum                ...    4
 Maximum contraction depth               ...    7
Ratio of auxiliary to basis functions    ...  3.22
Integral package used                  ... LIBINT
 One Electron integrals                  ... done
 Ordering auxiliary basis shells         ... done
 Integral threshhold             Thresh  ...  2.500e-11
 Primitive cut-off               TCut    ...  2.500e-12
 Pre-screening matrix                    ... done
 Shell pair data                         ... 
 Ordering of the shell pairs             ... done (   0.001 sec) 5343 of 5886 pairs
 Determination of significant pairs      ... done (   0.000 sec)
 Creation of shell pair data             ... done (   0.001 sec)
 Storage of shell pair data              ... done (   0.050 sec)
 Shell pair data done in (   0.052 sec)
 Computing two index integrals           ... done
 Cholesky decomposition of the V-matrix  ... done


Timings:
 Total evaluation time                   ...   0.247 sec (  0.004 min)
 One electron matrix time                ...   0.028 sec (  0.000 min) = 11.3%
 Schwartz matrix evaluation time         ...   0.124 sec (  0.002 min) = 50.3%
 Two index repulsion integral time       ...   0.010 sec (  0.000 min) =  3.9%
 Cholesky decomposition of V             ...   0.010 sec (  0.000 min) =  4.1%
 Three index repulsion integral time     ...   0.000 sec (  0.000 min) =  0.0%



           ************************************************************
           *        Program running with 8 parallel MPI-processes     *
           *              working on a common directory               *
           ************************************************************
-------------------------------------------------------------------------------
                                 ORCA SCF
-------------------------------------------------------------------------------

------------
SCF SETTINGS
------------
Hamiltonian:
 Density Functional     Method          .... DFT(GTOs)
 Exchange Functional    Exchange        .... PBE
   PBE kappa parameter   XKappa         ....  0.804000
   PBE mue parameter    XMuePBE         ....  0.219520
 Correlation Functional Correlation     .... PBE
   PBE beta parameter  CBetaPBE         ....  0.066725
 LDA part of GGA corr.  LDAOpt          .... PW91-LDA
 Gradients option       PostSCFGGA      .... off
 Hybrid DFT is turned on
   Fraction HF Exchange ScalHFX         ....  0.250000
   Scaling of DF-GGA-X  ScalDFX         ....  0.750000
   Scaling of DF-GGA-C  ScalDFC         ....  1.000000
   Scaling of DF-LDA-C  ScalLDAC        ....  1.000000
   Perturbative correction              ....  0.000000
   Density functional embedding theory  .... OFF
   NL short-range parameter             ....  6.900000
 RI-approximation to the Coulomb term is turned on
   Number of auxiliary basis functions  .... 747
   RIJ-COSX (HFX calculated with COS-X)).... on


General Settings:
 Integral files         IntName         .... template_ts_guess_orca_constrained_opt
 Hartree-Fock type      HFTyp           .... RHF
 Total Charge           Charge          ....    0
 Multiplicity           Mult            ....    1
 Number of Electrons    NEL             ....   92
 Basis Dimension        Dim             ....  232
 Nuclear Repulsion      ENuc            ....    752.9195359709 Eh

Convergence Acceleration:
 DIIS                   CNVDIIS         .... on
   Start iteration      DIISMaxIt       ....    12
   Startup error        DIISStart       ....  0.200000
   # of expansion vecs  DIISMaxEq       ....     5
   Bias factor          DIISBfac        ....   1.050
   Max. coefficient     DIISMaxC        ....  10.000
 Newton-Raphson         CNVNR           .... off
 SOSCF                  CNVSOSCF        .... on
   Start iteration      SOSCFMaxIt      ....   150
   Startup grad/error   SOSCFStart      ....  0.003300
 Level Shifting         CNVShift        .... on
   Level shift para.    LevelShift      ....    0.2500
   Turn off err/grad.   ShiftErr        ....    0.0010
 Zerner damping         CNVZerner       .... off
 Static damping         CNVDamp         .... on
   Fraction old density DampFac         ....    0.7000
   Max. Damping (<1)    DampMax         ....    0.9800
   Min. Damping (>=0)   DampMin         ....    0.0000
   Turn off err/grad.   DampErr         ....    0.1000
 Fernandez-Rico         CNVRico         .... off

SCF Procedure:
 Maximum # iterations   MaxIter         ....   250
 SCF integral mode      SCFMode         .... Direct
   Integral package                     .... LIBINT
 Reset frequency        DirectResetFreq ....    20
 Integral Threshold     Thresh          ....  2.500e-11 Eh
 Primitive CutOff       TCut            ....  2.500e-12 Eh

Convergence Tolerance:
 Convergence Check Mode ConvCheckMode   .... Total+1el-Energy
 Convergence forced     ConvForced      .... 0
 Energy Change          TolE            ....  1.000e-08 Eh
 1-El. energy change                    ....  1.000e-05 Eh
 Orbital Gradient       TolG            ....  1.000e-05
 Orbital Rotation angle TolX            ....  1.000e-05
 DIIS Error             TolErr          ....  5.000e-07


Diagonalization of the overlap matrix:
Smallest eigenvalue                        ... 3.571e-04
Time for diagonalization                   ...    0.010 sec
Threshold for overlap eigenvalues          ... 1.000e-08
Number of eigenvalues below threshold      ... 0
Time for construction of square roots      ...    0.005 sec
Total time needed                          ...    0.015 sec

-------------------
DFT GRID GENERATION
-------------------

General Integration Accuracy     IntAcc      ...  4.340
Radial Grid Type                 RadialGrid  ... Gauss-Chebyshev
Angular Grid (max. acc.)         AngularGrid ... Lebedev-110
Angular grid pruning method      GridPruning ... 3 (G Style)
Weight generation scheme         WeightScheme... Becke
Basis function cutoff            BFCut       ...    1.0000e-11
Integration weight cutoff        WCut        ...    1.0000e-14
Grids for H and He will be reduced by one unit

# of grid points (after initial pruning)     ...  29588 (   0.0 sec)
# of grid points (after weights+screening)   ...  26788 (   0.0 sec)
nearest neighbour list constructed           ...    0.0 sec
Grid point re-assignment to atoms done       ...    0.0 sec
Grid point division into batches done        ...    0.0 sec
Reduced shell lists constructed in    0.0 sec

Total number of grid points                  ...    26788
Total number of batches                      ...      430
Average number of points per batch           ...       62
Average number of grid points per atom       ...     1165
Average number of shells per batch           ...    74.13 (68.64%)
Average number of basis functions per batch  ...   156.67 (67.53%)
Average number of large shells per batch     ...    55.42 (74.76%)
Average number of large basis fcns per batch ...   114.84 (73.30%)
Maximum spatial batch extension              ...  13.21, 16.46, 16.50 au
Average spatial batch extension              ...   0.34,  0.35,  0.38 au

Time for grid setup =    0.098 sec

------------------------------
INITIAL GUESS: MODEL POTENTIAL
------------------------------
Loading Hartree-Fock densities                     ... done
Calculating cut-offs                               ... done
Setting up the integral package                    ... done
Initializing the effective Hamiltonian             ... done
Starting the Coulomb interaction                   ... done (   0.0 sec)
Reading the grid                                   ... done
Mapping shells                                     ... done
Starting the XC term evaluation                    ... done (   0.1 sec)
  promolecular density results
     # of electrons  =     91.995828166
     EX              =    -75.348325256
     EC              =     -3.054358917
     EX+EC           =    -78.402684173
Transforming the Hamiltonian                       ... done (   0.0 sec)
Diagonalizing the Hamiltonian                      ... done (   0.0 sec)
Back transforming the eigenvectors                 ... done (   0.0 sec)
Now organizing SCF variables                       ... done
                      ------------------
                      INITIAL GUESS DONE (   0.3 sec)
                      ------------------
--------------------
COSX GRID GENERATION
--------------------

General Integration Accuracy     IntAcc      ...  3.340
Radial Grid Type                 RadialGrid  ... Gauss-Chebyshev
Angular Grid (max. acc.)         AngularGrid ... Lebedev-50
Angular grid pruning method      GridPruning ... 3 (G Style)
Weight generation scheme         WeightScheme... Becke
Basis function cutoff            BFCut       ...    1.0000e-11
Integration weight cutoff        WCut        ...    1.0000e-14
Grids for H and He will be reduced by one unit

# of grid points (after initial pruning)     ...  10740 (   0.0 sec)
# of grid points (after weights+screening)   ...   9849 (   0.0 sec)
nearest neighbour list constructed           ...    0.0 sec
Grid point re-assignment to atoms done       ...    0.0 sec
Grid point division into batches done        ...    0.0 sec
Reduced shell lists constructed in    0.0 sec

Total number of grid points                  ...     9849
Total number of batches                      ...      165
Average number of points per batch           ...       59
Average number of grid points per atom       ...      428
Average number of shells per batch           ...    79.32 (73.44%)
Average number of basis functions per batch  ...   170.50 (73.49%)
Average number of large shells per batch     ...    60.09 (75.76%)
Average number of large basis fcns per batch ...   126.36 (74.11%)
Maximum spatial batch extension              ...  11.86, 13.18, 20.72 au
Average spatial batch extension              ...   0.43,  0.52,  0.62 au

Overlap Fitting                  UseSFitting ... on
Constructing numerical overlap ... done (      0.0 sec)
Inverting numerical overlap    ... done (      0.0 sec)
Obtaining analytic overlap     ... done (      0.0 sec)
Final contraction and storage  ... done (      0.0 sec)


General Integration Accuracy     IntAcc      ...  3.670
Radial Grid Type                 RadialGrid  ... Gauss-Chebyshev
Angular Grid (max. acc.)         AngularGrid ... Lebedev-50
Angular grid pruning method      GridPruning ... 3 (G Style)
Weight generation scheme         WeightScheme... Becke
Basis function cutoff            BFCut       ...    1.0000e-11
Integration weight cutoff        WCut        ...    1.0000e-14
Grids for H and He will be reduced by one unit

# of grid points (after initial pruning)     ...  13586 (   0.0 sec)
# of grid points (after weights+screening)   ...  12425 (   0.0 sec)
nearest neighbour list constructed           ...    0.0 sec
Grid point re-assignment to atoms done       ...    0.0 sec
Grid point division into batches done        ...    0.0 sec
Reduced shell lists constructed in    0.0 sec

Total number of grid points                  ...    12425
Total number of batches                      ...      206
Average number of points per batch           ...       60
Average number of grid points per atom       ...      540
Average number of shells per batch           ...    77.93 (72.15%)
Average number of basis functions per batch  ...   165.04 (71.14%)
Average number of large shells per batch     ...    58.67 (75.29%)
Average number of large basis fcns per batch ...   122.59 (74.28%)
Maximum spatial batch extension              ...  11.16, 14.20, 29.35 au
Average spatial batch extension              ...   0.40,  0.47,  0.63 au

Overlap Fitting                  UseSFitting ... on
Constructing numerical overlap ... done (      0.0 sec)
Inverting numerical overlap    ... done (      0.0 sec)
Obtaining analytic overlap     ... done (      0.0 sec)
Final contraction and storage  ... done (      0.0 sec)


General Integration Accuracy     IntAcc      ...  4.010
Radial Grid Type                 RadialGrid  ... Gauss-Chebyshev
Angular Grid (max. acc.)         AngularGrid ... Lebedev-110
Angular grid pruning method      GridPruning ... 3 (G Style)
Weight generation scheme         WeightScheme... Becke
Basis function cutoff            BFCut       ...    1.0000e-11
Integration weight cutoff        WCut        ...    1.0000e-14
Grids for H and He will be reduced by one unit

# of grid points (after initial pruning)     ...  25672 (   0.0 sec)
# of grid points (after weights+screening)   ...  23291 (   0.0 sec)
nearest neighbour list constructed           ...    0.0 sec
Grid point re-assignment to atoms done       ...    0.0 sec
Grid point division into batches done        ...    0.0 sec
Reduced shell lists constructed in    0.0 sec

Total number of grid points                  ...    23291
Total number of batches                      ...      373
Average number of points per batch           ...       62
Average number of grid points per atom       ...     1013
Average number of shells per batch           ...    74.46 (68.94%)
Average number of basis functions per batch  ...   157.58 (67.92%)
Average number of large shells per batch     ...    56.21 (75.49%)
Average number of large basis fcns per batch ...   116.88 (74.17%)
Maximum spatial batch extension              ...  12.85, 15.70, 15.79 au
Average spatial batch extension              ...   0.35,  0.36,  0.40 au

Overlap Fitting                  UseSFitting ... on
Constructing numerical overlap ... done (      0.0 sec)
Inverting numerical overlap    ... done (      0.0 sec)
Obtaining analytic overlap     ... done (      0.0 sec)
Final contraction and storage  ... done (      0.0 sec)

Time for X-Grid setup             =    0.267 sec
--------------
SCF ITERATIONS
--------------
ITER       Energy         Delta-E        Max-DP      RMS-DP      [F,P]     Damp
               ***  Starting incremental Fock matrix formation  ***
  0   -574.0750094578   0.000000000000 0.16163131  0.00279432  0.2332539 0.7000
  1   -574.2031385676  -0.128129109824 0.09651917  0.00173451  0.0870718 0.7000
                               ***Turning on DIIS***
  2   -574.2487560721  -0.045617504513 0.06138823  0.00236178  0.0311680 0.0000
  3   -574.3326513641  -0.083895292018 0.08829764  0.00135541  0.0430731 0.0000
  4   -574.3445189404  -0.011867576262 0.01110901  0.00031413  0.0220426 0.0000
                      *** Initiating the SOSCF procedure ***
                           *** Shutting down DIIS ***
                      *** Re-Reading the Fockian *** 
                      *** Removing any level shift *** 
ITER      Energy       Delta-E        Grad      Rot      Max-DP    RMS-DP
  5   -574.34653438  -0.0020154415  0.000598  0.000598  0.005842  0.000108
               *** Restarting incremental Fock matrix formation ***
  6   -574.34658369  -0.0000493066  0.000369  0.001881  0.002043  0.000047
  7   -574.34658239   0.0000012954  0.000691  0.000992  0.003213  0.000042
  8   -574.34659176  -0.0000093713  0.000201  0.000530  0.000761  0.000020
  9   -574.34659119   0.0000005748  0.000210  0.000379  0.000306  0.000011
 10   -574.34659275  -0.0000015563  0.000056  0.000175  0.000187  0.000005
 11   -574.34659268   0.0000000643  0.000051  0.000072  0.000109  0.000003
 12   -574.34659282  -0.0000001425  0.000003  0.000012  0.000019  0.000001
 13   -574.34659283  -0.0000000049  0.000006  0.000011  0.000013  0.000000
                  ***Gradient check signals convergence***
              ***Rediagonalizing the Fockian in SOSCF/NRSCF***

               *****************************************************
               *                     SUCCESS                       *
               *           SCF CONVERGED AFTER  14 CYCLES          *
               *****************************************************

Setting up the final grid:

General Integration Accuracy     IntAcc      ...  4.670
Radial Grid Type                 RadialGrid  ... Gauss-Chebyshev
Angular Grid (max. acc.)         AngularGrid ... Lebedev-302
Angular grid pruning method      GridPruning ... 3 (G Style)
Weight generation scheme         WeightScheme... Becke
Basis function cutoff            BFCut       ...    1.0000e-11
Integration weight cutoff        WCut        ...    1.0000e-14
Grids for H and He will be reduced by one unit

# of grid points (after initial pruning)     ... 114696 (   0.0 sec)
# of grid points (after weights+screening)   ... 101839 (   0.1 sec)
nearest neighbour list constructed           ...    0.0 sec
Grid point re-assignment to atoms done       ...    0.0 sec
Grid point division into batches done        ...    0.3 sec
Reduced shell lists constructed in    0.4 sec

Total number of grid points                  ...   101839
Total number of batches                      ...     1602
Average number of points per batch           ...       63
Average number of grid points per atom       ...     4428
Average number of shells per batch           ...    70.54 (65.32%)
Average number of basis functions per batch  ...   148.09 (63.83%)
Average number of large shells per batch     ...    52.36 (74.22%)
Average number of large basis fcns per batch ...   107.96 (72.90%)
Maximum spatial batch extension              ...  13.42, 13.24, 14.95 au
Average spatial batch extension              ...   0.23,  0.24,  0.25 au

Final grid set up in    0.4 sec
Final integration                            ... done (   0.2 sec)
Change in XC energy                          ...     0.000518408
Integrated number of electrons               ...    92.000045317
Previous integrated no of electrons          ...    91.999136830
Old exchange energy                            =    -19.149510871 Eh
New exchange energy                            =    -19.149318658 Eh
Exchange energy change after final integration =      0.000192212 Eh
Total energy after final integration           =   -574.345882213 Eh
Final COS-X integration done in                =     1.282 sec

----------------
TOTAL SCF ENERGY
----------------

Total Energy       :         -574.34588221 Eh          -15628.74601 eV

Components:
Nuclear Repulsion  :          752.91953597 Eh           20487.98216 eV
Electronic Energy  :        -1327.26541818 Eh          -36116.72817 eV
One Electron Energy:        -2273.52377208 Eh          -61865.72703 eV
Two Electron Energy:          946.25835390 Eh           25748.99886 eV

Virial components:
Potential Energy   :        -1142.76111557 Eh          -31096.11085 eV
Kinetic Energy     :          568.41523335 Eh           15467.36485 eV
Virial Ratio       :            2.01043366


DFT components:
N(Alpha)           :       46.000022658398 electrons
N(Beta)            :       46.000022658398 electrons
N(Total)           :       92.000045316795 electrons
E(X)               :      -57.358453876869 Eh       
E(C)               :       -3.078992105010 Eh       
E(XC)              :      -60.437445981878 Eh       
DFET-embed. en.    :        0.000000000000 Eh       

---------------
SCF CONVERGENCE
---------------

  Last Energy change         ...   -3.6252e-09  Tolerance :   1.0000e-08
  Last MAX-Density change    ...    3.1086e-15  Tolerance :   1.0000e-07
  Last RMS-Density change    ...    3.8470e-17  Tolerance :   5.0000e-09
  Last Orbital Gradient      ...    1.7935e-06  Tolerance :   1.0000e-05
  Last Orbital Rotation      ...    4.9187e-06  Tolerance :   1.0000e-05

             **** THE GBW FILE WAS UPDATED (template_ts_guess_orca_constrained_opt.gbw) ****
             **** DENSITY FILE WAS UPDATED (template_ts_guess_orca_constrained_opt.scfp.tmp) ****
             **** ENERGY FILE WAS UPDATED (template_ts_guess_orca_constrained_opt.en.tmp) ****
----------------
ORBITAL ENERGIES
----------------

  NO   OCC          E(Eh)            E(eV) 
   0   2.0000     -19.202362      -522.5228 
   1   2.0000     -19.200640      -522.4760 
   2   2.0000     -10.331098      -281.1235 
   3   2.0000     -10.327336      -281.0211 
   4   2.0000     -10.278104      -279.6814 
   5   2.0000     -10.278035      -279.6796 
   6   2.0000     -10.276051      -279.6256 
   7   2.0000     -10.274688      -279.5885 
   8   2.0000     -10.269145      -279.4377 
   9   2.0000     -10.268297      -279.4146 
  10   2.0000     -10.251908      -278.9686 
  11   2.0000     -10.249119      -278.8927 
  12   2.0000     -10.248069      -278.8641 
  13   2.0000      -1.044782       -28.4300 
  14   2.0000      -1.030475       -28.0407 
  15   2.0000      -0.888630       -24.1809 
  16   2.0000      -0.877188       -23.8695 
  17   2.0000      -0.799248       -21.7486 
  18   2.0000      -0.726914       -19.7803 
  19   2.0000      -0.721586       -19.6354 
  20   2.0000      -0.709022       -19.2935 
  21   2.0000      -0.638623       -17.3778 
  22   2.0000      -0.610452       -16.6112 
  23   2.0000      -0.580388       -15.7932 
  24   2.0000      -0.543246       -14.7825 
  25   2.0000      -0.533950       -14.5295 
  26   2.0000      -0.519409       -14.1338 
  27   2.0000      -0.510469       -13.8906 
  28   2.0000      -0.487433       -13.2637 
  29   2.0000      -0.481518       -13.1028 
  30   2.0000      -0.466518       -12.6946 
  31   2.0000      -0.439563       -11.9611 
  32   2.0000      -0.430360       -11.7107 
  33   2.0000      -0.414988       -11.2924 
  34   2.0000      -0.408728       -11.1221 
  35   2.0000      -0.387655       -10.5486 
  36   2.0000      -0.383427       -10.4336 
  37   2.0000      -0.380007       -10.3405 
  38   2.0000      -0.373500       -10.1634 
  39   2.0000      -0.351722        -9.5708 
  40   2.0000      -0.341444        -9.2912 
  41   2.0000      -0.310317        -8.4442 
  42   2.0000      -0.277289        -7.5454 
  43   2.0000      -0.268856        -7.3159 
  44   2.0000      -0.263354        -7.1662 
  45   2.0000      -0.259892        -7.0720 
  46   0.0000      -0.092020        -2.5040 
  47   0.0000      -0.050157        -1.3648 
  48   0.0000      -0.021192        -0.5767 
  49   0.0000      -0.014882        -0.4050 
  50   0.0000       0.057551         1.5660 
  51   0.0000       0.068312         1.8589 
  52   0.0000       0.073626         2.0035 
  53   0.0000       0.086402         2.3511 
  54   0.0000       0.097536         2.6541 
  55   0.0000       0.112940         3.0732 
  56   0.0000       0.124433         3.3860 
  57   0.0000       0.141435         3.8486 
  58   0.0000       0.143676         3.9096 
  59   0.0000       0.145991         3.9726 
  60   0.0000       0.156729         4.2648 
  61   0.0000       0.163497         4.4490 
  62   0.0000       0.191487         5.2106 
  63   0.0000       0.198361         5.3977 
  64   0.0000       0.203236         5.5303 
  65   0.0000       0.222630         6.0581 
  66   0.0000       0.252478         6.8703 
  67   0.0000       0.281086         7.6487 
  68   0.0000       0.286320         7.7912 
  69   0.0000       0.299927         8.1614 
  70   0.0000       0.323900         8.8138 
  71   0.0000       0.349655         9.5146 
  72   0.0000       0.356403         9.6982 
  73   0.0000       0.368416        10.0251 
  74   0.0000       0.386331        10.5126 
  75   0.0000       0.399335        10.8665 
  76   0.0000       0.418375        11.3846 
  77   0.0000       0.441676        12.0186 
  78   0.0000       0.460407        12.5283 
  79   0.0000       0.465019        12.6538 
  80   0.0000       0.475302        12.9336 
  81   0.0000       0.485874        13.2213 
  82   0.0000       0.497532        13.5385 
  83   0.0000       0.506825        13.7914 
  84   0.0000       0.518664        14.1136 
  85   0.0000       0.549610        14.9556 
  86   0.0000       0.551658        15.0114 
  87   0.0000       0.568282        15.4637 
  88   0.0000       0.568692        15.4749 
  89   0.0000       0.583757        15.8848 
  90   0.0000       0.596032        16.2188 
  91   0.0000       0.597294        16.2532 
  92   0.0000       0.601495        16.3675 
  93   0.0000       0.615456        16.7474 
  94   0.0000       0.633407        17.2359 
  95   0.0000       0.640804        17.4372 
  96   0.0000       0.649523        17.6744 
  97   0.0000       0.655073        17.8254 
  98   0.0000       0.662118        18.0171 
  99   0.0000       0.665985        18.1224 
 100   0.0000       0.673511        18.3272 
 101   0.0000       0.680675        18.5221 
 102   0.0000       0.685668        18.6580 
 103   0.0000       0.691586        18.8190 
 104   0.0000       0.692696        18.8492 
 105   0.0000       0.703418        19.1410 
 106   0.0000       0.711870        19.3710 
 107   0.0000       0.724869        19.7247 
 108   0.0000       0.730360        19.8741 
 109   0.0000       0.745292        20.2804 
 110   0.0000       0.755150        20.5487 
 111   0.0000       0.766530        20.8583 
 112   0.0000       0.770295        20.9608 
 113   0.0000       0.809228        22.0202 
 114   0.0000       0.818440        22.2709 
 115   0.0000       0.840937        22.8831 
 116   0.0000       0.860860        23.4252 
 117   0.0000       0.867732        23.6122 
 118   0.0000       0.874286        23.7905 
 119   0.0000       0.882255        24.0074 
 120   0.0000       0.889451        24.2032 
 121   0.0000       0.956107        26.0170 
 122   0.0000       0.973471        26.4895 
 123   0.0000       0.993579        27.0367 
 124   0.0000       1.011711        27.5300 
 125   0.0000       1.034069        28.1384 
 126   0.0000       1.073498        29.2114 
 127   0.0000       1.118035        30.4233 
 128   0.0000       1.133121        30.8338 
 129   0.0000       1.158255        31.5177 
 130   0.0000       1.186045        32.2739 
 131   0.0000       1.209422        32.9100 
 132   0.0000       1.216878        33.1129 
 133   0.0000       1.249368        33.9970 
 134   0.0000       1.258530        34.2464 
 135   0.0000       1.265380        34.4327 
 136   0.0000       1.282979        34.9116 
 137   0.0000       1.300507        35.3886 
 138   0.0000       1.344710        36.5914 
 139   0.0000       1.384156        37.6648 
 140   0.0000       1.426112        38.8065 
 141   0.0000       1.436002        39.0756 
 142   0.0000       1.481342        40.3094 
 143   0.0000       1.507256        41.0145 
 144   0.0000       1.533474        41.7280 
 145   0.0000       1.553490        42.2726 
 146   0.0000       1.596057        43.4309 
 147   0.0000       1.604207        43.6527 
 148   0.0000       1.617126        44.0042 
 149   0.0000       1.642919        44.7061 
 150   0.0000       1.662933        45.2507 
 151   0.0000       1.665584        45.3229 
 152   0.0000       1.687835        45.9283 
 153   0.0000       1.698256        46.2119 
 154   0.0000       1.709419        46.5156 
 155   0.0000       1.719382        46.7868 
 156   0.0000       1.730321        47.0844 
 157   0.0000       1.738210        47.2991 
 158   0.0000       1.744704        47.4758 
 159   0.0000       1.767009        48.0828 
 160   0.0000       1.775959        48.3263 
 161   0.0000       1.784872        48.5688 
 162   0.0000       1.788880        48.6779 
 163   0.0000       1.815531        49.4031 
 164   0.0000       1.826507        49.7018 
 165   0.0000       1.837884        50.0114 
 166   0.0000       1.872970        50.9661 
 167   0.0000       1.876588        51.0645 
 168   0.0000       1.887571        51.3634 
 169   0.0000       1.901775        51.7499 
 170   0.0000       1.911060        52.0026 
 171   0.0000       1.943574        52.8873 
 172   0.0000       1.958430        53.2916 
 173   0.0000       1.981745        53.9260 
 174   0.0000       1.990350        54.1602 
 175   0.0000       2.005134        54.5625 
 176   0.0000       2.008714        54.6599 
 177   0.0000       2.022626        55.0384 
 178   0.0000       2.060379        56.0658 
 179   0.0000       2.064592        56.1804 
 180   0.0000       2.075474        56.4765 
 181   0.0000       2.121011        57.7156 
 182   0.0000       2.124365        57.8069 
 183   0.0000       2.153081        58.5883 
 184   0.0000       2.166917        58.9648 
 185   0.0000       2.180680        59.3393 
 186   0.0000       2.188334        59.5476 
 187   0.0000       2.212561        60.2069 
 188   0.0000       2.265453        61.6461 
 189   0.0000       2.294011        62.4232 
 190   0.0000       2.299729        62.5788 
 191   0.0000       2.317559        63.0640 
 192   0.0000       2.342885        63.7531 
 193   0.0000       2.357156        64.1415 
 194   0.0000       2.369429        64.4754 
 195   0.0000       2.387572        64.9691 
 196   0.0000       2.450051        66.6693 
 197   0.0000       2.457486        66.8716 
 198   0.0000       2.464733        67.0688 
 199   0.0000       2.484158        67.5974 
 200   0.0000       2.511174        68.3325 
 201   0.0000       2.528565        68.8057 
 202   0.0000       2.533245        68.9331 
 203   0.0000       2.576464        70.1091 
 204   0.0000       2.597539        70.6826 
 205   0.0000       2.622213        71.3540 
 206   0.0000       2.655825        72.2687 
 207   0.0000       2.696459        73.3744 
 208   0.0000       2.709271        73.7230 
 209   0.0000       2.712255        73.8042 
 210   0.0000       2.718900        73.9850 
 211   0.0000       2.754774        74.9612 
 212   0.0000       2.770996        75.4026 
 213   0.0000       2.799582        76.1805 
 214   0.0000       2.813819        76.5679 
 215   0.0000       2.834503        77.1308 
 216   0.0000       2.850550        77.5674 
 217   0.0000       2.891067        78.6699 
 218   0.0000       2.912989        79.2665 
 219   0.0000       2.922578        79.5274 
 220   0.0000       2.977263        81.0155 
 221   0.0000       3.008305        81.8601 
 222   0.0000       3.030480        82.4635 
 223   0.0000       3.077801        83.7512 
 224   0.0000       3.086420        83.9858 
 225   0.0000       3.114742        84.7564 
 226   0.0000       3.310343        90.0790 
 227   0.0000       3.344551        91.0099 
 228   0.0000       3.412028        92.8460 
 229   0.0000       3.452273        93.9411 
 230   0.0000       3.571965        97.1981 
 231   0.0000       3.627699        98.7147 

                    ********************************
                    * MULLIKEN POPULATION ANALYSIS *
                    ********************************

-----------------------
MULLIKEN ATOMIC CHARGES
-----------------------
   0 O :   -0.267848
   1 C :    0.140515
   2 C :   -0.068618
   3 C :   -0.079621
   4 C :   -0.046862
   5 C :   -0.017554
   6 C :    0.004668
   7 C :   -0.057990
   8 C :   -0.016840
   9 C :   -0.012204
  10 C :   -0.024441
  11 C :    0.129928
  12 O :   -0.245635
  13 H :    0.085929
  14 H :    0.084266
  15 H :    0.041719
  16 H :    0.034880
  17 H :    0.034444
  18 H :    0.042469
  19 H :    0.093922
  20 H :    0.028294
  21 H :    0.055386
  22 H :    0.061193
Sum of atomic charges:   -0.0000000

--------------------------------
MULLIKEN REDUCED ORBITAL CHARGES
--------------------------------
  0 O s       :     3.807564  s :     3.807564
      pz      :     1.387574  p :     4.444916
      px      :     1.731148
      py      :     1.326193
      dz2     :     0.001877  d :     0.015368
      dxz     :     0.000537
      dyz     :     0.004381
      dx2y2   :     0.004967
      dxy     :     0.003605
  1 C s       :     3.106861  s :     3.106861
      pz      :     0.852447  p :     2.662184
      px      :     0.914581
      py      :     0.895155
      dz2     :     0.009170  d :     0.090440
      dxz     :     0.006956
      dyz     :     0.019671
      dx2y2   :     0.023718
      dxy     :     0.030925
  2 C s       :     3.112201  s :     3.112201
      pz      :     1.001870  p :     2.922540
      px      :     0.969054
      py      :     0.951615
      dz2     :     0.006622  d :     0.033877
      dxz     :     0.005166
      dyz     :     0.007107
      dx2y2   :     0.006895
      dxy     :     0.008087
  3 C s       :     3.123803  s :     3.123803
      pz      :     0.988317  p :     2.922225
      px      :     0.960132
      py      :     0.973776
      dz2     :     0.004876  d :     0.033594
      dxz     :     0.007291
      dyz     :     0.008628
      dx2y2   :     0.007262
      dxy     :     0.005536
  4 C s       :     3.276683  s :     3.276683
      pz      :     0.935020  p :     2.736404
      px      :     0.859617
      py      :     0.941767
      dz2     :     0.006860  d :     0.033775
      dxz     :     0.006253
      dyz     :     0.008289
      dx2y2   :     0.006553
      dxy     :     0.005819
  5 C s       :     3.199370  s :     3.199370
      pz      :     0.906887  p :     2.782624
      px      :     0.919735
      py      :     0.956001
      dz2     :     0.009089  d :     0.035561
      dxz     :     0.003275
      dyz     :     0.011271
      dx2y2   :     0.005542
      dxy     :     0.006384
  6 C s       :     3.202083  s :     3.202083
      pz      :     0.944834  p :     2.757680
      px      :     0.917380
      py      :     0.895465
      dz2     :     0.008427  d :     0.035569
      dxz     :     0.003736
      dyz     :     0.011983
      dx2y2   :     0.005406
      dxy     :     0.006017
  7 C s       :     3.274402  s :     3.274402
      pz      :     0.924416  p :     2.748947
      px      :     0.857271
      py      :     0.967261
      dz2     :     0.008289  d :     0.034641
      dxz     :     0.006226
      dyz     :     0.008417
      dx2y2   :     0.005907
      dxy     :     0.005801
  8 C s       :     3.095062  s :     3.095062
      pz      :     1.010982  p :     2.885813
      px      :     0.937954
      py      :     0.936877
      dz2     :     0.010579  d :     0.035965
      dxz     :     0.004879
      dyz     :     0.007761
      dx2y2   :     0.006989
      dxy     :     0.005756
  9 C s       :     3.197802  s :     3.197802
      pz      :     0.953277  p :     2.779997
      px      :     0.905257
      py      :     0.921463
      dz2     :     0.003161  d :     0.034405
      dxz     :     0.003629
      dyz     :     0.006226
      dx2y2   :     0.010150
      dxy     :     0.011239
 10 C s       :     3.196685  s :     3.196685
      pz      :     0.941392  p :     2.793601
      px      :     0.910706
      py      :     0.941503
      dz2     :     0.003699  d :     0.034156
      dxz     :     0.003170
      dyz     :     0.006386
      dx2y2   :     0.009065
      dxy     :     0.011836
 11 C s       :     3.096883  s :     3.096883
      pz      :     0.908139  p :     2.677988
      px      :     0.918529
      py      :     0.851320
      dz2     :     0.023007  d :     0.095202
      dxz     :     0.020069
      dyz     :     0.017399
      dx2y2   :     0.014319
      dxy     :     0.020408
 12 O s       :     3.788439  s :     3.788439
      pz      :     1.413204  p :     4.440600
      px      :     1.714933
      py      :     1.312463
      dz2     :     0.003816  d :     0.016597
      dxz     :     0.002474
      dyz     :     0.005241
      dx2y2   :     0.002985
      dxy     :     0.002080
 13 H s       :     0.891150  s :     0.891150
      pz      :     0.014012  p :     0.022922
      px      :     0.004277
      py      :     0.004632
 14 H s       :     0.892501  s :     0.892501
      pz      :     0.010469  p :     0.023233
      px      :     0.004376
      py      :     0.008387
 15 H s       :     0.933907  s :     0.933907
      pz      :     0.004520  p :     0.024374
      px      :     0.005409
      py      :     0.014445
 16 H s       :     0.941072  s :     0.941072
      pz      :     0.013821  p :     0.024048
      px      :     0.005056
      py      :     0.005171
 17 H s       :     0.941199  s :     0.941199
      pz      :     0.007076  p :     0.024357
      px      :     0.005209
      py      :     0.012073
 18 H s       :     0.933468  s :     0.933468
      pz      :     0.007626  p :     0.024063
      px      :     0.005148
      py      :     0.011288
 19 H s       :     0.882636  s :     0.882636
      pz      :     0.004055  p :     0.023442
      px      :     0.014893
      py      :     0.004493
 20 H s       :     0.949085  s :     0.949085
      pz      :     0.012573  p :     0.022621
      px      :     0.005105
      py      :     0.004943
 21 H s       :     0.920555  s :     0.920555
      pz      :     0.004132  p :     0.024059
      px      :     0.011924
      py      :     0.008003
 22 H s       :     0.915542  s :     0.915542
      pz      :     0.005560  p :     0.023265
      px      :     0.012088
      py      :     0.005617


                     *******************************
                     * LOEWDIN POPULATION ANALYSIS *
                     *******************************

----------------------
LOEWDIN ATOMIC CHARGES
----------------------
   0 O :   -0.184668
   1 C :    0.081506
   2 C :   -0.068061
   3 C :   -0.060534
   4 C :    0.013880
   5 C :   -0.014145
   6 C :   -0.015161
   7 C :    0.017252
   8 C :   -0.026431
   9 C :   -0.014360
  10 C :   -0.019740
  11 C :    0.065063
  12 O :   -0.164999
  13 H :    0.061570
  14 H :    0.058050
  15 H :    0.021318
  16 H :    0.029083
  17 H :    0.030973
  18 H :    0.021638
  19 H :    0.048875
  20 H :    0.015152
  21 H :    0.050260
  22 H :    0.053479

-------------------------------
LOEWDIN REDUCED ORBITAL CHARGES
-------------------------------
  0 O s       :     3.598449  s :     3.598449
      pz      :     1.393912  p :     4.560395
      px      :     1.737278
      py      :     1.429205
      dz2     :     0.003509  d :     0.025824
      dxz     :     0.000674
      dyz     :     0.006192
      dx2y2   :     0.009413
      dxy     :     0.006037
  1 C s       :     2.876935  s :     2.876935
      pz      :     0.852912  p :     2.838514
      px      :     1.007613
      py      :     0.977989
      dz2     :     0.018952  d :     0.203045
      dxz     :     0.015098
      dyz     :     0.041437
      dx2y2   :     0.055529
      dxy     :     0.072029
  2 C s       :     2.908474  s :     2.908474
      pz      :     1.045490  p :     3.075825
      px      :     0.981986
      py      :     1.048349
      dz2     :     0.018227  d :     0.083762
      dxz     :     0.010789
      dyz     :     0.018981
      dx2y2   :     0.017690
      dxy     :     0.018075
  3 C s       :     2.907335  s :     2.907335
      pz      :     1.046040  p :     3.069750
      px      :     0.975318
      py      :     1.048391
      dz2     :     0.012508  d :     0.083449
      dxz     :     0.017640
      dyz     :     0.023007
      dx2y2   :     0.019553
      dxy     :     0.010742
  4 C s       :     2.942222  s :     2.942222
      pz      :     1.026159  p :     2.968443
      px      :     0.895652
      py      :     1.046633
      dz2     :     0.014714  d :     0.075455
      dxz     :     0.012485
      dyz     :     0.022759
      dx2y2   :     0.013683
      dxy     :     0.011814
  5 C s       :     2.884655  s :     2.884655
      pz      :     1.033613  p :     3.039528
      px      :     0.935620
      py      :     1.070295
      dz2     :     0.021805  d :     0.089963
      dxz     :     0.006716
      dyz     :     0.033921
      dx2y2   :     0.014364
      dxy     :     0.013158
  6 C s       :     2.879852  s :     2.879852
      pz      :     1.037297  p :     3.044444
      px      :     0.936444
      py      :     1.070703
      dz2     :     0.025023  d :     0.090864
      dxz     :     0.008232
      dyz     :     0.030099
      dx2y2   :     0.015455
      dxy     :     0.012055
  7 C s       :     2.936044  s :     2.936044
      pz      :     1.039302  p :     2.969291
      px      :     0.892983
      py      :     1.037007
      dz2     :     0.021212  d :     0.077413
      dxz     :     0.012532
      dyz     :     0.019284
      dx2y2   :     0.012754
      dxy     :     0.011630
  8 C s       :     2.866628  s :     2.866628
      pz      :     1.034539  p :     3.073434
      px      :     1.039778
      py      :     0.999117
      dz2     :     0.024155  d :     0.086369
      dxz     :     0.012190
      dyz     :     0.018529
      dx2y2   :     0.016979
      dxy     :     0.014516
  9 C s       :     2.876014  s :     2.876014
      pz      :     0.943140  p :     3.046719
      px      :     1.028535
      py      :     1.075043
      dz2     :     0.007742  d :     0.091626
      dxz     :     0.008830
      dyz     :     0.013649
      dx2y2   :     0.028924
      dxy     :     0.032482
 10 C s       :     2.880046  s :     2.880046
      pz      :     0.948302  p :     3.048774
      px      :     1.028820
      py      :     1.071653
      dz2     :     0.008097  d :     0.090920
      dxz     :     0.007897
      dyz     :     0.014947
      dx2y2   :     0.026269
      dxy     :     0.033710
 11 C s       :     2.869008  s :     2.869008
      pz      :     0.956551  p :     2.850519
      px      :     1.005016
      py      :     0.888952
      dz2     :     0.048968  d :     0.215409
      dxz     :     0.046379
      dyz     :     0.041846
      dx2y2   :     0.030287
      dxy     :     0.047929
 12 O s       :     3.578270  s :     3.578270
      pz      :     1.467606  p :     4.558679
      px      :     1.719192
      py      :     1.371881
      dz2     :     0.005314  d :     0.028050
      dxz     :     0.003785
      dyz     :     0.010867
      dx2y2   :     0.004458
      dxy     :     0.003626
 13 H s       :     0.869865  s :     0.869865
      pz      :     0.040300  p :     0.068565
      px      :     0.015228
      py      :     0.013037
 14 H s       :     0.872005  s :     0.872005
      pz      :     0.030700  p :     0.069945
      px      :     0.015396
      py      :     0.023849
 15 H s       :     0.901663  s :     0.901663
      pz      :     0.015529  p :     0.077019
      px      :     0.018081
      py      :     0.043409
 16 H s       :     0.898906  s :     0.898906
      pz      :     0.040693  p :     0.072011
      px      :     0.015111
      py      :     0.016207
 17 H s       :     0.896195  s :     0.896195
      pz      :     0.023697  p :     0.072831
      px      :     0.015547
      py      :     0.033587
 18 H s       :     0.901954  s :     0.901954
      pz      :     0.023896  p :     0.076408
      px      :     0.017361
      py      :     0.035151
 19 H s       :     0.879260  s :     0.879260
      pz      :     0.013368  p :     0.071866
      px      :     0.043781
      py      :     0.014717
 20 H s       :     0.915086  s :     0.915086
      pz      :     0.037861  p :     0.069763
      px      :     0.015403
      py      :     0.016499
 21 H s       :     0.878358  s :     0.878358
      pz      :     0.013663  p :     0.071382
      px      :     0.035495
      py      :     0.022224
 22 H s       :     0.877903  s :     0.877903
      pz      :     0.016903  p :     0.068618
      px      :     0.035457
      py      :     0.016259


                      *****************************
                      * MAYER POPULATION ANALYSIS *
                      *****************************

  NA   - Mulliken gross atomic population
  ZA   - Total nuclear charge
  QA   - Mulliken gross atomic charge
  VA   - Mayer's total valence
  BVA  - Mayer's bonded valence
  FA   - Mayer's free valence

  ATOM       NA         ZA         QA         VA         BVA        FA
  0 O      8.2678     8.0000    -0.2678     2.1749     2.1749     0.0000
  1 C      5.8595     6.0000     0.1405     4.0920     4.0920    -0.0000
  2 C      6.0686     6.0000    -0.0686     3.7844     3.7844    -0.0000
  3 C      6.0796     6.0000    -0.0796     3.8050     3.8050     0.0000
  4 C      6.0469     6.0000    -0.0469     3.8467     3.8467    -0.0000
  5 C      6.0176     6.0000    -0.0176     3.8096     3.8096     0.0000
  6 C      5.9953     6.0000     0.0047     3.8022     3.8022     0.0000
  7 C      6.0580     6.0000    -0.0580     3.8509     3.8509    -0.0000
  8 C      6.0168     6.0000    -0.0168     3.9153     3.9153    -0.0000
  9 C      6.0122     6.0000    -0.0122     3.7963     3.7963    -0.0000
 10 C      6.0244     6.0000    -0.0244     3.7867     3.7867     0.0000
 11 C      5.8701     6.0000     0.1299     4.1221     4.1221     0.0000
 12 O      8.2456     8.0000    -0.2456     2.1967     2.1967     0.0000
 13 H      0.9141     1.0000     0.0859     0.9778     0.9778     0.0000
 14 H      0.9157     1.0000     0.0843     0.9791     0.9791     0.0000
 15 H      0.9583     1.0000     0.0417     0.9866     0.9866    -0.0000
 16 H      0.9651     1.0000     0.0349     0.9884     0.9884     0.0000
 17 H      0.9656     1.0000     0.0344     0.9898     0.9898     0.0000
 18 H      0.9575     1.0000     0.0425     0.9858     0.9858     0.0000
 19 H      0.9061     1.0000     0.0939     0.9676     0.9676    -0.0000
 20 H      0.9717     1.0000     0.0283     0.9824     0.9824    -0.0000
 21 H      0.9446     1.0000     0.0554     0.9966     0.9966    -0.0000
 22 H      0.9388     1.0000     0.0612     0.9939     0.9939    -0.0000

  Mayer bond orders larger than 0.1
B(  0-O ,  1-C ) :   2.0176 B(  1-C ,  2-C ) :   0.9991 B(  1-C ,  9-C ) :   1.0153 
B(  2-C ,  3-C ) :   1.1830 B(  2-C ,  7-C ) :   0.6504 B(  2-C , 13-H ) :   0.8927 
B(  3-C ,  4-C ) :   0.6456 B(  3-C , 11-C ) :   1.0035 B(  3-C , 14-H ) :   0.8974 
B(  4-C ,  5-C ) :   1.1361 B(  4-C ,  8-C ) :   1.0002 B(  4-C , 15-H ) :   0.9603 
B(  5-C ,  6-C ) :   1.6028 B(  5-C , 16-H ) :   0.9925 B(  6-C ,  7-C ) :   1.1258 
B(  6-C , 17-H ) :   0.9994 B(  7-C ,  8-C ) :   1.0107 B(  7-C , 18-H ) :   0.9603 
B(  8-C , 19-H ) :   0.9341 B(  8-C , 20-H ) :   0.9436 B(  9-C , 10-C ) :   1.7364 
B(  9-C , 21-H ) :   0.9827 B( 10-C , 11-C ) :   1.0114 B( 10-C , 22-H ) :   0.9754 
B( 11-C , 12-O ) :   2.0477 

-------
TIMINGS
-------

Total SCF time: 0 days 0 hours 0 min 15 sec 

Total time                  ....      15.956 sec
Sum of individual times     ....      15.761 sec  ( 98.8%)

Fock matrix formation       ....      14.593 sec  ( 91.5%)
  Split-RI-J                ....       3.002 sec  ( 20.6% of F)
  Chain of spheres X        ....      10.616 sec  ( 72.7% of F)
  COS-X 1 center corr.      ....       0.000 sec  (  0.0% of F)
  XC integration            ....       0.907 sec  (  6.2% of F)
    Basis function eval.    ....       0.264 sec  ( 29.1% of XC)
    Density eval.           ....       0.155 sec  ( 17.1% of XC)
    XC-Functional eval.     ....       0.039 sec  (  4.3% of XC)
    XC-Potential eval.      ....       0.220 sec  ( 24.3% of XC)
Diagonalization             ....       0.041 sec  (  0.3%)
Density matrix formation    ....       0.011 sec  (  0.1%)
Population analysis         ....       0.009 sec  (  0.1%)
Initial guess               ....       0.215 sec  (  1.3%)
Orbital Transformation      ....       0.000 sec  (  0.0%)
Orbital Orthonormalization  ....       0.000 sec  (  0.0%)
DIIS solution               ....       0.020 sec  (  0.1%)
SOSCF solution              ....       0.058 sec  (  0.4%)
Grid generation             ....       0.813 sec  (  5.1%)


-------------------------------------------------------------------------------
                          DFT DISPERSION CORRECTION                            
                                                                               
                              DFTD3 V3.1  Rev 1                                
                          USING Becke-Johnson damping                          
-------------------------------------------------------------------------------
The PBE0 functional is recognized
Active option DFTDOPT                   ...         4   

molecular C6(AA) [au] = 6175.118469 


            DFT-D V3
 parameters
 s6 scaling factor         :     1.0000 
 a1 scaling factor         :     0.4145 
 s8 scaling factor         :     1.2177 
 a2 scaling factor         :     4.8593 
 ad hoc parameters k1-k3   :    16.0000     1.3333    -4.0000 

 Edisp/kcal,au: -16.360623903640  -0.026072310992 
 E6   /kcal   : -10.204464241 
 E8   /kcal   :  -6.156159663 
 % E8         :  37.627902819 

-------------------------   ----------------
Dispersion correction           -0.026072311
-------------------------   ----------------


-------------------------   --------------------
FINAL SINGLE POINT ENERGY      -574.371954523538
[...]
  0 O s       :     3.745289  s :     3.745289
      pz      :     1.632318  p :     4.462021
      px      :     1.470718
      py      :     1.358985
      dz2     :     0.002325  d :     0.018145
      dxz     :     0.000822
      dyz     :     0.005088
      dx2y2   :     0.005324
      dxy     :     0.004586
  1 C s       :     3.015433  s :     3.015433
      pz      :     0.938923  p :     2.709597
      px      :     0.848747
      py      :     0.921927
      dz2     :     0.018532  d :     0.098951
      dxz     :     0.007870
      dyz     :     0.030014
      dx2y2   :     0.017535
      dxy     :     0.025001
  2 C s       :     3.218280  s :     3.218280
      pz      :     0.991037  p :     2.864865
      px      :     0.963552
      py      :     0.910276
      dz2     :     0.006656  d :     0.032371
      dxz     :     0.003010
      dyz     :     0.008462
      dx2y2   :     0.005969
      dxy     :     0.008273
  3 C s       :     3.213715  s :     3.213715
      pz      :     1.005547  p :     2.857552
      px      :     0.969831
      py      :     0.882174
      dz2     :     0.004914  d :     0.031972
      dxz     :     0.005270
      dyz     :     0.009645
      dx2y2   :     0.006340
      dxy     :     0.005803
  4 C s       :     3.288397  s :     3.288397
      pz      :     0.976035  p :     2.797384
      px      :     0.887507
      py      :     0.933841
      dz2     :     0.008801  d :     0.037299
      dxz     :     0.006526
      dyz     :     0.010310
      dx2y2   :     0.007527
      dxy     :     0.004135
  5 C s       :     3.196197  s :     3.196197
      pz      :     0.843749  p :     2.769307
      px      :     0.982864
      py      :     0.942694
      dz2     :     0.009092  d :     0.036052
      dxz     :     0.004254
      dyz     :     0.011674
      dx2y2   :     0.005043
      dxy     :     0.005989
  6 C s       :     3.192113  s :     3.192113
      pz      :     0.891954  p :     2.767476
      px      :     0.981040
      py      :     0.894482
      dz2     :     0.009227  d :     0.035951
      dxz     :     0.005039
      dyz     :     0.011401
      dx2y2   :     0.005146
      dxy     :     0.005138
  7 C s       :     3.292160  s :     3.292160
      pz      :     0.942171  p :     2.798067
      px      :     0.886494
      py      :     0.969403
      dz2     :     0.009755  d :     0.037512
      dxz     :     0.006406
      dyz     :     0.010362
      dx2y2   :     0.006579
      dxy     :     0.004410
  8 C s       :     2.988364  s :     2.988364
      pz      :     0.986441  p :     2.906581
      px      :     1.003387
      py      :     0.916753
      dz2     :     0.009869  d :     0.037873
      dxz     :     0.003946
      dyz     :     0.008882
      dx2y2   :     0.008515
      dxy     :     0.006661
  9 C s       :     3.250036  s :     3.250036
      pz      :     0.946639  p :     2.750120
      px      :     0.937839
      py      :     0.865642
      dz2     :     0.005928  d :     0.031608
      dxz     :     0.003776
      dyz     :     0.009545
      dx2y2   :     0.005237
      dxy     :     0.007123
 10 C s       :     3.252451  s :     3.252451
      pz      :     0.912045  p :     2.748940
      px      :     0.931357
      py      :     0.905538
      dz2     :     0.005201  d :     0.031666
      dxz     :     0.003331
      dyz     :     0.009857
      dx2y2   :     0.005688
      dxy     :     0.007588
 11 C s       :     3.015667  s :     3.015667
      pz      :     0.948211  p :     2.716407
      px      :     0.853351
      py      :     0.914845
      dz2     :     0.014775  d :     0.099026
      dxz     :     0.006965
      dyz     :     0.032475
      dx2y2   :     0.018990
      dxy     :     0.025820
 12 O s       :     3.745048  s :     3.745048
      pz      :     1.618321  p :     4.463887
      px      :     1.470697
      py      :     1.374868
      dz2     :     0.002208  d :     0.018108
      dxz     :     0.000386
      dyz     :     0.005012
      dx2y2   :     0.005479
      dxy     :     0.005024
 13 H s       :     0.923589  s :     0.923589
      pz      :     0.014056  p :     0.022497
      px      :     0.004500
      py      :     0.003941
 14 H s       :     0.923852  s :     0.923852
      pz      :     0.008136  p :     0.022553
      px      :     0.004513
      py      :     0.009905
 15 H s       :     0.910008  s :     0.910008
      pz      :     0.003226  p :     0.022980
      px      :     0.003986
      py      :     0.015769
 16 H s       :     0.932444  s :     0.932444
      pz      :     0.014031  p :     0.023635
      px      :     0.005132
      py      :     0.004472
 17 H s       :     0.931121  s :     0.931121
      pz      :     0.007258  p :     0.023664
      px      :     0.005115
      py      :     0.011291
 18 H s       :     0.912080  s :     0.912080
      pz      :     0.006921  p :     0.022884
      px      :     0.003989
      py      :     0.011974
 19 H s       :     0.876093  s :     0.876093
      pz      :     0.004696  p :     0.024039
      px      :     0.014557
      py      :     0.004787
 20 H s       :     0.915792  s :     0.915792
      pz      :     0.013267  p :     0.022473
      px      :     0.004611
      py      :     0.004595
 21 H s       :     0.935213  s :     0.935213
      pz      :     0.006453  p :     0.023100
      px      :     0.006453
      py      :     0.010194
 22 H s       :     0.937026  s :     0.937026
      pz      :     0.012082  p :     0.023068
      px      :     0.006547
      py      :     0.004440


                     *******************************
                     * LOEWDIN POPULATION ANALYSIS *
                     *******************************

----------------------
LOEWDIN ATOMIC CHARGES
----------------------
   0 O :   -0.160540
   1 C :    0.055385
   2 C :   -0.055928
   3 C :   -0.057992
   4 C :    0.019353
   5 C :   -0.030543
   6 C :   -0.029697
   7 C :    0.019015
   8 C :   -0.036578
   9 C :   -0.022546
  10 C :   -0.020941
  11 C :    0.053247
  12 O :   -0.162847
  13 H :    0.043077
  14 H :    0.042532
  15 H :    0.038757
  16 H :    0.036945
  17 H :    0.037026
  18 H :    0.038204
  19 H :    0.067898
  20 H :    0.037502
  21 H :    0.044526
  22 H :    0.044146

-------------------------------
LOEWDIN REDUCED ORBITAL CHARGES
-------------------------------
  0 O s       :     3.548978  s :     3.548978
      pz      :     1.642373  p :     4.580754
      px      :     1.470928
      py      :     1.467454
      dz2     :     0.003936  d :     0.030809
      dxz     :     0.001024
      dyz     :     0.009156
      dx2y2   :     0.010351
      dxy     :     0.006341
  1 C s       :     2.862807  s :     2.862807
      pz      :     0.977717  p :     2.855174
      px      :     0.876224
      py      :     1.001234
      dz2     :     0.042749  d :     0.226634
      dxz     :     0.016907
      dyz     :     0.070936
      dx2y2   :     0.040884
      dxy     :     0.055159
  2 C s       :     2.892476  s :     2.892476
      pz      :     1.046655  p :     3.078045
      px      :     0.974207
      py      :     1.057184
      dz2     :     0.018647  d :     0.085407
      dxz     :     0.007159
      dyz     :     0.023583
      dx2y2   :     0.016183
      dxy     :     0.019835
  3 C s       :     2.892299  s :     2.892299
      pz      :     1.040803  p :     3.080898
      px      :     0.977848
      py      :     1.062247
      dz2     :     0.012822  d :     0.084795
      dxz     :     0.013339
      dyz     :     0.027433
      dx2y2   :     0.017931
      dxy     :     0.013270
  4 C s       :     2.899462  s :     2.899462
      pz      :     1.045823  p :     2.993084
      px      :     0.894318
      py      :     1.052943
      dz2     :     0.021226  d :     0.088101
      dxz     :     0.012951
      dyz     :     0.029506
      dx2y2   :     0.016184
      dxy     :     0.008234
  5 C s       :     2.873894  s :     2.873894
      pz      :     1.042441  p :     3.064158
      px      :     0.965913
      py      :     1.055804
      dz2     :     0.024560  d :     0.092491
      dxz     :     0.007770
      dyz     :     0.033578
      dx2y2   :     0.013708
      dxy     :     0.012875
  6 C s       :     2.874156  s :     2.874156
      pz      :     1.048350  p :     3.063314
      px      :     0.965109
      py      :     1.049854
      dz2     :     0.027771  d :     0.092227
      dxz     :     0.010555
      dyz     :     0.030570
      dx2y2   :     0.013388
      dxy     :     0.009943
  7 C s       :     2.899901  s :     2.899901
      pz      :     1.062481  p :     2.992657
      px      :     0.894322
      py      :     1.035855
      dz2     :     0.026841  d :     0.088426
      dxz     :     0.012001
      dyz     :     0.025671
      dx2y2   :     0.014411
      dxy     :     0.009503
  8 C s       :     2.840230  s :     2.840230
      pz      :     1.037952  p :     3.101539
      px      :     1.048556
      py      :     1.015031
      dz2     :     0.024374  d :     0.094809
      dxz     :     0.009096
      dyz     :     0.023130
      dx2y2   :     0.021479
      dxy     :     0.016730
  9 C s       :     2.892980  s :     2.892980
      pz      :     1.014817  p :     3.044442
      px      :     0.954078
      py      :     1.075547
      dz2     :     0.016483  d :     0.085124
      dxz     :     0.009776
      dyz     :     0.026646
      dx2y2   :     0.015469
      dxy     :     0.016751
 10 C s       :     2.893534  s :     2.893534
      pz      :     1.017397  p :     3.042294
      px      :     0.952660
      py      :     1.072238
      dz2     :     0.013608  d :     0.085114
      dxz     :     0.008282
      dyz     :     0.028102
      dx2y2   :     0.016861
      dxy     :     0.018261
 11 C s       :     2.862481  s :     2.862481
      pz      :     0.966274  p :     2.857383
      px      :     0.877213
      py      :     1.013896
      dz2     :     0.033472  d :     0.226889
      dxz     :     0.016759
      dyz     :     0.075266
      dx2y2   :     0.046315
      dxy     :     0.055076
 12 O s       :     3.549076  s :     3.549076
      pz      :     1.621373  p :     4.583014
      px      :     1.471438
      py      :     1.490204
      dz2     :     0.004027  d :     0.030757
      dxz     :     0.000587
      dyz     :     0.008171
      dx2y2   :     0.011169
      dxy     :     0.006804
 13 H s       :     0.884371  s :     0.884371
      pz      :     0.042257  p :     0.072552
      px      :     0.016911
      py      :     0.013384
 14 H s       :     0.884671  s :     0.884671
      pz      :     0.026357  p :     0.072797
      px      :     0.017021
      py      :     0.029420
 15 H s       :     0.889469  s :     0.889469
      pz      :     0.012583  p :     0.071775
      px      :     0.013523
      py      :     0.045669
 16 H s       :     0.893160  s :     0.893160
      pz      :     0.039521  p :     0.069895
      px      :     0.015782
      py      :     0.014592
 17 H s       :     0.892892  s :     0.892892
      pz      :     0.021867  p :     0.070082
      px      :     0.015769
      py      :     0.032446
 18 H s       :     0.890055  s :     0.890055
      pz      :     0.021419  p :     0.071741
      px      :     0.013659
      py      :     0.036663
 19 H s       :     0.863595  s :     0.863595
      pz      :     0.013119  p :     0.068507
      px      :     0.041529
      py      :     0.013859
 20 H s       :     0.895365  s :     0.895365
      pz      :     0.038379  p :     0.067133
      px      :     0.013772
      py      :     0.014982
 21 H s       :     0.885696  s :     0.885696
      pz      :     0.020823  p :     0.069779
      px      :     0.020104
      py      :     0.028851
 22 H s       :     0.886143  s :     0.886143
      pz      :     0.035868  p :     0.069711
      px      :     0.020267
      py      :     0.013576


                      *****************************
                      * MAYER POPULATION ANALYSIS *
                      *****************************

  NA   - Mulliken gross atomic population
  ZA   - Total nuclear charge
  QA   - Mulliken gross atomic charge
  VA   - Mayer's total valence
  BVA  - Mayer's bonded valence
  FA   - Mayer's free valence

  ATOM       NA         ZA         QA         VA         BVA        FA
  0 O      8.2255     8.0000    -0.2255     2.2518     2.2518     0.0000
  1 C      5.8240     6.0000     0.1760     4.1178     4.1178     0.0000
  2 C      6.1155     6.0000    -0.1155     3.7029     3.7029     0.0000
  3 C      6.1032     6.0000    -0.1032     3.6993     3.6993    -0.0000
  4 C      6.1231     6.0000    -0.1231     3.9146     3.9146     0.0000
  5 C      6.0016     6.0000    -0.0016     3.7944     3.7944     0.0000
  6 C      5.9955     6.0000     0.0045     3.7905     3.7905    -0.0000
  7 C      6.1277     6.0000    -0.1277     3.9171     3.9171     0.0000
  8 C      5.9328     6.0000     0.0672     3.8512     3.8512    -0.0000
  9 C      6.0318     6.0000    -0.0318     3.7265     3.7265    -0.0000
 10 C      6.0331     6.0000    -0.0331     3.7297     3.7297    -0.0000
 11 C      5.8311     6.0000     0.1689     4.1278     4.1278    -0.0000
 12 O      8.2270     8.0000    -0.2270     2.2504     2.2504    -0.0000
 13 H      0.9461     1.0000     0.0539     0.9973     0.9973     0.0000
 14 H      0.9464     1.0000     0.0536     0.9981     0.9981    -0.0000
 15 H      0.9330     1.0000     0.0670     0.9888     0.9888    -0.0000
 16 H      0.9561     1.0000     0.0439     0.9893     0.9893    -0.0000
 17 H      0.9548     1.0000     0.0452     0.9894     0.9894    -0.0000
 18 H      0.9350     1.0000     0.0650     0.9879     0.9879     0.0000
 19 H      0.9001     1.0000     0.0999     0.9754     0.9754     0.0000
 20 H      0.9383     1.0000     0.0617     0.9851     0.9851    -0.0000
 21 H      0.9583     1.0000     0.0417     0.9994     0.9994    -0.0000
 22 H      0.9601     1.0000     0.0399     0.9999     0.9999    -0.0000

  Mayer bond orders larger than 0.1
B(  0-O ,  1-C ) :   2.0516 B(  1-C ,  2-C ) :   1.0069 B(  1-C ,  9-C ) :   1.0032 
B(  2-C ,  3-C ) :   1.3047 B(  2-C ,  7-C ) :   0.3959 B(  2-C , 13-H ) :   0.9354 
B(  3-C ,  4-C ) :   0.3814 B(  3-C , 11-C ) :   1.0118 B(  3-C , 14-H ) :   0.9377 
B(  4-C ,  5-C ) :   1.3824 B(  4-C ,  8-C ) :   1.0222 B(  4-C , 15-H ) :   0.9790 
B(  5-C ,  6-C ) :   1.3316 B(  5-C , 16-H ) :   1.0007 B(  6-C ,  7-C ) :   1.3734 
B(  6-C , 17-H ) :   0.9992 B(  7-C ,  8-C ) :   1.0245 B(  7-C , 18-H ) :   0.9777 
B(  8-C , 19-H ) :   0.8912 B(  8-C , 20-H ) :   0.9437 B(  9-C , 10-C ) :   1.6814 
B(  9-C , 21-H ) :   0.9788 B( 10-C , 11-C ) :   1.0062 B( 10-C , 22-H ) :   0.9784 
B( 11-C , 12-O ) :   2.0475 

-------
TIMINGS
-------

Total SCF time: 0 days 0 hours 0 min 6 sec 

Total time                  ....       6.613 sec
Sum of individual times     ....       6.407 sec  ( 96.9%)

Fock matrix formation       ....       5.535 sec  ( 83.7%)
  Split-RI-J                ....       1.041 sec  ( 18.8% of F)
  Chain of spheres X        ....       4.064 sec  ( 73.4% of F)
  XC integration            ....       0.374 sec  (  6.7% of F)
    Basis function eval.    ....       0.122 sec  ( 32.6% of XC)
    Density eval.           ....       0.079 sec  ( 21.1% of XC)
    XC-Functional eval.     ....       0.018 sec  (  4.8% of XC)
    XC-Potential eval.      ....       0.112 sec  ( 29.9% of XC)
Diagonalization             ....       0.006 sec  (  0.1%)
Density matrix formation    ....       0.006 sec  (  0.1%)
Population analysis         ....       0.009 sec  (  0.1%)
Initial guess               ....       0.014 sec  (  0.2%)
Orbital Transformation      ....       0.000 sec  (  0.0%)
Orbital Orthonormalization  ....       0.009 sec  (  0.1%)
DIIS solution               ....       0.003 sec  (  0.0%)
SOSCF solution              ....       0.026 sec  (  0.4%)
Grid generation             ....       0.809 sec  ( 12.2%)


-------------------------------------------------------------------------------
                          DFT DISPERSION CORRECTION                            
                                                                               
                              DFTD3 V3.1  Rev 1                                
                          USING Becke-Johnson damping                          
-------------------------------------------------------------------------------
The PBE0 functional is recognized
Active option DFTDOPT                   ...         4   

molecular C6(AA) [au] = 6148.573067 


            DFT-D V3
 parameters
 s6 scaling factor         :     1.0000 
 a1 scaling factor         :     0.4145 
 s8 scaling factor         :     1.2177 
 a2 scaling factor         :     4.8593 
 ad hoc parameters k1-k3   :    16.0000     1.3333    -4.0000 

 Edisp/kcal,au: -18.032396733684  -0.028736450294 
 E6   /kcal   : -11.197243752 
 E8   /kcal   :  -6.835152981 
 % E8         :  37.904850266 

-------------------------   ----------------
Dispersion correction           -0.028736450
-------------------------   ----------------


-------------------------   --------------------
FINAL SINGLE POINT ENERGY      -574.486135282187
-------------------------   --------------------

                                *** OPTIMIZATION RUN DONE ***

                            ***************************************
                            *     ORCA property calculations      *
                            ***************************************

                                    ---------------------
                                    Active property flags
                                    ---------------------
   (+) Dipole Moment


------------------------------------------------------------------------------
                       ORCA ELECTRIC PROPERTIES CALCULATION
------------------------------------------------------------------------------

Dipole Moment Calculation                       ... on
Quadrupole Moment Calculation                   ... off
Polarizability Calculation                      ... off
GBWName                                         ... template_ts_guess_orca_constrained_opt.gbw
Electron density file                           ... template_ts_guess_orca_constrained_opt.scfp.tmp
The origin for moment calculation is the CENTER OF MASS  = ( 0.614433,  0.015141 -0.025693)

-------------
DIPOLE MOMENT
-------------
                                X             Y             Z
Electronic contribution:      5.59476       0.25935      -0.55694
Nuclear contribution   :     -6.78727      -0.21103       0.41916
                        -----------------------------------------
Total Dipole Moment    :     -1.19251       0.04833      -0.13778
                        -----------------------------------------
Magnitude (a.u.)       :      1.20142
Magnitude (Debye)      :      3.05376



--------------------
Rotational spectrum 
--------------------
 
Rotational constants in cm-1:     0.034954     0.033659     0.022500 
Rotational constants in MHz :  1047.894150  1009.058761   674.531164 

 Dipole components along the rotational axes: 
x,y,z [a.u.] :    -1.158007     0.118110    -0.297451 
x,y,z [Debye]:    -2.943419     0.300212    -0.756060 

 

Timings for individual modules:

Sum of individual times         ...      437.308 sec (=   7.288 min)
GTO integral calculation        ...       21.113 sec (=   0.352 min)   4.8 %
SCF iterations                  ...      311.953 sec (=   5.199 min)  71.3 %
SCF Gradient evaluation         ...      101.933 sec (=   1.699 min)  23.3 %
Geometry relaxation             ...        2.309 sec (=   0.038 min)   0.5 %
                             ****ORCA TERMINATED NORMALLY****
TOTAL RUN TIME: 0 days 0 hours 7 minutes 22 seconds 201 msec
