
                                 *****************
                                 * O   R   C   A *
                                 *****************

           --- An Ab Initio, DFT and Semiempirical electronic structure package ---

                  #######################################################
                  #                        -***-                        #
                  #          Department of theory and spectroscopy      #
                  #               Directorship: Frank Neese             #
                  #        Max Planck Institute fuer Kohlenforschung    #
                  #                Kaiser Wilhelm Platz 1               #
                  #                 D-45470 Muelheim/Ruhr               #
                  #                      Germany                        #
                  #                                                     #
                  #                  All rights reserved                #
                  #                        -***-                        #
                  #######################################################


                         Program Version 4.1.1  - RELEASE  -


 With contributions from (in alphabetic order):
   Daniel Aravena         : Magnetic Properties
   Michael Atanasov       : Ab Initio Ligand Field Theory
   Alexander A. Auer      : GIAO ZORA
   Ute Becker             : Parallelization
   Giovanni Bistoni       : ED, Open-shell LED
   Martin Brehm           : Molecular dynamics
   Dmytro Bykov           : SCF Hessian
   Vijay G. Chilkuri      : MRCI spin determinant printing
   Dipayan Datta          : RHF DLPNO-CCSD density
   Achintya Kumar Dutta   : EOM-CC, STEOM-CC
   Dmitry Ganyushin       : Spin-Orbit,Spin-Spin,Magnetic field MRCI
   Miquel Garcia          : C-PCM Hessian
   Yang Guo               : DLPNO-NEVPT2, CIM, IAO-localization
   Andreas Hansen         : Spin unrestricted coupled pair/coupled cluster methods
   Benjamin Helmich-Paris : CASSCF linear response (MC-RPA)
   Lee Huntington         : MR-EOM, pCC
   Robert Izsak           : Overlap fitted RIJCOSX, COSX-SCS-MP3, EOM
   Christian Kollmar      : KDIIS, OOCD, Brueckner-CCSD(T), CCSD density
   Simone Kossmann        : Meta GGA functionals, TD-DFT gradient, OOMP2, MP2 Hessian
   Martin Krupicka        : AUTO-CI
   Lucas Lang             : DCDCAS
   Dagmar Lenk            : GEPOL surface, SMD
   Dimitrios Liakos       : Extrapolation schemes; parallel MDCI
   Dimitrios Manganas     : ROCIS; embedding schemes
   Dimitrios Pantazis     : SARC Basis sets
   Taras Petrenko         : DFT Hessian,TD-DFT gradient, ASA, ECA, R-Raman, ABS, FL, XAS/XES, NRVS
   Peter Pinski           : DLPNO-MP2, DLPNO-MP2 Gradient
   Christoph Reimann      : Effective Core Potentials
   Marius Retegan         : Local ZFS, SOC
   Christoph Riplinger    : Optimizer, TS searches, QM/MM, DLPNO-CCSD(T), (RO)-DLPNO pert. Triples
   Tobias Risthaus        : Range-separated hybrids, TD-DFT gradient, RPA, STAB
   Michael Roemelt        : Restricted open shell CIS
   Masaaki Saitow         : Open-shell DLPNO
   Barbara Sandhoefer     : DKH picture change effects
   Avijit Sen             : IP-ROCIS
   Kantharuban Sivalingam : CASSCF convergence, NEVPT2, FIC-MRCI
   Bernardo de Souza      : ESD, SOC TD-DFT
   Georgi Stoychev        : AutoAux, RI-MP2 NMR
   Willem Van den Heuvel  : Paramagnetic NMR
   Boris Wezisla          : Elementary symmetry handling
   Frank Wennmohs         : Technical directorship


 We gratefully acknowledge several colleagues who have allowed us to
 interface, adapt or use parts of their codes:
   Stefan Grimme, W. Hujo, H. Kruse,             : VdW corrections, initial TS optimization,
                  C. Bannwarth                     DFT functionals, gCP, sTDA/sTD-DF
   Ed Valeev                                     : LibInt (2-el integral package), F12 methods
   Garnet Chan, S. Sharma, J. Yang, R. Olivares  : DMRG
   Ulf Ekstrom                                   : XCFun DFT Library
   Mihaly Kallay                                 : mrcc  (arbitrary order and MRCC methods)
   Andreas Klamt, Michael Diedenhofen            : otool_cosmo (COSMO solvation model)
   Jiri Pittner, Ondrej Demel                    : Mk-CCSD
   Frank Weinhold                                : gennbo (NPA and NBO analysis)
   Christopher J. Cramer and Donald G. Truhlar   : smd solvation model
   Lars Goerigk                                  : TD-DFT with DH, B97 family of functionals
   V. Asgeirsson, H. Jonsson                     : NEB implementation
   FAccTs GmbH                                   : IRC, NEB, NEB-TS, Multilevel


 Your calculation uses the libint2 library for the computation of 2-el integrals
 For citations please refer to: http://libint.valeyev.net

 This ORCA versions uses:
   CBLAS   interface :  Fast vector & matrix operations
   LAPACKE interface :  Fast linear algebra routines
   SCALAPACK package :  Parallel linear algebra routines


Your calculation utilizes the atom-pairwise dispersion correction
with the Becke-Johnson damping scheme (D3BJ)
Cite in your paper:
S.Grimme, S.Ehrlich, L.Goerigk, J Comput Chem, (2011), 32, 1456–1465 
S.Grimme, J.Antony, S.Ehrlich and H.Krieg, J.Chem.Phys., 132, (2010), 154104 
   

----- Orbital basis set information -----
Your calculation utilizes the basis: def2-SVP
   F. Weigend and R. Ahlrichs, Phys. Chem. Chem. Phys. 7, 3297 (2005).

----- AuxJ basis set information -----
Your calculation utilizes the auxiliary basis: def2/J
   F. Weigend, Phys. Chem. Chem. Phys. 8, 1057 (2006).

================================================================================
                                        WARNINGS
                       Please study these warnings very carefully!
================================================================================


WARNING: Geometry Optimization
  ===> : Switching off AutoStart
         For restart on a previous wavefunction, please use MOREAD

INFO   : the flag for use of LIBINT has been found!

================================================================================
                                       INPUT FILE
================================================================================
NAME = ts_guess_orca_constrained_opt.inp
|  1> ! Opt PBE0 RIJCOSX D3BJ def2-SVP def2/J PAL8
|  2> %geom Constraints
|  3> { B 2 7 2.22506420036052 C }
|  4> { B 3 4 2.261718724744525 C }
|  5>     end
|  6> end
|  7> %geom MaxIter 100 end
|  8> %scf 
|  9> maxiter 250 
| 10> end
| 11> % maxcore 4000
| 12> *xyz 0 1
| 13> O   0.64160000 -2.75180000  0.05100000 
| 14> C   0.89450000 -1.52250000 -0.03450000 
| 15> C   0.04530000 -0.70560000 -0.90850000 
| 16> C   0.34020000  0.77000000 -0.80190000 
| 17> C  -0.80160000  1.28950000 -0.00360000 
| 18> C  -0.96950000  0.56460000  1.31050000 
| 19> C  -1.31490000 -0.69610000  1.06460000 
| 20> C  -1.38040000 -0.82530000 -0.41390000 
| 21> C  -1.93960000  0.56620000 -0.75770000 
| 22> C   2.01420000 -1.01910000  0.74660000 
| 23> C   2.40510000  0.24680000  0.64020000 
| 24> C   1.66250000  1.08400000 -0.28510000 
| 25> O   2.21070000  2.16670000 -0.66770000 
| 26> H   0.14280000 -1.08840000 -1.93880000 
| 27> H   0.24560000  1.18470000 -1.83010000 
| 28> H  -0.93460000  2.34390000  0.05580000 
| 29> H  -0.83130000  1.00030000  2.28620000 
| 30> H  -1.51740000 -1.49880000  1.74830000 
| 31> H  -1.94940000 -1.63560000 -0.79920000 
| 32> H  -1.85960000  0.79160000 -1.81890000 
| 33> H  -2.90370000  0.74240000 -0.29020000 
| 34> H   2.56820000 -1.63470000  1.43370000 
| 35> H   3.23120000  0.62740000  1.21330000 
| 36> *
| 37> 
| 38>                          ****END OF INPUT****
================================================================================

                       *****************************
                       * Geometry Optimization Run *
                       *****************************

Geometry optimization settings:
Update method            Update   .... BFGS
Choice of coordinates    CoordSys .... Z-matrix Internals
Initial Hessian          InHess   .... Almoef's Model

Convergence Tolerances:
Energy Change            TolE     ....  5.0000e-06 Eh
Max. Gradient            TolMAXG  ....  3.0000e-04 Eh/bohr
RMS Gradient             TolRMSG  ....  1.0000e-04 Eh/bohr
Max. Displacement        TolMAXD  ....  4.0000e-03 bohr
RMS Displacement         TolRMSD  ....  2.0000e-03 bohr

------------------------------------------------------------------------------
                        ORCA OPTIMIZATION COORDINATE SETUP
------------------------------------------------------------------------------

The optimization will be done in new redundant internal coordinates
Making redundant internal coordinates   ...  (new redundants) done
Evaluating the initial hessian          ...  (Almloef) done
Evaluating the coordinates              ...  done
Calculating the B-matrix                .... done
Calculating the G-matrix                .... done
Diagonalizing the G-matrix              .... done
Imposing constraints:
 Iter   0:  RMS(Cart)=    0.0560877393 RMS(Int)=    1.2101202418
 Iter   1:  RMS(Cart)=    0.0560877393 RMS(Int)=    1.0145722197
 Iter   2:  RMS(Cart)=    0.0560877393 RMS(Int)=    0.8188937327
 Iter   3:  RMS(Cart)=    0.0560877393 RMS(Int)=    0.6232442216
 Iter   4:  RMS(Cart)=    0.0560877393 RMS(Int)=    0.4279902469
 Iter   5:  RMS(Cart)=    0.0560877393 RMS(Int)=    0.2346033798
 Iter   6:  RMS(Cart)=    0.0519121480 RMS(Int)=    0.0652263836
 Iter   7:  RMS(Cart)=    0.0162608834 RMS(Int)=    0.0141191447
 Iter   8:  RMS(Cart)=    0.0030609708 RMS(Int)=    0.0043048874
 Iter   9:  RMS(Cart)=    0.0009327416 RMS(Int)=    0.0013149381
 Iter  10:  RMS(Cart)=    0.0002849121 RMS(Int)=    0.0004016628
 Iter  11:  RMS(Cart)=    0.0000870297 RMS(Int)=    0.0001226926
 Iter  12:  RMS(Cart)=    0.0000265843 RMS(Int)=    0.0000374779
 Iter  13:  RMS(Cart)=    0.0000081205 RMS(Int)=    0.0000114481
 Iter  14:  RMS(Cart)=    0.0000024805 RMS(Int)=    0.0000034969
 Iter  15:  RMS(Cart)=    0.0000007577 RMS(Int)=    0.0000010682
 Iter  16:  RMS(Cart)=    0.0000002314 RMS(Int)=    0.0000003263
 Iter  17:  RMS(Cart)=    0.0000000707 RMS(Int)=    0.0000000997
CONVERGED
The first mode is                       ....   95
The number of degrees of freedom        ....   63
Storing new coordinates                 .... done

    -----------------------------------------------------------------
                    Redundant Internal Coordinates


    -----------------------------------------------------------------
         Definition                    Initial Value    Approx d2E/dq
    -----------------------------------------------------------------
      1. B(C   1,O   0)                  1.2585         0.908965   
      2. B(C   2,C   1)                  1.4668         0.470709   
      3. B(C   3,C   2)                  1.4481         0.404202   
      4. B(C   4,C   3)                  2.2617         0.437665 C 
      5. B(C   5,C   4)                  1.5125         0.401846   
      6. B(C   6,C   5)                  1.3522         0.778620   
      7. B(C   7,C   2)                  2.2251         0.396488 C 
      8. B(C   7,C   6)                  1.5011         0.439793   
      9. B(C   8,C   4)                  1.5868         0.353610   
     10. B(C   8,C   7)                  1.5624         0.362006   
     11. B(C   9,C   1)                  1.4542         0.491935   
     12. B(C  10,C   9)                  1.3302         0.781320   
     13. B(C  11,C   3)                  1.4555         0.493866   
     14. B(C  11,C  10)                  1.4549         0.497385   
     15. B(O  12,C  11)                  1.2725         0.861805   
     16. B(H  13,C   2)                  1.1043         0.342764   
     17. B(H  14,C   3)                  1.1137         0.331278   
     18. B(H  15,C   4)                  1.0653         0.395589   
     19. B(H  16,C   5)                  1.0810         0.377074   
     20. B(H  17,C   6)                  1.0749         0.382356   
     21. B(H  18,C   7)                  1.0626         0.398451   
     22. B(H  19,C   8)                  1.0882         0.362997   
     23. B(H  20,C   8)                  1.0861         0.365619   
     24. B(H  21,C   9)                  1.0770         0.378969   
     25. B(H  22,C  10)                  1.0755         0.380424   
     26. A(C   2,C   1,C   9)          124.0904         0.396666   
     27. A(O   0,C   1,C   2)          118.3829         0.439624   
     28. A(O   0,C   1,C   9)          117.5267         0.443142   
     29. A(C   7,C   2,H  13)          112.8020         0.324862   
     30. A(C   3,C   2,H  13)          112.5124         0.325893   
     31. A(C   3,C   2,C   7)          102.1908         0.372077   
     32. A(C   1,C   2,H  13)          107.5078         0.334203   
     33. A(C   1,C   2,C   7)          107.1795         0.382007   
     34. A(C   1,C   2,C   3)          114.5848         0.383287   
     35. A(C   2,C   3,H  14)          108.0433         0.324073   
     36. A(C  11,C   3,H  14)          107.9508         0.334978   
     37. A(C   2,C   3,C   4)           99.8898         0.378479   
     38. A(C   2,C   3,C  11)          114.9882         0.386503   
     39. A(C   4,C   3,C  11)          117.2865         0.391908   
     40. A(C   4,C   3,H  14)          108.1233         0.328343   
     41. A(C   5,C   4,C   8)           94.6515         0.364473   
     42. A(C   8,C   4,H  15)          113.5875         0.326409   
     43. A(C   3,C   4,C   8)           98.2604         0.369849   
     44. A(C   3,C   4,C   5)          113.2349         0.378096   
     45. A(C   3,C   4,H  15)          117.9711         0.338149   
     46. A(C   5,C   4,H  15)          115.2750         0.333381   
     47. A(C   4,C   5,H  16)          125.0004         0.330744   
     48. A(C   6,C   5,H  16)          125.1921         0.369785   
     49. A(C   4,C   5,C   6)          109.7890         0.418358   
     50. A(C   5,C   6,C   7)          108.5253         0.425154   
     51. A(C   5,C   6,H  17)          128.4864         0.370670   
     52. A(C   7,C   6,H  17)          122.9693         0.336510   
     53. A(C   6,C   7,H  18)          117.4479         0.338830   
     54. A(C   8,C   7,H  18)          115.7771         0.328063   
     55. A(C   2,C   7,C   8)          102.6199         0.365100   
     56. A(C   6,C   7,C   8)           96.2147         0.371655   
     57. A(C   2,C   7,C   6)          108.0884         0.377536   
     58. A(C   2,C   7,H  18)          114.3614         0.333037   
     59. A(C   7,C   8,H  19)          111.6068         0.323073   
     60. A(C   4,C   8,H  20)          109.2248         0.322213   
     61. A(C   7,C   8,H  20)          110.8783         0.323455   
     62. A(H  19,C   8,H  20)          117.4697         0.291903   
     63. A(C   4,C   8,H  19)          109.4808         0.321833   
     64. A(C   4,C   8,C   7)           96.0428         0.358040   
     65. A(C   1,C   9,C  10)          120.3850         0.434058   
     66. A(C   1,C   9,H  21)          122.9832         0.342356   
     67. A(C  10,C   9,H  21)          116.6288         0.370324   
     68. A(C   9,C  10,C  11)          116.6163         0.434919   
     69. A(C   9,C  10,H  22)          121.3836         0.370568   
     70. A(C  11,C  10,H  22)          121.9977         0.343209   
     71. A(C   3,C  11,C  10)          124.2198         0.400805   
     72. A(C   3,C  11,O  12)          118.1109         0.439208   
     73. A(C  10,C  11,O  12)          117.6692         0.439771   
     74. D(H  13,C   2,C   1,O   0)    -61.5267         0.016335   
     75. D(C   7,C   2,C   1,C   9)   -119.9210         0.016335   
     76. D(C   3,C   2,C   1,C   9)     -7.3077         0.016335   
     77. D(C   3,C   2,C   1,O   0)    172.6118         0.016335   
     78. D(C   7,C   2,C   1,O   0)     59.9985         0.016335   
     79. D(H  13,C   2,C   1,C   9)    118.5538         0.016335   
     80. D(C   4,C   3,C   2,C   1)   -105.1566         0.012953   
     81. D(C  11,C   3,C   2,H  13)   -101.8798         0.012953   
     82. D(H  14,C   3,C   2,C   7)   -102.5011         0.012953   
     83. D(C  11,C   3,C   2,C   1)     21.3323         0.012953   
     84. D(C  11,C   3,C   2,C   7)    136.8727         0.012953   
     85. D(C   4,C   3,C   2,H  13)    131.6312         0.012953   
     86. D(H  14,C   3,C   2,C   1)    141.9586         0.012953   
     87. D(H  14,C   3,C   2,H  13)     18.7464         0.012953   
     88. D(C   4,C   3,C   2,C   7)     10.3837         0.012953   
     89. D(C   5,C   4,C   3,C   2)     52.2971         0.015136   
     90. D(C   5,C   4,C   3,H  14)    165.1200         0.015136   
     91. D(C   8,C   4,C   3,H  14)     66.4057         0.015136   
     92. D(C   8,C   4,C   3,C   2)    -46.4171         0.015136   
     93. D(H  15,C   4,C   3,C  11)     66.3245         0.015136   
     94. D(C   5,C   4,C   3,C  11)    -72.6225         0.015136   
     95. D(C   8,C   4,C   3,C  11)   -171.3368         0.015136   
     96. D(H  15,C   4,C   3,C   2)   -168.7559         0.015136   
     97. D(H  15,C   4,C   3,H  14)    -55.9331         0.015136   
     98. D(H  16,C   5,C   4,H  15)    -25.3356         0.011979   
     99. D(C   6,C   5,C   4,C   8)     34.3271         0.011979   
    100. D(H  16,C   5,C   4,C   8)   -144.1773         0.011979   
    101. D(H  16,C   5,C   4,C   3)    114.7648         0.011979   
    102. D(C   6,C   5,C   4,H  15)    153.1688         0.011979   
    103. D(C   6,C   5,C   4,C   3)    -66.7308         0.011979   
    104. D(C   7,C   6,C   5,C   4)     -0.1624         0.043559   
    105. D(C   7,C   6,C   5,H  16)    178.3385         0.043559   
    106. D(H  17,C   6,C   5,C   4)   -178.5897         0.043559   
    107. D(H  17,C   6,C   5,H  16)     -0.0888         0.043559   
    108. D(C   6,C   7,C   2,C   1)     44.8311         0.012481   
    109. D(H  18,C   7,C   2,C   3)    151.1543         0.012481   
    110. D(C   8,C   7,C   6,H  17)    143.7422         0.014272   
    111. D(C   6,C   7,C   2,H  13)    162.9660         0.012481   
    112. D(C   8,C   7,C   2,C   1)    145.7740         0.012481   
    113. D(C   8,C   7,C   2,C   3)     24.9565         0.012481   
    114. D(H  18,C   7,C   2,C   1)    -88.0282         0.012481   
    115. D(H  18,C   7,C   2,H  13)     30.1067         0.012481   
    116. D(C   2,C   7,C   6,C   5)     70.6815         0.014272   
    117. D(C   2,C   7,C   6,H  17)   -110.7858         0.014272   
    118. D(C   8,C   7,C   6,C   5)    -34.7906         0.014272   
    119. D(C   6,C   7,C   2,C   3)    -75.9865         0.012481   
    120. D(H  18,C   7,C   6,C   5)   -158.1228         0.014272   
    121. D(C   8,C   7,C   2,H  13)    -96.0910         0.012481   
    122. D(H  18,C   7,C   6,H  17)     20.4100         0.014272   
    123. D(H  19,C   8,C   7,C   6)    167.3289         0.010506   
    124. D(C   7,C   8,C   4,C   5)    -52.8826         0.010058   
    125. D(C   7,C   8,C   4,H  15)   -173.0783         0.010058   
    126. D(C   4,C   8,C   7,C   2)    -56.5608         0.010506   
    127. D(H  19,C   8,C   4,C   5)   -168.3644         0.010058   
    128. D(H  19,C   8,C   4,H  15)     71.4399         0.010058   
    129. D(H  20,C   8,C   4,C   3)    176.0443         0.010058   
    130. D(H  20,C   8,C   4,C   5)     61.7284         0.010058   
    131. D(H  19,C   8,C   4,C   3)    -54.0486         0.010058   
    132. D(H  20,C   8,C   4,H  15)    -58.4672         0.010058   
    133. D(C   4,C   8,C   7,C   6)     53.5864         0.010506   
    134. D(C   4,C   8,C   7,H  18)    178.1618         0.010506   
    135. D(C   7,C   8,C   4,C   3)     61.4332         0.010058   
    136. D(H  19,C   8,C   7,C   2)     57.1818         0.010506   
    137. D(H  19,C   8,C   7,H  18)    -68.0956         0.010506   
    138. D(H  20,C   8,C   7,C   2)   -169.8119         0.010506   
    139. D(H  20,C   8,C   7,C   6)    -59.6648         0.010506   
    140. D(H  20,C   8,C   7,H  18)     64.9107         0.010506   
    141. D(C  10,C   9,C   1,O   0)    176.0404         0.016479   
    142. D(C  10,C   9,C   1,C   2)     -4.0395         0.016479   
    143. D(H  21,C   9,C   1,O   0)     -4.6126         0.016479   
    144. D(H  21,C   9,C   1,C   2)    175.3075         0.016479   
    145. D(C  11,C  10,C   9,C   1)     -0.2465         0.043893   
    146. D(C  11,C  10,C   9,H  21)   -179.6338         0.043893   
    147. D(H  22,C  10,C   9,C   1)    179.2034         0.043893   
    148. D(H  22,C  10,C   9,H  21)     -0.1839         0.043893   
    149. D(C  10,C  11,C   3,C   2)    -28.0529         0.017997   
    150. D(C  10,C  11,C   3,C   4)     88.9238         0.017997   
    151. D(C  10,C  11,C   3,H  14)   -148.7298         0.017997   
    152. D(O  12,C  11,C   3,C   2)    151.8643         0.017997   
    153. D(O  12,C  11,C   3,C   4)    -91.1590         0.017997   
    154. D(O  12,C  11,C   3,H  14)     31.1873         0.017997   
    155. D(C   3,C  11,C  10,C   9)     16.9231         0.016849   
    156. D(C   3,C  11,C  10,H  22)   -162.5231         0.016849   
    157. D(O  12,C  11,C  10,C   9)   -162.9944         0.016849   
    158. D(O  12,C  11,C  10,H  22)     17.5594         0.016849   
    -----------------------------------------------------------------

Number of atoms                         .... 23
Number of degrees of freedom            .... 158

         *************************************************************
         *                GEOMETRY OPTIMIZATION CYCLE   1            *
         *************************************************************
---------------------------------
CARTESIAN COORDINATES (ANGSTROEM)
---------------------------------
  O      0.917285   -2.781316   -0.018538
  C      1.203758   -1.560133   -0.121430
  C      0.408096   -0.731762   -1.033642
  C      0.694642    0.686044   -0.964807
  C     -1.132300    1.397288    0.162928
  C     -1.376474    0.633808    1.445538
  C     -1.702741   -0.647163    1.160765
  C     -1.701085   -0.819533   -0.330392
  C     -2.232812    0.610658   -0.666573
  C      2.309403   -1.059370    0.679525
  C      2.711455    0.202667    0.557060
  C      1.996168    1.023952   -0.407674
  O      2.548280    2.105747   -0.787228
  H      0.537218   -1.140285   -2.051392
  H      0.646115    1.098341   -1.998216
  H     -1.308724    2.446482    0.217505
  H     -1.323342    1.057118    2.438820
  H     -1.955456   -1.440152    1.840994
  H     -2.263313   -1.627466   -0.730672
  H     -2.122993    0.840578   -1.724565
  H     -3.206976    0.777197   -0.216187
  H      2.834747   -1.665790    1.397955
  H      3.518947    0.593288    1.150327

----------------------------
CARTESIAN COORDINATES (A.U.)
----------------------------
  NO LB      ZA    FRAG     MASS         X           Y           Z
   0 O     8.0000    0    15.999    1.733418   -5.255926   -0.035032
   1 C     6.0000    0    12.011    2.274773   -2.948223   -0.229470
   2 C     6.0000    0    12.011    0.771190   -1.382830   -1.953300
   3 C     6.0000    0    12.011    1.312683    1.296435   -1.823222
   4 C     6.0000    0    12.011   -2.139736    2.640492    0.307890
   5 C     6.0000    0    12.011   -2.601159    1.197724    2.731670
   6 C     6.0000    0    12.011   -3.217714   -1.222961    2.193528
   7 C     6.0000    0    12.011   -3.214585   -1.548694   -0.624349
   8 C     6.0000    0    12.011   -4.219403    1.153977   -1.259640
   9 C     6.0000    0    12.011    4.364139   -2.001920    1.284116
  10 C     6.0000    0    12.011    5.123908    0.382984    1.052690
  11 C     6.0000    0    12.011    3.772210    1.934989   -0.770392
  12 O     8.0000    0    15.999    4.815552    3.979286   -1.487646
  13 H     1.0000    0     1.008    1.015195   -2.154826   -3.876570
  14 H     1.0000    0     1.008    1.220981    2.075564   -3.776080
  15 H     1.0000    0     1.008   -2.473130    4.623182    0.411025
  16 H     1.0000    0     1.008   -2.500755    1.997664    4.608701
  17 H     1.0000    0     1.008   -3.695277   -2.721492    3.478974
  18 H     1.0000    0     1.008   -4.277041   -3.075464   -1.380771
  19 H     1.0000    0     1.008   -4.011875    1.588462   -3.258955
  20 H     1.0000    0     1.008   -6.060306    1.468690   -0.408533
  21 H     1.0000    0     1.008    5.356896   -3.147887    2.641751
  22 H     1.0000    0     1.008    6.649847    1.121152    2.173803

--------------------------------
INTERNAL COORDINATES (ANGSTROEM)
--------------------------------
 O      0   0   0     0.000000000000     0.00000000     0.00000000
 C      1   0   0     1.257953556376     0.00000000     0.00000000
 C      2   1   0     1.467086313071   117.92117230     0.00000000
 C      3   2   1     1.508550605714   112.91745821   173.14714484
 C      4   3   2     1.486899586388   103.27218036   255.14762529
 C      5   4   3     1.510142122451   112.63484533    54.77569177
 C      6   5   4     1.330087388107   108.84301244   294.00103586
 C      7   6   5     1.485579058818   106.13348509     0.00000000
 C      8   7   6     1.538562748152    99.19290514   323.87267925
 C      2   1   3     1.455079674794   117.14846356   180.00577414
 C     10   2   1     1.329145056042   120.85308506   175.25240436
 C     11  10   2     1.452080813867   116.72604498     0.00000000
 O     12  11  10     1.272456400039   117.50648822   197.99392331
 H      3   2   1     1.103431094360   108.17612583   298.75503038
 H      4   3   2     1.112708627629   106.41763865   142.10017971
 H      5   4   3     1.064413791718   118.16485420   191.73577708
 H      6   5   4     1.077461934362   125.42438112   113.99857363
 H      7   6   5     1.073675570179   129.78204896   180.02053012
 H      8   7   6     1.062451495363   116.79923448   200.38929691
 H      9   8   7     1.087819194536   112.25047217   166.69451452
 H      9   8   7     1.085859797580   111.91639275   300.37435648
 H     10   2   1     1.076097472351   122.75229085   355.25468692
 H     11  10   2     1.075054035851   121.36590474   179.99939517

---------------------------
INTERNAL COORDINATES (A.U.)
---------------------------
 O      0   0   0     0.000000000000     0.00000000     0.00000000
 C      1   0   0     2.377187710744     0.00000000     0.00000000
 C      2   1   0     2.772391346528   117.92117230     0.00000000
 C      3   2   1     2.850747503960   112.91745821   173.14714484
 C      4   3   2     2.809833006914   103.27218036   255.14762529
 C      5   4   3     2.853755034730   112.63484533    54.77569177
 C      6   5   4     2.513500897704   108.84301244   294.00103586
 C      7   6   5     2.807337571455   106.13348509     0.00000000
 C      8   7   6     2.907462233860    99.19290514   323.87267925
 C      2   1   3     2.749702088397   117.14846356   180.00577414
 C     10   2   1     2.511720148174   120.85308506   175.25240436
 C     11  10   2     2.744035062530   116.72604498     0.00000000
 O     12  11  10     2.404594113429   117.50648822   197.99392331
 H      3   2   1     2.085182575993   108.17612583   298.75503038
 H      4   3   2     2.102714573070   106.41763865   142.10017971
 H      5   4   3     2.011450559516   118.16485420   191.73577708
 H      6   5   4     2.036107975670   125.42438112   113.99857363
 H      7   6   5     2.028952784321   129.78204896   180.02053012
 H      8   7   6     2.007742356812   116.79923448   200.38929691
 H      9   8   7     2.055680360895   112.25047217   166.69451452
 H      9   8   7     2.051977637261   111.91639275   300.37435648
 H     10   2   1     2.033529516148   122.75229085   355.25468692
 H     11  10   2     2.031557706926   121.36590474   179.99939517

---------------------
BASIS SET INFORMATION
---------------------
There are 3 groups of distinct atoms

 Group   1 Type O   : 7s4p1d contracted to 3s2p1d pattern {511/31/1}
 Group   2 Type C   : 7s4p1d contracted to 3s2p1d pattern {511/31/1}
 Group   3 Type H   : 4s1p contracted to 2s1p pattern {31/1}

Atom   0O    basis set group =>   1
Atom   1C    basis set group =>   2
Atom   2C    basis set group =>   2
Atom   3C    basis set group =>   2
Atom   4C    basis set group =>   2
Atom   5C    basis set group =>   2
Atom   6C    basis set group =>   2
Atom   7C    basis set group =>   2
Atom   8C    basis set group =>   2
Atom   9C    basis set group =>   2
Atom  10C    basis set group =>   2
Atom  11C    basis set group =>   2
Atom  12O    basis set group =>   1
Atom  13H    basis set group =>   3
Atom  14H    basis set group =>   3
Atom  15H    basis set group =>   3
Atom  16H    basis set group =>   3
Atom  17H    basis set group =>   3
Atom  18H    basis set group =>   3
Atom  19H    basis set group =>   3
Atom  20H    basis set group =>   3
Atom  21H    basis set group =>   3
Atom  22H    basis set group =>   3
-------------------------------
AUXILIARY BASIS SET INFORMATION
-------------------------------
There are 3 groups of distinct atoms

 Group   1 Type O   : 12s5p4d2f1g contracted to 6s4p3d1f1g pattern {711111/2111/211/2/1}
 Group   2 Type C   : 12s5p4d2f1g contracted to 6s4p3d1f1g pattern {711111/2111/211/2/1}
 Group   3 Type H   : 5s2p1d contracted to 3s1p1d pattern {311/2/1}

Atom   0O    basis set group =>   1
Atom   1C    basis set group =>   2
Atom   2C    basis set group =>   2
Atom   3C    basis set group =>   2
Atom   4C    basis set group =>   2
Atom   5C    basis set group =>   2
Atom   6C    basis set group =>   2
Atom   7C    basis set group =>   2
Atom   8C    basis set group =>   2
Atom   9C    basis set group =>   2
Atom  10C    basis set group =>   2
Atom  11C    basis set group =>   2
Atom  12O    basis set group =>   1
Atom  13H    basis set group =>   3
Atom  14H    basis set group =>   3
Atom  15H    basis set group =>   3
Atom  16H    basis set group =>   3
Atom  17H    basis set group =>   3
Atom  18H    basis set group =>   3
Atom  19H    basis set group =>   3
Atom  20H    basis set group =>   3
Atom  21H    basis set group =>   3
Atom  22H    basis set group =>   3


           ************************************************************
           *        Program running with 8 parallel MPI-processes     *
           *              working on a common directory               *
           ************************************************************
------------------------------------------------------------------------------
                           ORCA GTO INTEGRAL CALCULATION
                           -- RI-GTO INTEGRALS CHOSEN --
------------------------------------------------------------------------------

                         BASIS SET STATISTICS AND STARTUP INFO

Gaussian basis set:
 # of primitive gaussian shells          ...  206
 # of primitive gaussian functions       ...  382
 # of contracted shells                  ...  108
 # of contracted basis functions         ...  232
 Highest angular momentum                ...    2
 Maximum contraction depth               ...    5
Auxiliary gaussian basis set:
 # of primitive gaussian shells          ...  392
 # of primitive gaussian functions       ... 1070
 # of contracted shells                  ...  245
 # of contracted aux-basis functions     ...  747
 Highest angular momentum                ...    4
 Maximum contraction depth               ...    7
Ratio of auxiliary to basis functions    ...  3.22
Integral package used                  ... LIBINT
 One Electron integrals                  ... done
 Ordering auxiliary basis shells         ... done
 Integral threshhold             Thresh  ...  2.500e-11
 Primitive cut-off               TCut    ...  2.500e-12
 Pre-screening matrix                    ... done
 Shell pair data                         ... 
 Ordering of the shell pairs             ... done (   0.001 sec) 5379 of 5886 pairs
 Determination of significant pairs      ... done (   0.000 sec)
 Creation of shell pair data             ... done (   0.001 sec)
 Storage of shell pair data              ... done (   0.025 sec)
 Shell pair data done in (   0.027 sec)
 Computing two index integrals           ... done
 Cholesky decomposition of the V-matrix  ... done


Timings:
 Total evaluation time                   ...   0.252 sec (  0.004 min)
 One electron matrix time                ...   0.035 sec (  0.001 min) = 13.9%
 Schwartz matrix evaluation time         ...   0.147 sec (  0.002 min) = 58.4%
 Two index repulsion integral time       ...   0.014 sec (  0.000 min) =  5.4%
 Cholesky decomposition of V             ...   0.013 sec (  0.000 min) =  5.1%
 Three index repulsion integral time     ...   0.000 sec (  0.000 min) =  0.0%



           ************************************************************
           *        Program running with 8 parallel MPI-processes     *
           *              working on a common directory               *
           ************************************************************
-------------------------------------------------------------------------------
                                 ORCA SCF
-------------------------------------------------------------------------------

------------
SCF SETTINGS
------------
Hamiltonian:
 Density Functional     Method          .... DFT(GTOs)
 Exchange Functional    Exchange        .... PBE
   PBE kappa parameter   XKappa         ....  0.804000
   PBE mue parameter    XMuePBE         ....  0.219520
 Correlation Functional Correlation     .... PBE
   PBE beta parameter  CBetaPBE         ....  0.066725
 LDA part of GGA corr.  LDAOpt          .... PW91-LDA
 Gradients option       PostSCFGGA      .... off
 Hybrid DFT is turned on
   Fraction HF Exchange ScalHFX         ....  0.250000
   Scaling of DF-GGA-X  ScalDFX         ....  0.750000
   Scaling of DF-GGA-C  ScalDFC         ....  1.000000
   Scaling of DF-LDA-C  ScalLDAC        ....  1.000000
   Perturbative correction              ....  0.000000
   Density functional embedding theory  .... OFF
   NL short-range parameter             ....  6.900000
 RI-approximation to the Coulomb term is turned on
   Number of auxiliary basis functions  .... 747
   RIJ-COSX (HFX calculated with COS-X)).... on


General Settings:
 Integral files         IntName         .... ts_guess_orca_constrained_opt
 Hartree-Fock type      HFTyp           .... RHF
 Total Charge           Charge          ....    0
 Multiplicity           Mult            ....    1
 Number of Electrons    NEL             ....   92
 Basis Dimension        Dim             ....  232
 Nuclear Repulsion      ENuc            ....    752.2853769104 Eh

Convergence Acceleration:
 DIIS                   CNVDIIS         .... on
   Start iteration      DIISMaxIt       ....    12
   Startup error        DIISStart       ....  0.200000
   # of expansion vecs  DIISMaxEq       ....     5
   Bias factor          DIISBfac        ....   1.050
   Max. coefficient     DIISMaxC        ....  10.000
 Newton-Raphson         CNVNR           .... off
 SOSCF                  CNVSOSCF        .... on
   Start iteration      SOSCFMaxIt      ....   150
   Startup grad/error   SOSCFStart      ....  0.003300
 Level Shifting         CNVShift        .... on
   Level shift para.    LevelShift      ....    0.2500
   Turn off err/grad.   ShiftErr        ....    0.0010
 Zerner damping         CNVZerner       .... off
 Static damping         CNVDamp         .... on
   Fraction old density DampFac         ....    0.7000
   Max. Damping (<1)    DampMax         ....    0.9800
   Min. Damping (>=0)   DampMin         ....    0.0000
   Turn off err/grad.   DampErr         ....    0.1000
 Fernandez-Rico         CNVRico         .... off

SCF Procedure:
 Maximum # iterations   MaxIter         ....   250
 SCF integral mode      SCFMode         .... Direct
   Integral package                     .... LIBINT
 Reset frequency        DirectResetFreq ....    20
 Integral Threshold     Thresh          ....  2.500e-11 Eh
 Primitive CutOff       TCut            ....  2.500e-12 Eh

Convergence Tolerance:
 Convergence Check Mode ConvCheckMode   .... Total+1el-Energy
 Convergence forced     ConvForced      .... 0
 Energy Change          TolE            ....  1.000e-08 Eh
 1-El. energy change                    ....  1.000e-05 Eh
 Orbital Gradient       TolG            ....  1.000e-05
 Orbital Rotation angle TolX            ....  1.000e-05
 DIIS Error             TolErr          ....  5.000e-07


Diagonalization of the overlap matrix:
Smallest eigenvalue                        ... 3.378e-04
Time for diagonalization                   ...    0.005 sec
Threshold for overlap eigenvalues          ... 1.000e-08
Number of eigenvalues below threshold      ... 0
Time for construction of square roots      ...    0.007 sec
Total time needed                          ...    0.013 sec

-------------------
DFT GRID GENERATION
-------------------

General Integration Accuracy     IntAcc      ...  4.340
Radial Grid Type                 RadialGrid  ... Gauss-Chebyshev
Angular Grid (max. acc.)         AngularGrid ... Lebedev-110
Angular grid pruning method      GridPruning ... 3 (G Style)
Weight generation scheme         WeightScheme... Becke
Basis function cutoff            BFCut       ...    1.0000e-11
Integration weight cutoff        WCut        ...    1.0000e-14
Grids for H and He will be reduced by one unit

# of grid points (after initial pruning)     ...  29588 (   0.0 sec)
# of grid points (after weights+screening)   ...  26798 (   0.0 sec)
nearest neighbour list constructed           ...    0.0 sec
Grid point re-assignment to atoms done       ...    0.0 sec
Grid point division into batches done        ...    0.0 sec
Reduced shell lists constructed in    0.0 sec

Total number of grid points                  ...    26798
Total number of batches                      ...      430
Average number of points per batch           ...       62
Average number of grid points per atom       ...     1165
Average number of shells per batch           ...    74.91 (69.36%)
Average number of basis functions per batch  ...   158.76 (68.43%)
Average number of large shells per batch     ...    56.15 (74.95%)
Average number of large basis fcns per batch ...   116.29 (73.25%)
Maximum spatial batch extension              ...  19.34, 14.15, 16.19 au
Average spatial batch extension              ...   0.39,  0.34,  0.37 au

Time for grid setup =    0.103 sec

------------------------------
INITIAL GUESS: MODEL POTENTIAL
------------------------------
Loading Hartree-Fock densities                     ... done
Calculating cut-offs                               ... done
Setting up the integral package                    ... done
Initializing the effective Hamiltonian             ... done
Starting the Coulomb interaction                   ... done (   0.0 sec)
Reading the grid                                   ... done
Mapping shells                                     ... done
Starting the XC term evaluation                    ... done (   0.1 sec)
  promolecular density results
     # of electrons  =     91.995184281
     EX              =    -75.352988342
     EC              =     -3.055353381
     EX+EC           =    -78.408341723
Transforming the Hamiltonian                       ... done (   0.0 sec)
Diagonalizing the Hamiltonian                      ... done (   0.0 sec)
Back transforming the eigenvectors                 ... done (   0.0 sec)
Now organizing SCF variables                       ... done
                      ------------------
                      INITIAL GUESS DONE (   0.3 sec)
                      ------------------
--------------------
COSX GRID GENERATION
--------------------

General Integration Accuracy     IntAcc      ...  3.340
Radial Grid Type                 RadialGrid  ... Gauss-Chebyshev
Angular Grid (max. acc.)         AngularGrid ... Lebedev-50
Angular grid pruning method      GridPruning ... 3 (G Style)
Weight generation scheme         WeightScheme... Becke
Basis function cutoff            BFCut       ...    1.0000e-11
Integration weight cutoff        WCut        ...    1.0000e-14
Grids for H and He will be reduced by one unit

# of grid points (after initial pruning)     ...  10740 (   0.0 sec)
# of grid points (after weights+screening)   ...   9816 (   0.0 sec)
nearest neighbour list constructed           ...    0.0 sec
Grid point re-assignment to atoms done       ...    0.0 sec
Grid point division into batches done        ...    0.0 sec
Reduced shell lists constructed in    0.0 sec

Total number of grid points                  ...     9816
Total number of batches                      ...      165
Average number of points per batch           ...       59
Average number of grid points per atom       ...      427
Average number of shells per batch           ...    79.36 (73.48%)
Average number of basis functions per batch  ...   170.18 (73.35%)
Average number of large shells per batch     ...    60.95 (76.80%)
Average number of large basis fcns per batch ...   128.23 (75.35%)
Maximum spatial batch extension              ...  13.69, 12.91, 20.72 au
Average spatial batch extension              ...   0.49,  0.43,  0.52 au

Overlap Fitting                  UseSFitting ... on
Constructing numerical overlap ... done (      0.0 sec)
Inverting numerical overlap    ... done (      0.0 sec)
Obtaining analytic overlap     ... done (      0.0 sec)
Final contraction and storage  ... done (      0.0 sec)


General Integration Accuracy     IntAcc      ...  3.670
Radial Grid Type                 RadialGrid  ... Gauss-Chebyshev
Angular Grid (max. acc.)         AngularGrid ... Lebedev-50
Angular grid pruning method      GridPruning ... 3 (G Style)
Weight generation scheme         WeightScheme... Becke
Basis function cutoff            BFCut       ...    1.0000e-11
Integration weight cutoff        WCut        ...    1.0000e-14
Grids for H and He will be reduced by one unit

# of grid points (after initial pruning)     ...  13586 (   0.0 sec)
# of grid points (after weights+screening)   ...  12387 (   0.0 sec)
nearest neighbour list constructed           ...    0.0 sec
Grid point re-assignment to atoms done       ...    0.0 sec
Grid point division into batches done        ...    0.0 sec
Reduced shell lists constructed in    0.0 sec

Total number of grid points                  ...    12387
Total number of batches                      ...      204
Average number of points per batch           ...       60
Average number of grid points per atom       ...      539
Average number of shells per batch           ...    78.59 (72.77%)
Average number of basis functions per batch  ...   167.48 (72.19%)
Average number of large shells per batch     ...    58.81 (74.84%)
Average number of large basis fcns per batch ...   123.41 (73.68%)
Maximum spatial batch extension              ...  14.66, 14.18, 22.67 au
Average spatial batch extension              ...   0.43,  0.40,  0.49 au

Overlap Fitting                  UseSFitting ... on
Constructing numerical overlap ... done (      0.0 sec)
Inverting numerical overlap    ... done (      0.0 sec)
Obtaining analytic overlap     ... done (      0.0 sec)
Final contraction and storage  ... done (      0.0 sec)


General Integration Accuracy     IntAcc      ...  4.010
Radial Grid Type                 RadialGrid  ... Gauss-Chebyshev
Angular Grid (max. acc.)         AngularGrid ... Lebedev-110
Angular grid pruning method      GridPruning ... 3 (G Style)
Weight generation scheme         WeightScheme... Becke
Basis function cutoff            BFCut       ...    1.0000e-11
Integration weight cutoff        WCut        ...    1.0000e-14
Grids for H and He will be reduced by one unit

# of grid points (after initial pruning)     ...  25672 (   0.0 sec)
# of grid points (after weights+screening)   ...  23314 (   0.0 sec)
nearest neighbour list constructed           ...    0.0 sec
Grid point re-assignment to atoms done       ...    0.0 sec
Grid point division into batches done        ...    0.0 sec
Reduced shell lists constructed in    0.0 sec

Total number of grid points                  ...    23314
Total number of batches                      ...      377
Average number of points per batch           ...       61
Average number of grid points per atom       ...     1014
Average number of shells per batch           ...    75.31 (69.73%)
Average number of basis functions per batch  ...   159.63 (68.81%)
Average number of large shells per batch     ...    56.80 (75.42%)
Average number of large basis fcns per batch ...   118.02 (73.93%)
Maximum spatial batch extension              ...  18.30, 13.23, 16.80 au
Average spatial batch extension              ...   0.40,  0.35,  0.40 au

Overlap Fitting                  UseSFitting ... on
Constructing numerical overlap ... done (      0.0 sec)
Inverting numerical overlap    ... done (      0.0 sec)
Obtaining analytic overlap     ... done (      0.0 sec)
Final contraction and storage  ... done (      0.0 sec)

Time for X-Grid setup             =    0.268 sec
--------------
SCF ITERATIONS
--------------
ITER       Energy         Delta-E        Max-DP      RMS-DP      [F,P]     Damp
               ***  Starting incremental Fock matrix formation  ***
  0   -574.0877285031   0.000000000000 0.22161108  0.00310041  0.2366805 0.7000
  1   -574.2108830462  -0.123154543066 0.13546662  0.00193508  0.0905257 0.7000
                               ***Turning on DIIS***
  2   -574.2563141054  -0.045431059221 0.09333615  0.00245820  0.0326551 0.0000
  3   -574.3380818565  -0.081767751092 0.11976427  0.00155594  0.0454926 0.0000
  4   -574.3499081006  -0.011826244119 0.01090670  0.00033832  0.0213222 0.0000
                      *** Initiating the SOSCF procedure ***
                           *** Shutting down DIIS ***
                      *** Re-Reading the Fockian *** 
                      *** Removing any level shift *** 
ITER      Energy       Delta-E        Grad      Rot      Max-DP    RMS-DP
  5   -574.35171962  -0.0018115148  0.000740  0.000740  0.008668  0.000126
               *** Restarting incremental Fock matrix formation ***
  6   -574.35176927  -0.0000496569  0.000390  0.001734  0.002907  0.000052
  7   -574.35177291  -0.0000036367  0.000239  0.000889  0.002967  0.000039
  8   -574.35177624  -0.0000033338  0.000186  0.000369  0.002070  0.000024
  9   -574.35177635  -0.0000001038  0.000109  0.000206  0.000259  0.000009
 10   -574.35177724  -0.0000008916  0.000034  0.000110  0.000259  0.000005
 11   -574.35177722   0.0000000132  0.000035  0.000060  0.000096  0.000002
 12   -574.35177729  -0.0000000624  0.000008  0.000049  0.000134  0.000002
 13   -574.35177729  -0.0000000065  0.000005  0.000012  0.000019  0.000001
                  ***Gradient check signals convergence***
              ***Rediagonalizing the Fockian in SOSCF/NRSCF***

               *****************************************************
               *                     SUCCESS                       *
               *           SCF CONVERGED AFTER  14 CYCLES          *
               *****************************************************

Setting up the final grid:

General Integration Accuracy     IntAcc      ...  4.670
Radial Grid Type                 RadialGrid  ... Gauss-Chebyshev
Angular Grid (max. acc.)         AngularGrid ... Lebedev-302
Angular grid pruning method      GridPruning ... 3 (G Style)
Weight generation scheme         WeightScheme... Becke
Basis function cutoff            BFCut       ...    1.0000e-11
Integration weight cutoff        WCut        ...    1.0000e-14
Grids for H and He will be reduced by one unit

# of grid points (after initial pruning)     ... 114696 (   0.0 sec)
# of grid points (after weights+screening)   ... 101839 (   0.1 sec)
nearest neighbour list constructed           ...    0.0 sec
Grid point re-assignment to atoms done       ...    0.0 sec
Grid point division into batches done        ...    0.3 sec
Reduced shell lists constructed in    0.4 sec

Total number of grid points                  ...   101839
Total number of batches                      ...     1603
Average number of points per batch           ...       63
Average number of grid points per atom       ...     4428
Average number of shells per batch           ...    70.92 (65.66%)
Average number of basis functions per batch  ...   149.26 (64.34%)
Average number of large shells per batch     ...    52.86 (74.53%)
Average number of large basis fcns per batch ...   109.13 (73.12%)
Maximum spatial batch extension              ...  17.68, 13.42, 13.13 au
Average spatial batch extension              ...   0.24,  0.23,  0.23 au

Final grid set up in    0.5 sec
Final integration                            ... done (   0.2 sec)
Change in XC energy                          ...     0.000391867
Integrated number of electrons               ...    91.999884767
Previous integrated no of electrons          ...    92.000992591
Old exchange energy                            =    -19.154439426 Eh
New exchange energy                            =    -19.154317432 Eh
Exchange energy change after final integration =      0.000121993 Eh
Total energy after final integration           =   -574.351263435 Eh
Final COS-X integration done in                =     1.151 sec

----------------
TOTAL SCF ENERGY
----------------

Total Energy       :         -574.35126344 Eh          -15628.89244 eV

Components:
Nuclear Repulsion  :          752.28537691 Eh           20470.72582 eV
Electronic Energy  :        -1326.63664035 Eh          -36099.61825 eV
One Electron Energy:        -2272.00583645 Eh          -61824.42190 eV
Two Electron Energy:          945.36919610 Eh           25724.80365 eV

Virial components:
Potential Energy   :        -1142.83227728 Eh          -31098.04726 eV
Kinetic Energy     :          568.48101385 Eh           15469.15482 eV
Virial Ratio       :            2.01032620


DFT components:
N(Alpha)           :       45.999942383499 electrons
N(Beta)            :       45.999942383499 electrons
N(Total)           :       91.999884766998 electrons
E(X)               :      -57.372532437529 Eh       
E(C)               :       -3.079265802371 Eh       
E(XC)              :      -60.451798239900 Eh       
DFET-embed. en.    :        0.000000000000 Eh       

---------------
SCF CONVERGENCE
---------------

  Last Energy change         ...   -2.1981e-09  Tolerance :   1.0000e-08
  Last MAX-Density change    ...    5.3291e-15  Tolerance :   1.0000e-07
  Last RMS-Density change    ...    5.4552e-17  Tolerance :   5.0000e-09
  Last Orbital Gradient      ...    2.0703e-06  Tolerance :   1.0000e-05
  Last Orbital Rotation      ...    1.0046e-05  Tolerance :   1.0000e-05

             **** THE GBW FILE WAS UPDATED (ts_guess_orca_constrained_opt.gbw) ****
             **** DENSITY FILE WAS UPDATED (ts_guess_orca_constrained_opt.scfp.tmp) ****
             **** ENERGY FILE WAS UPDATED (ts_guess_orca_constrained_opt.en.tmp) ****
----------------
ORBITAL ENERGIES
----------------

  NO   OCC          E(Eh)            E(eV) 
   0   2.0000     -19.196197      -522.3551 
   1   2.0000     -19.195071      -522.3244 
   2   2.0000     -10.324791      -280.9518 
   3   2.0000     -10.324099      -280.9330 
   4   2.0000     -10.290217      -280.0110 
   5   2.0000     -10.286688      -279.9150 
   6   2.0000     -10.277059      -279.6530 
   7   2.0000     -10.275331      -279.6060 
   8   2.0000     -10.266730      -279.3719 
   9   2.0000     -10.264416      -279.3090 
  10   2.0000     -10.262409      -279.2544 
  11   2.0000     -10.261282      -279.2237 
  12   2.0000     -10.261008      -279.2162 
  13   2.0000      -1.039016       -28.2731 
  14   2.0000      -1.030202       -28.0332 
  15   2.0000      -0.896364       -24.3913 
  16   2.0000      -0.871081       -23.7033 
  17   2.0000      -0.803667       -21.8689 
  18   2.0000      -0.735678       -20.0188 
  19   2.0000      -0.724745       -19.7213 
  20   2.0000      -0.705230       -19.1903 
  21   2.0000      -0.648444       -17.6451 
  22   2.0000      -0.612049       -16.6547 
  23   2.0000      -0.590384       -16.0652 
  24   2.0000      -0.553484       -15.0611 
  25   2.0000      -0.543366       -14.7857 
  26   2.0000      -0.516475       -14.0540 
  27   2.0000      -0.502329       -13.6691 
  28   2.0000      -0.497397       -13.5349 
  29   2.0000      -0.477408       -12.9909 
  30   2.0000      -0.469182       -12.7671 
  31   2.0000      -0.427524       -11.6335 
  32   2.0000      -0.424844       -11.5606 
  33   2.0000      -0.418524       -11.3886 
  34   2.0000      -0.415250       -11.2995 
  35   2.0000      -0.397332       -10.8119 
  36   2.0000      -0.393127       -10.6975 
  37   2.0000      -0.385904       -10.5010 
  38   2.0000      -0.383722       -10.4416 
  39   2.0000      -0.360994        -9.8231 
  40   2.0000      -0.341659        -9.2970 
  41   2.0000      -0.304446        -8.2844 
  42   2.0000      -0.285292        -7.7632 
  43   2.0000      -0.275604        -7.4996 
  44   2.0000      -0.265120        -7.2143 
  45   2.0000      -0.259698        -7.0667 
  46   0.0000      -0.100406        -2.7322 
  47   0.0000      -0.069475        -1.8905 
  48   0.0000      -0.035388        -0.9630 
  49   0.0000       0.026623         0.7244 
  50   0.0000       0.043492         1.1835 
  51   0.0000       0.062906         1.7118 
  52   0.0000       0.081970         2.2305 
  53   0.0000       0.092687         2.5221 
  54   0.0000       0.104223         2.8361 
  55   0.0000       0.116156         3.1608 
  56   0.0000       0.119790         3.2597 
  57   0.0000       0.138972         3.7816 
  58   0.0000       0.143106         3.8941 
  59   0.0000       0.149274         4.0619 
  60   0.0000       0.152451         4.1484 
  61   0.0000       0.179321         4.8796 
  62   0.0000       0.182850         4.9756 
  63   0.0000       0.190249         5.1769 
  64   0.0000       0.197271         5.3680 
  65   0.0000       0.216235         5.8840 
  66   0.0000       0.233173         6.3450 
  67   0.0000       0.256757         6.9867 
  68   0.0000       0.283030         7.7016 
  69   0.0000       0.296848         8.0776 
  70   0.0000       0.302150         8.2219 
  71   0.0000       0.324594         8.8327 
  72   0.0000       0.335175         9.1206 
  73   0.0000       0.351635         9.5685 
  74   0.0000       0.397416        10.8142 
  75   0.0000       0.403755        10.9867 
  76   0.0000       0.418242        11.3809 
  77   0.0000       0.426263        11.5992 
  78   0.0000       0.446784        12.1576 
  79   0.0000       0.463977        12.6255 
  80   0.0000       0.478067        13.0089 
  81   0.0000       0.491243        13.3674 
  82   0.0000       0.501233        13.6393 
  83   0.0000       0.510440        13.8898 
  84   0.0000       0.542287        14.7564 
  85   0.0000       0.546865        14.8810 
  86   0.0000       0.552300        15.0289 
  87   0.0000       0.556882        15.1535 
  88   0.0000       0.573902        15.6167 
  89   0.0000       0.584360        15.9013 
  90   0.0000       0.597831        16.2678 
  91   0.0000       0.612974        16.6799 
  92   0.0000       0.619965        16.8701 
  93   0.0000       0.627292        17.0695 
  94   0.0000       0.630396        17.1540 
  95   0.0000       0.634366        17.2620 
  96   0.0000       0.638306        17.3692 
  97   0.0000       0.654563        17.8116 
  98   0.0000       0.655225        17.8296 
  99   0.0000       0.663109        18.0441 
 100   0.0000       0.672533        18.3005 
 101   0.0000       0.679321        18.4853 
 102   0.0000       0.689466        18.7613 
 103   0.0000       0.697325        18.9752 
 104   0.0000       0.703866        19.1532 
 105   0.0000       0.713243        19.4083 
 106   0.0000       0.719334        19.5741 
 107   0.0000       0.725986        19.7551 
 108   0.0000       0.735487        20.0136 
 109   0.0000       0.743174        20.2228 
 110   0.0000       0.750757        20.4291 
 111   0.0000       0.770681        20.9713 
 112   0.0000       0.784862        21.3572 
 113   0.0000       0.799525        21.7562 
 114   0.0000       0.811663        22.0865 
 115   0.0000       0.829231        22.5645 
 116   0.0000       0.847353        23.0577 
 117   0.0000       0.853009        23.2116 
 118   0.0000       0.888792        24.1852 
 119   0.0000       0.899859        24.4864 
 120   0.0000       0.929801        25.3012 
 121   0.0000       0.940843        25.6016 
 122   0.0000       0.987510        26.8715 
 123   0.0000       1.030329        28.0367 
 124   0.0000       1.056817        28.7575 
 125   0.0000       1.061364        28.8812 
 126   0.0000       1.082667        29.4609 
 127   0.0000       1.095297        29.8045 
 128   0.0000       1.111006        30.2320 
 129   0.0000       1.142540        31.0901 
 130   0.0000       1.148720        31.2583 
 131   0.0000       1.186240        32.2792 
 132   0.0000       1.219616        33.1874 
 133   0.0000       1.244009        33.8512 
 134   0.0000       1.252590        34.0847 
 135   0.0000       1.273879        34.6640 
 136   0.0000       1.309565        35.6351 
 137   0.0000       1.342755        36.5382 
 138   0.0000       1.355891        36.8957 
 139   0.0000       1.385731        37.7077 
 140   0.0000       1.413433        38.4615 
 141   0.0000       1.419655        38.6308 
 142   0.0000       1.426990        38.8304 
 143   0.0000       1.484508        40.3955 
 144   0.0000       1.519356        41.3438 
 145   0.0000       1.523779        41.4641 
 146   0.0000       1.551231        42.2111 
 147   0.0000       1.593895        43.3721 
 148   0.0000       1.615021        43.9470 
 149   0.0000       1.632362        44.4188 
 150   0.0000       1.649007        44.8718 
 151   0.0000       1.674287        45.5597 
 152   0.0000       1.681452        45.7546 
 153   0.0000       1.690021        45.9878 
 154   0.0000       1.704038        46.3692 
 155   0.0000       1.715649        46.6852 
 156   0.0000       1.721272        46.8382 
 157   0.0000       1.739762        47.3413 
 158   0.0000       1.743457        47.4419 
 159   0.0000       1.755657        47.7739 
 160   0.0000       1.774675        48.2914 
 161   0.0000       1.791954        48.7616 
 162   0.0000       1.799679        48.9718 
 163   0.0000       1.806833        49.1664 
 164   0.0000       1.846023        50.2328 
 165   0.0000       1.858590        50.5748 
 166   0.0000       1.860209        50.6189 
 167   0.0000       1.874200        50.9996 
 168   0.0000       1.884867        51.2898 
 169   0.0000       1.899677        51.6928 
 170   0.0000       1.930396        52.5287 
 171   0.0000       1.950565        53.0776 
 172   0.0000       1.960449        53.3465 
 173   0.0000       1.965167        53.4749 
 174   0.0000       1.989525        54.1377 
 175   0.0000       2.008881        54.6644 
 176   0.0000       2.043367        55.6028 
 177   0.0000       2.053147        55.8690 
 178   0.0000       2.064420        56.1757 
 179   0.0000       2.067912        56.2707 
 180   0.0000       2.083168        56.6859 
 181   0.0000       2.115500        57.5657 
 182   0.0000       2.121878        57.7392 
 183   0.0000       2.127856        57.9019 
 184   0.0000       2.140633        58.2496 
 185   0.0000       2.168488        59.0076 
 186   0.0000       2.185431        59.4686 
 187   0.0000       2.209390        60.1205 
 188   0.0000       2.264714        61.6260 
 189   0.0000       2.276390        61.9437 
 190   0.0000       2.295088        62.4525 
 191   0.0000       2.320854        63.1537 
 192   0.0000       2.333368        63.4942 
 193   0.0000       2.353123        64.0317 
 194   0.0000       2.371294        64.5262 
 195   0.0000       2.378842        64.7316 
 196   0.0000       2.413809        65.6831 
 197   0.0000       2.457875        66.8822 
 198   0.0000       2.468338        67.1669 
 199   0.0000       2.485667        67.6384 
 200   0.0000       2.502083        68.0851 
 201   0.0000       2.517669        68.5093 
 202   0.0000       2.550360        69.3988 
 203   0.0000       2.561553        69.7034 
 204   0.0000       2.590322        70.4862 
 205   0.0000       2.612328        71.0851 
 206   0.0000       2.638923        71.8087 
 207   0.0000       2.691330        73.2348 
 208   0.0000       2.720279        74.0226 
 209   0.0000       2.732570        74.3570 
 210   0.0000       2.744949        74.6939 
 211   0.0000       2.746632        74.7397 
 212   0.0000       2.771100        75.4055 
 213   0.0000       2.793872        76.0251 
 214   0.0000       2.813004        76.5457 
 215   0.0000       2.841251        77.3144 
 216   0.0000       2.880126        78.3722 
 217   0.0000       2.909103        79.1607 
 218   0.0000       2.913706        79.2860 
 219   0.0000       2.922452        79.5240 
 220   0.0000       2.967402        80.7471 
 221   0.0000       3.004465        81.7557 
 222   0.0000       3.016348        82.0790 
 223   0.0000       3.076144        83.7061 
 224   0.0000       3.102335        84.4188 
 225   0.0000       3.137639        85.3795 
 226   0.0000       3.316104        90.2358 
 227   0.0000       3.350857        91.1814 
 228   0.0000       3.381276        92.0092 
 229   0.0000       3.485143        94.8356 
 230   0.0000       3.591056        97.7176 
 231   0.0000       3.656451        99.4971 

                    ********************************
                    * MULLIKEN POPULATION ANALYSIS *
                    ********************************

-----------------------
MULLIKEN ATOMIC CHARGES
-----------------------
   0 O :   -0.273324
   1 C :    0.134941
   2 C :   -0.083354
   3 C :    0.004414
   4 C :   -0.055450
   5 C :   -0.035115
   6 C :   -0.004815
   7 C :   -0.058564
   8 C :   -0.012113
   9 C :    0.004138
  10 C :    0.021527
  11 C :    0.098633
  12 O :   -0.281131
  13 H :    0.087752
  14 H :    0.062472
  15 H :    0.052645
  16 H :    0.037596
  17 H :    0.041891
  18 H :    0.046774
  19 H :    0.042686
  20 H :    0.094800
  21 H :    0.035260
  22 H :    0.038339
Sum of atomic charges:    0.0000000

--------------------------------
MULLIKEN REDUCED ORBITAL CHARGES
--------------------------------
  0 O s       :     3.796210  s :     3.796210
      pz      :     1.521506  p :     4.460996
      px      :     1.601756
      py      :     1.337734
      dz2     :     0.001874  d :     0.016118
      dxz     :     0.000372
      dyz     :     0.004179
      dx2y2   :     0.005374
      dxy     :     0.004320
  1 C s       :     3.075703  s :     3.075703
      pz      :     0.906827  p :     2.697208
      px      :     0.887456
      py      :     0.902925
      dz2     :     0.010056  d :     0.092148
      dxz     :     0.006725
      dyz     :     0.025544
      dx2y2   :     0.022217
      dxy     :     0.027606
  2 C s       :     3.152062  s :     3.152062
      pz      :     1.018766  p :     2.897013
      px      :     0.956046
      py      :     0.922202
      dz2     :     0.006091  d :     0.034279
      dxz     :     0.004601
      dyz     :     0.009310
      dx2y2   :     0.006660
      dxy     :     0.007616
  3 C s       :     3.114366  s :     3.114366
      pz      :     1.008515  p :     2.847166
      px      :     0.914541
      py      :     0.924110
      dz2     :     0.007157  d :     0.034054
      dxz     :     0.004259
      dyz     :     0.006111
      dx2y2   :     0.010091
      dxy     :     0.006436
  4 C s       :     3.282019  s :     3.282019
      pz      :     0.937177  p :     2.739979
      px      :     0.842226
      py      :     0.960577
      dz2     :     0.007822  d :     0.033452
      dxz     :     0.006596
      dyz     :     0.006401
      dx2y2   :     0.007950
      dxy     :     0.004682
  5 C s       :     3.214522  s :     3.214522
      pz      :     0.882660  p :     2.785336
      px      :     0.940119
      py      :     0.962557
      dz2     :     0.009774  d :     0.035257
      dxz     :     0.003443
      dyz     :     0.010824
      dx2y2   :     0.005585
      dxy     :     0.005631
  6 C s       :     3.208566  s :     3.208566
      pz      :     0.921460  p :     2.761146
      px      :     0.936071
      py      :     0.903615
      dz2     :     0.008715  d :     0.035103
      dxz     :     0.003804
      dyz     :     0.011971
      dx2y2   :     0.005009
      dxy     :     0.005604
  7 C s       :     3.283754  s :     3.283754
      pz      :     0.918113  p :     2.740387
      px      :     0.873942
      py      :     0.948332
      dz2     :     0.010287  d :     0.034423
      dxz     :     0.005077
      dyz     :     0.006407
      dx2y2   :     0.004877
      dxy     :     0.007775
  8 C s       :     3.101533  s :     3.101533
      pz      :     1.028032  p :     2.874464
      px      :     0.922332
      py      :     0.924100
      dz2     :     0.010741  d :     0.036116
      dxz     :     0.005857
      dyz     :     0.006482
      dx2y2   :     0.006762
      dxy     :     0.006274
  9 C s       :     3.214840  s :     3.214840
      pz      :     0.926420  p :     2.746924
      px      :     0.920832
      py      :     0.899672
      dz2     :     0.003826  d :     0.034098
      dxz     :     0.004888
      dyz     :     0.008409
      dx2y2   :     0.008036
      dxy     :     0.008939
 10 C s       :     3.209106  s :     3.209106
      pz      :     0.898134  p :     2.735175
      px      :     0.911735
      py      :     0.925305
      dz2     :     0.003907  d :     0.034192
      dxz     :     0.004616
      dyz     :     0.009118
      dx2y2   :     0.007596
      dxy     :     0.008954
 11 C s       :     3.095088  s :     3.095088
      pz      :     0.888640  p :     2.715046
      px      :     0.943513
      py      :     0.882894
      dz2     :     0.012436  d :     0.091232
      dxz     :     0.011469
      dyz     :     0.019138
      dx2y2   :     0.023927
      dxy     :     0.024262
 12 O s       :     3.804074  s :     3.804074
      pz      :     1.487112  p :     4.461547
      px      :     1.645244
      py      :     1.329191
      dz2     :     0.002036  d :     0.015510
      dxz     :     0.001472
      dyz     :     0.003593
      dx2y2   :     0.004217
      dxy     :     0.004193
 13 H s       :     0.888589  s :     0.888589
      pz      :     0.013519  p :     0.023660
      px      :     0.004407
      py      :     0.005734
 14 H s       :     0.914650  s :     0.914650
      pz      :     0.013163  p :     0.022879
      px      :     0.003552
      py      :     0.006164
 15 H s       :     0.922970  s :     0.922970
      pz      :     0.004644  p :     0.024385
      px      :     0.004437
      py      :     0.015304
 16 H s       :     0.938425  s :     0.938425
      pz      :     0.013850  p :     0.023979
      px      :     0.004497
      py      :     0.005632
 17 H s       :     0.933793  s :     0.933793
      pz      :     0.008343  p :     0.024316
      px      :     0.005234
      py      :     0.010739
 18 H s       :     0.928913  s :     0.928913
      pz      :     0.005993  p :     0.024313
      px      :     0.007399
      py      :     0.010921
 19 H s       :     0.934551  s :     0.934551
      pz      :     0.014238  p :     0.022763
      px      :     0.003957
      py      :     0.004568
 20 H s       :     0.881624  s :     0.881624
      pz      :     0.006023  p :     0.023576
      px      :     0.012833
      py      :     0.004719
 21 H s       :     0.940423  s :     0.940423
      pz      :     0.009525  p :     0.024317
      px      :     0.006504
      py      :     0.008289
 22 H s       :     0.937440  s :     0.937440
      pz      :     0.007624  p :     0.024222
      px      :     0.011107
      py      :     0.005490


                     *******************************
                     * LOEWDIN POPULATION ANALYSIS *
                     *******************************

----------------------
LOEWDIN ATOMIC CHARGES
----------------------
   0 O :   -0.180720
   1 C :    0.066201
   2 C :   -0.052522
   3 C :   -0.051824
   4 C :    0.007890
   5 C :   -0.024163
   6 C :   -0.009539
   7 C :    0.020715
   8 C :   -0.019683
   9 C :   -0.014555
  10 C :   -0.003030
  11 C :    0.069010
  12 O :   -0.192168
  13 H :    0.059638
  14 H :    0.052737
  15 H :    0.024561
  16 H :    0.029006
  17 H :    0.032007
  18 H :    0.022997
  19 H :    0.020001
  20 H :    0.050637
  21 H :    0.045761
  22 H :    0.047043

-------------------------------
LOEWDIN REDUCED ORBITAL CHARGES
-------------------------------
  0 O s       :     3.580872  s :     3.580872
      pz      :     1.521189  p :     4.572681
      px      :     1.604684
      py      :     1.446809
      dz2     :     0.003795  d :     0.027166
      dxz     :     0.000459
      dyz     :     0.005772
      dx2y2   :     0.010332
      dxy     :     0.006807
  1 C s       :     2.871988  s :     2.871988
      pz      :     0.909642  p :     2.853516
      px      :     0.951947
      py      :     0.991927
      dz2     :     0.021799  d :     0.208296
      dxz     :     0.015960
      dyz     :     0.055638
      dx2y2   :     0.051995
      dxy     :     0.062905
  2 C s       :     2.904574  s :     2.904574
      pz      :     1.049329  p :     3.062960
      px      :     0.966964
      py      :     1.046667
      dz2     :     0.016312  d :     0.084988
      dxz     :     0.010010
      dyz     :     0.023760
      dx2y2   :     0.017905
      dxy     :     0.017002
  3 C s       :     2.906658  s :     2.906658
      pz      :     1.031649  p :     3.059809
      px      :     0.978191
      py      :     1.049969
      dz2     :     0.017837  d :     0.085357
      dxz     :     0.010630
      dyz     :     0.014858
      dx2y2   :     0.026635
      dxy     :     0.015396
  4 C s       :     2.950424  s :     2.950424
      pz      :     1.024162  p :     2.967880
      px      :     0.897934
      py      :     1.045784
      dz2     :     0.017004  d :     0.073806
      dxz     :     0.013433
      dyz     :     0.016892
      dx2y2   :     0.016961
      dxy     :     0.009515
  5 C s       :     2.888766  s :     2.888766
      pz      :     1.035243  p :     3.046610
      px      :     0.940624
      py      :     1.070743
      dz2     :     0.025118  d :     0.088787
      dxz     :     0.006616
      dyz     :     0.031658
      dx2y2   :     0.013700
      dxy     :     0.011695
  6 C s       :     2.885842  s :     2.885842
      pz      :     1.036957  p :     3.034575
      px      :     0.937670
      py      :     1.059948
      dz2     :     0.026367  d :     0.089121
      dxz     :     0.007763
      dyz     :     0.030012
      dx2y2   :     0.013293
      dxy     :     0.011686
  7 C s       :     2.935060  s :     2.935060
      pz      :     1.032295  p :     2.966953
      px      :     0.900050
      py      :     1.034608
      dz2     :     0.026275  d :     0.077272
      dxz     :     0.009376
      dyz     :     0.014059
      dx2y2   :     0.010912
      dxy     :     0.016650
  8 C s       :     2.866800  s :     2.866800
      pz      :     1.049914  p :     3.066392
      px      :     1.021953
      py      :     0.994526
      dz2     :     0.025667  d :     0.086490
      dxz     :     0.013961
      dyz     :     0.014180
      dx2y2   :     0.016658
      dxy     :     0.016024
  9 C s       :     2.875578  s :     2.875578
      pz      :     0.979596  p :     3.047417
      px      :     0.988498
      py      :     1.079323
      dz2     :     0.009854  d :     0.091560
      dxz     :     0.013021
      dyz     :     0.021763
      dx2y2   :     0.022655
      dxy     :     0.024268
 10 C s       :     2.875731  s :     2.875731
      pz      :     0.968758  p :     3.035919
      px      :     0.992024
      py      :     1.075137
      dz2     :     0.010301  d :     0.091380
      dxz     :     0.011999
      dyz     :     0.023749
      dx2y2   :     0.020610
      dxy     :     0.024721
 11 C s       :     2.871143  s :     2.871143
      pz      :     0.905173  p :     2.855104
      px      :     1.007025
      py      :     0.942905
      dz2     :     0.026034  d :     0.204744
      dxz     :     0.024735
      dyz     :     0.042848
      dx2y2   :     0.053656
      dxy     :     0.057470
 12 O s       :     3.591827  s :     3.591827
      pz      :     1.498979  p :     4.574279
      px      :     1.660946
      py      :     1.414354
      dz2     :     0.003424  d :     0.026062
      dxz     :     0.002035
      dyz     :     0.005932
      dx2y2   :     0.006712
      dxy     :     0.007959
 13 H s       :     0.868161  s :     0.868161
      pz      :     0.039390  p :     0.072201
      px      :     0.015580
      py      :     0.017231
 14 H s       :     0.878592  s :     0.878592
      pz      :     0.039933  p :     0.068671
      px      :     0.011436
      py      :     0.017302
 15 H s       :     0.897833  s :     0.897833
      pz      :     0.016069  p :     0.077606
      px      :     0.015110
      py      :     0.046427
 16 H s       :     0.898704  s :     0.898704
      pz      :     0.041090  p :     0.072290
      px      :     0.013758
      py      :     0.017442
 17 H s       :     0.894579  s :     0.894579
      pz      :     0.027121  p :     0.073413
      px      :     0.016024
      py      :     0.030268
 18 H s       :     0.899725  s :     0.899725
      pz      :     0.019398  p :     0.077278
      px      :     0.024308
      py      :     0.033572
 19 H s       :     0.909974  s :     0.909974
      pz      :     0.042434  p :     0.070025
      px      :     0.012306
      py      :     0.015284
 20 H s       :     0.877394  s :     0.877394
      pz      :     0.018609  p :     0.071970
      px      :     0.038219
      py      :     0.015142
 21 H s       :     0.881834  s :     0.881834
      pz      :     0.028339  p :     0.072405
      px      :     0.020850
      py      :     0.023216
 22 H s       :     0.880491  s :     0.880491
      pz      :     0.023040  p :     0.072466
      px      :     0.032914
      py      :     0.016512


                      *****************************
                      * MAYER POPULATION ANALYSIS *
                      *****************************

  NA   - Mulliken gross atomic population
  ZA   - Total nuclear charge
  QA   - Mulliken gross atomic charge
  VA   - Mayer's total valence
  BVA  - Mayer's bonded valence
  FA   - Mayer's free valence

  ATOM       NA         ZA         QA         VA         BVA        FA
  0 O      8.2733     8.0000    -0.2733     2.1580     2.1580    -0.0000
  1 C      5.8651     6.0000     0.1349     4.0812     4.0812     0.0000
  2 C      6.0834     6.0000    -0.0834     3.7542     3.7542     0.0000
  3 C      5.9956     6.0000     0.0044     3.7486     3.7486    -0.0000
  4 C      6.0555     6.0000    -0.0555     3.8100     3.8100    -0.0000
  5 C      6.0351     6.0000    -0.0351     3.8021     3.8021    -0.0000
  6 C      6.0048     6.0000    -0.0048     3.7962     3.7962    -0.0000
  7 C      6.0586     6.0000    -0.0586     3.8547     3.8547    -0.0000
  8 C      6.0121     6.0000    -0.0121     3.9185     3.9185    -0.0000
  9 C      5.9959     6.0000     0.0041     3.7777     3.7777     0.0000
 10 C      5.9785     6.0000     0.0215     3.7564     3.7564     0.0000
 11 C      5.9014     6.0000     0.0986     4.1195     4.1195     0.0000
 12 O      8.2811     8.0000    -0.2811     2.1629     2.1629    -0.0000
 13 H      0.9122     1.0000     0.0878     0.9931     0.9931     0.0000
 14 H      0.9375     1.0000     0.0625     1.0039     1.0039     0.0000
 15 H      0.9474     1.0000     0.0526     0.9820     0.9820     0.0000
 16 H      0.9624     1.0000     0.0376     0.9885     0.9885     0.0000
 17 H      0.9581     1.0000     0.0419     0.9894     0.9894    -0.0000
 18 H      0.9532     1.0000     0.0468     0.9866     0.9866    -0.0000
 19 H      0.9573     1.0000     0.0427     0.9823     0.9823     0.0000
 20 H      0.9052     1.0000     0.0948     0.9677     0.9677     0.0000
 21 H      0.9647     1.0000     0.0353     0.9998     0.9998     0.0000
 22 H      0.9617     1.0000     0.0383     0.9990     0.9990     0.0000

  Mayer bond orders larger than 0.1
B(  0-O ,  1-C ) :   1.9714 B(  1-C ,  2-C ) :   1.0201 B(  1-C ,  9-C ) :   1.0368 
B(  2-C ,  3-C ) :   1.0998 B(  2-C ,  7-C ) :   0.6446 B(  2-C , 13-H ) :   0.9132 
B(  3-C ,  4-C ) :   0.6089 B(  3-C , 11-C ) :   1.0624 B(  3-C , 14-H ) :   0.9093 
B(  4-C ,  5-C ) :   1.1384 B(  4-C ,  8-C ) :   0.9923 B(  4-C , 15-H ) :   0.9568 
B(  5-C ,  6-C ) :   1.5933 B(  5-C , 16-H ) :   0.9964 B(  6-C ,  7-C ) :   1.1242 
B(  6-C , 17-H ) :   0.9974 B(  7-C ,  8-C ) :   1.0147 B(  7-C , 18-H ) :   0.9620 
B(  8-C , 19-H ) :   0.9443 B(  8-C , 20-H ) :   0.9351 B(  9-C , 10-C ) :   1.6808 
B(  9-C , 21-H ) :   0.9866 B( 10-C , 11-C ) :   1.0186 B( 10-C , 22-H ) :   0.9879 
B( 11-C , 12-O ) :   1.9464 

-------
TIMINGS
-------

Total SCF time: 0 days 0 hours 0 min 18 sec 

Total time                  ....      18.175 sec
Sum of individual times     ....      17.981 sec  ( 98.9%)

Fock matrix formation       ....      16.782 sec  ( 92.3%)
  Split-RI-J                ....       3.363 sec  ( 20.0% of F)
  Chain of spheres X        ....      12.246 sec  ( 73.0% of F)
  COS-X 1 center corr.      ....       0.000 sec  (  0.0% of F)
  XC integration            ....       1.074 sec  (  6.4% of F)
    Basis function eval.    ....       0.262 sec  ( 24.4% of XC)
    Density eval.           ....       0.156 sec  ( 14.5% of XC)
    XC-Functional eval.     ....       0.039 sec  (  3.6% of XC)
    XC-Potential eval.      ....       0.224 sec  ( 20.9% of XC)
Diagonalization             ....       0.043 sec  (  0.2%)
Density matrix formation    ....       0.026 sec  (  0.1%)
Population analysis         ....       0.009 sec  (  0.0%)
Initial guess               ....       0.215 sec  (  1.2%)
Orbital Transformation      ....       0.000 sec  (  0.0%)
Orbital Orthonormalization  ....       0.000 sec  (  0.0%)
DIIS solution               ....       0.024 sec  (  0.1%)
SOSCF solution              ....       0.062 sec  (  0.3%)
Grid generation             ....       0.822 sec  (  4.5%)


-------------------------------------------------------------------------------
                          DFT DISPERSION CORRECTION                            
                                                                               
                              DFTD3 V3.1  Rev 1                                
                          USING Becke-Johnson damping                          
-------------------------------------------------------------------------------
The PBE0 functional is recognized
Active option DFTDOPT                   ...         4   

molecular C6(AA) [au] = 6177.978134 


            DFT-D V3
 parameters
 s6 scaling factor         :     1.0000 
 a1 scaling factor         :     0.4145 
 s8 scaling factor         :     1.2177 
 a2 scaling factor         :     4.8593 
 ad hoc parameters k1-k3   :    16.0000     1.3333    -4.0000 

 Edisp/kcal,au: -16.453656471834  -0.026220567811 
 E6   /kcal   : -10.263001839 
 E8   /kcal   :  -6.190654632 
 % E8         :  37.624795698 

-------------------------   ----------------
Dispersion correction           -0.026220568
-------------------------   ----------------


-------------------------   --------------------
FINAL SINGLE POINT ENERGY      -574.377484003252
[...]
      pz      :     1.607959  p :     4.461034
      px      :     1.501814
      py      :     1.351261
      dz2     :     0.002155  d :     0.018173
      dxz     :     0.000185
      dyz     :     0.004906
      dx2y2   :     0.005904
      dxy     :     0.005021
  1 C s       :     3.020062  s :     3.020062
      pz      :     0.929538  p :     2.708452
      px      :     0.858843
      py      :     0.920071
      dz2     :     0.012006  d :     0.099107
      dxz     :     0.005990
      dyz     :     0.033476
      dx2y2   :     0.018809
      dxy     :     0.028827
  2 C s       :     3.213969  s :     3.213969
      pz      :     1.009749  p :     2.854071
      px      :     0.944866
      py      :     0.899457
      dz2     :     0.004568  d :     0.032458
      dxz     :     0.004173
      dyz     :     0.008928
      dx2y2   :     0.006729
      dxy     :     0.008060
  3 C s       :     3.212925  s :     3.212925
      pz      :     1.009549  p :     2.853291
      px      :     0.965075
      py      :     0.878667
      dz2     :     0.004152  d :     0.032004
      dxz     :     0.004860
      dyz     :     0.009088
      dx2y2   :     0.006818
      dxy     :     0.007086
  4 C s       :     3.293053  s :     3.293053
      pz      :     0.964283  p :     2.798465
      px      :     0.879410
      py      :     0.954772
      dz2     :     0.009541  d :     0.037364
      dxz     :     0.007017
      dyz     :     0.008535
      dx2y2   :     0.007687
      dxy     :     0.004585
  5 C s       :     3.188564  s :     3.188564
      pz      :     0.860594  p :     2.772831
      px      :     0.967685
      py      :     0.944553
      dz2     :     0.008531  d :     0.036012
      dxz     :     0.005352
      dyz     :     0.010548
      dx2y2   :     0.005690
      dxy     :     0.005891
  6 C s       :     3.188765  s :     3.188765
      pz      :     0.863975  p :     2.770360
      px      :     0.993005
      py      :     0.913380
      dz2     :     0.008661  d :     0.035948
      dxz     :     0.004727
      dyz     :     0.011167
      dx2y2   :     0.005360
      dxy     :     0.006034
  7 C s       :     3.291118  s :     3.291118
      pz      :     0.955347  p :     2.801445
      px      :     0.902981
      py      :     0.943117
      dz2     :     0.009776  d :     0.037426
      dxz     :     0.006464
      dyz     :     0.009055
      dx2y2   :     0.006348
      dxy     :     0.005784
  8 C s       :     2.988324  s :     2.988324
      pz      :     1.005671  p :     2.906310
      px      :     0.987408
      py      :     0.913230
      dz2     :     0.009961  d :     0.038007
      dxz     :     0.004667
      dyz     :     0.007926
      dx2y2   :     0.007961
      dxy     :     0.007492
  9 C s       :     3.248329  s :     3.248329
      pz      :     0.936185  p :     2.752187
      px      :     0.944206
      py      :     0.871796
      dz2     :     0.004145  d :     0.031598
      dxz     :     0.003907
      dyz     :     0.009763
      dx2y2   :     0.006067
      dxy     :     0.007716
 10 C s       :     3.250032  s :     3.250032
      pz      :     0.933512  p :     2.754404
      px      :     0.917782
      py      :     0.903110
      dz2     :     0.003978  d :     0.031664
      dxz     :     0.003432
      dyz     :     0.010194
      dx2y2   :     0.006372
      dxy     :     0.007688
 11 C s       :     3.019375  s :     3.019375
      pz      :     0.932547  p :     2.718477
      px      :     0.876771
      py      :     0.909159
      dz2     :     0.010314  d :     0.099139
      dxz     :     0.008148
      dyz     :     0.032248
      dx2y2   :     0.022881
      dxy     :     0.025548
 12 O s       :     3.744939  s :     3.744939
      pz      :     1.612444  p :     4.464122
      px      :     1.496203
      py      :     1.355476
      dz2     :     0.002093  d :     0.018133
      dxz     :     0.000558
      dyz     :     0.004242
      dx2y2   :     0.005725
      dxy     :     0.005516
 13 H s       :     0.929067  s :     0.929067
      pz      :     0.011691  p :     0.022463
      px      :     0.005835
      py      :     0.004937
 14 H s       :     0.927892  s :     0.927892
      pz      :     0.010462  p :     0.022645
      px      :     0.004097
      py      :     0.008085
 15 H s       :     0.908921  s :     0.908921
      pz      :     0.003851  p :     0.022938
      px      :     0.003827
      py      :     0.015260
 16 H s       :     0.931484  s :     0.931484
      pz      :     0.010924  p :     0.023606
      px      :     0.006588
      py      :     0.006095
 17 H s       :     0.930410  s :     0.930410
      pz      :     0.009868  p :     0.023661
      px      :     0.004881
      py      :     0.008913
 18 H s       :     0.914153  s :     0.914153
      pz      :     0.004432  p :     0.022886
      px      :     0.005132
      py      :     0.013322
 19 H s       :     0.910293  s :     0.910293
      pz      :     0.014775  p :     0.022505
      px      :     0.004130
      py      :     0.003600
 20 H s       :     0.880585  s :     0.880585
      pz      :     0.005140  p :     0.023990
      px      :     0.013724
      py      :     0.005126
 21 H s       :     0.935097  s :     0.935097
      pz      :     0.008149  p :     0.023122
      px      :     0.005607
      py      :     0.009365
 22 H s       :     0.934037  s :     0.934037
      pz      :     0.009552  p :     0.023039
      px      :     0.008455
      py      :     0.005032


                     *******************************
                     * LOEWDIN POPULATION ANALYSIS *
                     *******************************

----------------------
LOEWDIN ATOMIC CHARGES
----------------------
   0 O :   -0.160176
   1 C :    0.055207
   2 C :   -0.053335
   3 C :   -0.055896
   4 C :    0.020113
   5 C :   -0.029239
   6 C :   -0.030413
   7 C :    0.017327
   8 C :   -0.037015
   9 C :   -0.021493
  10 C :   -0.022582
  11 C :    0.052511
  12 O :   -0.163661
  13 H :    0.041836
  14 H :    0.042030
  15 H :    0.038967
  16 H :    0.037237
  17 H :    0.036808
  18 H :    0.037620
  19 H :    0.038206
  20 H :    0.067069
  21 H :    0.044428
  22 H :    0.044450

-------------------------------
LOEWDIN REDUCED ORBITAL CHARGES
-------------------------------
  0 O s       :     3.548942  s :     3.548942
      pz      :     1.607210  p :     4.580383
      px      :     1.501144
      py      :     1.472029
      dz2     :     0.004159  d :     0.030850
      dxz     :     0.000258
      dyz     :     0.007486
      dx2y2   :     0.012133
      dxy     :     0.006815
  1 C s       :     2.862957  s :     2.862957
      pz      :     0.947769  p :     2.854980
      px      :     0.889581
      py      :     1.017630
      dz2     :     0.027390  d :     0.226856
      dxz     :     0.013878
      dyz     :     0.076171
      dx2y2   :     0.046049
      dxy     :     0.063367
  2 C s       :     2.892871  s :     2.892871
      pz      :     1.031983  p :     3.074806
      px      :     0.982143
      py      :     1.060680
      dz2     :     0.012472  d :     0.085658
      dxz     :     0.010466
      dyz     :     0.024128
      dx2y2   :     0.018062
      dxy     :     0.020531
  3 C s       :     2.892742  s :     2.892742
      pz      :     1.033469  p :     3.078350
      px      :     0.989116
      py      :     1.055765
      dz2     :     0.011109  d :     0.084804
      dxz     :     0.012729
      dyz     :     0.024446
      dx2y2   :     0.019225
      dxy     :     0.017295
  4 C s       :     2.899717  s :     2.899717
      pz      :     1.043612  p :     2.991938
      px      :     0.907534
      py      :     1.040792
      dz2     :     0.023244  d :     0.088233
      dxz     :     0.014438
      dyz     :     0.023682
      dx2y2   :     0.016248
      dxy     :     0.010620
  5 C s       :     2.874162  s :     2.874162
      pz      :     1.036373  p :     3.062803
      px      :     0.971447
      py      :     1.054982
      dz2     :     0.024477  d :     0.092275
      dxz     :     0.011443
      dyz     :     0.028217
      dx2y2   :     0.014889
      dxy     :     0.013248
  6 C s       :     2.874249  s :     2.874249
      pz      :     1.037977  p :     3.064038
      px      :     0.979304
      py      :     1.046757
      dz2     :     0.025439  d :     0.092125
      dxz     :     0.010298
      dyz     :     0.028978
      dx2y2   :     0.014164
      dxy     :     0.013247
  7 C s       :     2.900073  s :     2.900073
      pz      :     1.046671  p :     2.994263
      px      :     0.912661
      py      :     1.034930
      dz2     :     0.024539  d :     0.088337
      dxz     :     0.013084
      dyz     :     0.023803
      dx2y2   :     0.014366
      dxy     :     0.012545
  8 C s       :     2.840013  s :     2.840013
      pz      :     1.044779  p :     3.101979
      px      :     1.043558
      py      :     1.013642
      dz2     :     0.024895  d :     0.095022
      dxz     :     0.010246
      dyz     :     0.020298
      dx2y2   :     0.020163
      dxy     :     0.019420
  9 C s       :     2.893404  s :     2.893404
      pz      :     1.000584  p :     3.043085
      px      :     0.965167
      py      :     1.077334
      dz2     :     0.011287  d :     0.085004
      dxz     :     0.010318
      dyz     :     0.026445
      dx2y2   :     0.017887
      dxy     :     0.019068
 10 C s       :     2.893873  s :     2.893873
      pz      :     1.002016  p :     3.043708
      px      :     0.967401
      py      :     1.074291
      dz2     :     0.010535  d :     0.085001
      dxz     :     0.008972
      dyz     :     0.027791
      dx2y2   :     0.018258
      dxy     :     0.019445
 11 C s       :     2.862889  s :     2.862889
      pz      :     0.946307  p :     2.857522
      px      :     0.910889
      py      :     1.000326
      dz2     :     0.023614  d :     0.227078
      dxz     :     0.018907
      dyz     :     0.073300
      dx2y2   :     0.053322
      dxy     :     0.057935
 12 O s       :     3.548810  s :     3.548810
      pz      :     1.607853  p :     4.584036
      px      :     1.507365
      py      :     1.468818
      dz2     :     0.004273  d :     0.030814
      dxz     :     0.000783
      dyz     :     0.006139
      dx2y2   :     0.010510
      dxy     :     0.009109
 13 H s       :     0.885925  s :     0.885925
      pz      :     0.036048  p :     0.072240
      px      :     0.020520
      py      :     0.015672
 14 H s       :     0.885231  s :     0.885231
      pz      :     0.032542  p :     0.072739
      px      :     0.015446
      py      :     0.024751
 15 H s       :     0.889253  s :     0.889253
      pz      :     0.013789  p :     0.071780
      px      :     0.012880
      py      :     0.045111
 16 H s       :     0.892892  s :     0.892892
      pz      :     0.031358  p :     0.069871
      px      :     0.019560
      py      :     0.018952
 17 H s       :     0.893109  s :     0.893109
      pz      :     0.028593  p :     0.070083
      px      :     0.015420
      py      :     0.026070
 18 H s       :     0.890733  s :     0.890733
      pz      :     0.015156  p :     0.071647
      px      :     0.017038
      py      :     0.039454
 19 H s       :     0.894529  s :     0.894529
      pz      :     0.042370  p :     0.067265
      px      :     0.012611
      py      :     0.012284
 20 H s       :     0.864477  s :     0.864477
      pz      :     0.014445  p :     0.068454
      px      :     0.039057
      py      :     0.014952
 21 H s       :     0.885805  s :     0.885805
      pz      :     0.025287  p :     0.069767
      px      :     0.017965
      py      :     0.026515
 22 H s       :     0.885859  s :     0.885859
      pz      :     0.029091  p :     0.069691
      px      :     0.025477
      py      :     0.015123


                      *****************************
                      * MAYER POPULATION ANALYSIS *
                      *****************************

  NA   - Mulliken gross atomic population
  ZA   - Total nuclear charge
  QA   - Mulliken gross atomic charge
  VA   - Mayer's total valence
  BVA  - Mayer's bonded valence
  FA   - Mayer's free valence

  ATOM       NA         ZA         QA         VA         BVA        FA
  0 O      8.2245     8.0000    -0.2245     2.2559     2.2559    -0.0000
  1 C      5.8276     6.0000     0.1724     4.1162     4.1162     0.0000
  2 C      6.1005     6.0000    -0.1005     3.6951     3.6951    -0.0000
  3 C      6.0982     6.0000    -0.0982     3.7008     3.7008    -0.0000
  4 C      6.1289     6.0000    -0.1289     3.9226     3.9226     0.0000
  5 C      5.9974     6.0000     0.0026     3.8003     3.8003    -0.0000
  6 C      5.9951     6.0000     0.0049     3.7955     3.7955    -0.0000
  7 C      6.1300     6.0000    -0.1300     3.9228     3.9228     0.0000
  8 C      5.9326     6.0000     0.0674     3.8452     3.8452     0.0000
  9 C      6.0321     6.0000    -0.0321     3.7266     3.7266    -0.0000
 10 C      6.0361     6.0000    -0.0361     3.7313     3.7313    -0.0000
 11 C      5.8370     6.0000     0.1630     4.1311     4.1311    -0.0000
 12 O      8.2272     8.0000    -0.2272     2.2502     2.2502    -0.0000
 13 H      0.9515     1.0000     0.0485     1.0001     1.0001     0.0000
 14 H      0.9505     1.0000     0.0495     1.0004     1.0004     0.0000
 15 H      0.9319     1.0000     0.0681     0.9882     0.9882    -0.0000
 16 H      0.9551     1.0000     0.0449     0.9896     0.9896     0.0000
 17 H      0.9541     1.0000     0.0459     0.9894     0.9894    -0.0000
 18 H      0.9370     1.0000     0.0630     0.9872     0.9872     0.0000
 19 H      0.9328     1.0000     0.0672     0.9850     0.9850    -0.0000
 20 H      0.9046     1.0000     0.0954     0.9762     0.9762    -0.0000
 21 H      0.9582     1.0000     0.0418     0.9993     0.9993     0.0000
 22 H      0.9571     1.0000     0.0429     0.9993     0.9993     0.0000

  Mayer bond orders larger than 0.1
B(  0-O ,  1-C ) :   2.0569 B(  1-C ,  2-C ) :   1.0057 B(  1-C ,  9-C ) :   0.9974 
B(  2-C ,  3-C ) :   1.3003 B(  2-C ,  7-C ) :   0.3970 B(  2-C , 13-H ) :   0.9375 
B(  3-C ,  4-C ) :   0.3829 B(  3-C , 11-C ) :   1.0138 B(  3-C , 14-H ) :   0.9385 
B(  4-C ,  5-C ) :   1.3831 B(  4-C ,  8-C ) :   1.0194 B(  4-C , 15-H ) :   0.9793 
B(  5-C ,  6-C ) :   1.3355 B(  5-C , 16-H ) :   0.9979 B(  6-C ,  7-C ) :   1.3762 
B(  6-C , 17-H ) :   0.9976 B(  7-C ,  8-C ) :   1.0241 B(  7-C , 18-H ) :   0.9766 
B(  8-C , 19-H ) :   0.9441 B(  8-C , 20-H ) :   0.8920 B(  9-C , 10-C ) :   1.6836 
B(  9-C , 21-H ) :   0.9773 B( 10-C , 11-C ) :   1.0027 B( 10-C , 22-H ) :   0.9788 
B( 11-C , 12-O ) :   2.0488 

-------
TIMINGS
-------

Total SCF time: 0 days 0 hours 0 min 8 sec 

Total time                  ....       8.508 sec
Sum of individual times     ....       8.335 sec  ( 98.0%)

Fock matrix formation       ....       7.475 sec  ( 87.9%)
  Split-RI-J                ....       1.460 sec  ( 19.5% of F)
  Chain of spheres X        ....       5.450 sec  ( 72.9% of F)
  COS-X 1 center corr.      ....       0.000 sec  (  0.0% of F)
  XC integration            ....       0.482 sec  (  6.4% of F)
    Basis function eval.    ....       0.166 sec  ( 34.5% of XC)
    Density eval.           ....       0.102 sec  ( 21.1% of XC)
    XC-Functional eval.     ....       0.024 sec  (  5.0% of XC)
    XC-Potential eval.      ....       0.129 sec  ( 26.8% of XC)
Diagonalization             ....       0.006 sec  (  0.1%)
Density matrix formation    ....       0.009 sec  (  0.1%)
Population analysis         ....       0.009 sec  (  0.1%)
Initial guess               ....       0.013 sec  (  0.2%)
Orbital Transformation      ....       0.000 sec  (  0.0%)
Orbital Orthonormalization  ....       0.009 sec  (  0.1%)
DIIS solution               ....       0.003 sec  (  0.0%)
SOSCF solution              ....       0.045 sec  (  0.5%)
Grid generation             ....       0.776 sec  (  9.1%)


-------------------------------------------------------------------------------
                          DFT DISPERSION CORRECTION                            
                                                                               
                              DFTD3 V3.1  Rev 1                                
                          USING Becke-Johnson damping                          
-------------------------------------------------------------------------------
The PBE0 functional is recognized
Active option DFTDOPT                   ...         4   

molecular C6(AA) [au] = 6147.928329 


            DFT-D V3
 parameters
 s6 scaling factor         :     1.0000 
 a1 scaling factor         :     0.4145 
 s8 scaling factor         :     1.2177 
 a2 scaling factor         :     4.8593 
 ad hoc parameters k1-k3   :    16.0000     1.3333    -4.0000 

 Edisp/kcal,au: -18.105891868277  -0.028853572233 
 E6   /kcal   : -11.239300213 
 E8   /kcal   :  -6.866591655 
 % E8         :  37.924625340 

-------------------------   ----------------
Dispersion correction           -0.028853572
-------------------------   ----------------


-------------------------   --------------------
FINAL SINGLE POINT ENERGY      -574.486233386681
-------------------------   --------------------

                                *** OPTIMIZATION RUN DONE ***

                            ***************************************
                            *     ORCA property calculations      *
                            ***************************************

                                    ---------------------
                                    Active property flags
                                    ---------------------
   (+) Dipole Moment


------------------------------------------------------------------------------
                       ORCA ELECTRIC PROPERTIES CALCULATION
------------------------------------------------------------------------------

Dipole Moment Calculation                       ... on
Quadrupole Moment Calculation                   ... off
Polarizability Calculation                      ... off
GBWName                                         ... ts_guess_orca_constrained_opt.gbw
Electron density file                           ... ts_guess_orca_constrained_opt.scfp.tmp
The origin for moment calculation is the CENTER OF MASS  = ( 0.608192, -0.132795 -0.058261)

-------------
DIPOLE MOMENT
-------------
                                X             Y             Z
Electronic contribution:      5.53885      -1.25193      -0.16122
Nuclear contribution   :     -6.72854       1.47922       0.49874
                        -----------------------------------------
Total Dipole Moment    :     -1.18969       0.22729       0.33751
                        -----------------------------------------
Magnitude (a.u.)       :      1.25736
Magnitude (Debye)      :      3.19594



--------------------
Rotational spectrum 
--------------------
 
Rotational constants in cm-1:     0.035023     0.033661     0.022715 
Rotational constants in MHz :  1049.953020  1009.145728   680.974855 

 Dipole components along the rotational axes: 
x,y,z [a.u.] :    -1.137642    -0.412221     0.341741 
x,y,z [Debye]:    -2.891657    -1.047783     0.868636 

 

Timings for individual modules:

Sum of individual times         ...      337.715 sec (=   5.629 min)
GTO integral calculation        ...       15.901 sec (=   0.265 min)   4.7 %
SCF iterations                  ...      244.183 sec (=   4.070 min)  72.3 %
SCF Gradient evaluation         ...       75.884 sec (=   1.265 min)  22.5 %
Geometry relaxation             ...        1.747 sec (=   0.029 min)   0.5 %
                             ****ORCA TERMINATED NORMALLY****
TOTAL RUN TIME: 0 days 0 hours 5 minutes 41 seconds 429 msec
