      -----------------------------------------------------------      
     |                   =====================                   |     
     |                           x T B                           |     
     |                   =====================                   |     
     |                         S. Grimme                         |     
     |          Mulliken Center for Theoretical Chemistry        |     
     |                    University of Bonn                     |     
      -----------------------------------------------------------      

   * xtb version 6.2.3 (830e466) compiled by 'ehlert@majestix' on 2020-03-16

   xtb is free software: you can redistribute it and/or modify it under
   the terms of the GNU Lesser General Public License as published by
   the Free Software Foundation, either version 3 of the License, or
   (at your option) any later version.
   
   xtb is distributed in the hope that it will be useful,
   but WITHOUT ANY WARRANTY; without even the implied warranty of
   MERCHANTABILITY or FITNESS FOR A PARTICULAR PURPOSE.  See the
   GNU Lesser General Public License for more details.
   
   Cite this work as:
   * S. Grimme, C. Bannwarth, P. Shushkov, J. Chem. Theory Comput., 2017,
     13, 1989-2009. DOI: 10.1021/acs.jctc.7b00118
   * C. Bannwarth, S. Ehlert and S. Grimme., J. Chem. Theory Comput., 2019,
     15, 1652-1671. DOI: 10.1021/acs.jctc.8b01176
   * P. Pracht, E. Caldeweyher, S. Ehlert, S. Grimme, ChemRxiv, 2019, preprint.
     DOI: 10.26434/chemrxiv.8326202.v1
   
   for DFT-D4:
   * E. Caldeweyher, C. Bannwarth and S. Grimme, J. Chem. Phys., 2017,
     147, 034112. DOI: 10.1063/1.4993215
   * E. Caldeweyher, S. Ehlert, A. Hansen, H. Neugebauer, S. Spicher,
     C. Bannwarth and S. Grimme, J. Chem. Phys., 2019, 150, 154122.
     DOI: 10.1063/1.5090222
   
   for sTDA-xTB:
   * S. Grimme and C. Bannwarth, J. Chem. Phys., 2016, 145, 054103.
     DOI: 10.1063/1.4959605
   
   in the mass-spec context:
   * V. Asgeirsson, C. Bauer and S. Grimme, Chem. Sci., 2017, 8, 4879.
     DOI: 10.1039/c7sc00601b
   
   for metadynamics refer to:
   * S. Grimme, J. Chem. Theory Comput., 2019, 155, 2847-2862
     DOI: 10.1021/acs.jctc.9b00143
   
   with help from (in alphabetical order)
   C. Bannwarth, F. Bohle, G. Brandenburg, E. Caldeweyher, M. Checinski,
   S. Dohm, S. Ehlert, S. Ehrlich, F. März, H. Neugebauer, J. Pisarek,
   P. Pracht, P. Shushkov, and S. Spicher.
   
 * started run on 2020/08/20 at 17:46:28.911     

           -------------------------------------------------
          |                Calculation Setup                |
           -------------------------------------------------

          program call               : /u/fd/ball4935/opt/bin/xtb 4_0_xtb.xyz --chrg -1 --grad --gbsa Water
          hostname                   : comp0810
          coordinate file            : 4_0_xtb.xyz
          omp threads                :                     1
          number of atoms            :                     6
          number of electrons        :                    22
          charge                     :                    -1
          spin                       :                   0.0
          first test random number   :      0.58472958426085


molecular fragmentation (1/2 indicates fragments):
122222
# atoms in fragment 1/2:     1     5
 fragment masses (1/2) :       19.00       50.49
CMA distance (Bohr)    :   8.624
constraining FC (au)   :  0.0500
########################################################################
[WARNING] Please study the warnings concerning your input carefully
-2- prog_main: XTBPATH is not set, using XTBHOME instead
-1- prog_main: XTBHOME is not set, using HOME instead
########################################################################
           ------------------------------------------------- 
          |                 G F N 2 - x T B                 |
          | Geometry, Frequencies, Noncovalent interactions |
          |            JCTC 2019 parametrisation            |
           ------------------------------------------------- 
             k(s)              :                1.8500
             k(p)              :                2.2300
             k(d)              :                2.2300
             k(f)              :                2.0000
             kEN (H0ij)        :               -2.0000
             D4 a1             :                0.5200
             D4 a2             :                5.0000
             D4 s6             :                1.0000
             D4 s8             :                2.7000
             D4 s9             :                5.0000
             alphaj            :                2.0000

  Z AO/shell   Hii/eV     exponent
  1     Wed Apr 25 08:07:45 CEST 2018   EN: 2.200 GM2: 0.406  GM3: 0.0800  RAES: 1.40
     1s    -10.707211    1.230000
  6     Wed Apr 25 08:07:45 CEST 2018   EN: 2.550 GM2: 0.538  GM3: 0.1500  RAES: 3.00
     2s    -13.970922    2.096432
     2p    -10.063292    1.800000
  9     Mon Apr 23 13:58:50 CEST 2018   EN: 3.980 GM2: 0.532  GM3: 0.1426  RAES: 2.40
     2s    -23.458179    2.416361
     2p    -15.746583    2.308399
 17     Mon Apr 23 14:09:22 CEST 2018   EN: 3.160 GM2: 0.249  GM3: 0.1495  RAES: 2.50
     3s    -29.278781    2.485265
     3p    -12.673758    2.199650
     3d     -0.240338    2.476089

 Solvent             : Water
 Using internal parameter file: .param_gbsa2_Water
 Gsolv ref. state (COSMO-RS): gsolv [1 M gas/solution]
 temperature (mdtemp)       :    298.150000000000     
 dielectric constant        :    80.2000000000000     
 rho                        :    1.00000000000000     
 mass                       :    18.0000000000000     
 surface tension            :    15.5689454083859     
 probe radius               :   0.975313790000000     
 Gshift (Eh)                :   1.857443126794793E-003
 c1                         :    1.55243817000000     
 soset                      :   0.130326360000000     
 HB correction              :  T
           ------------------------------------------------- 
          |        Self-Consistent Charge Iterations        |
           ------------------------------------------------- 

          ...................................................
          :                      SETUP                      :
          :.................................................:
          :  # basis functions                  21          :
          :  # atomic orbitals                  20          :
          :  # shells                           10          :
          :  # electrons                        22          :
          :  max. iterations                   250          :
          :  Hamiltonian                  GFN2-xTB          :
          :  restarted?                      false          :
          :  GBSA solvation                   true          :
          :  PC potential                    false          :
          :  electronic temp.          300.0000000     K    :
          :  accuracy                    1.0000000          :
          :  -> integral cutoff          0.2500000E+02      :
          :  -> integral neglect         0.1000000E-07      :
          :  -> SCF convergence          0.1000000E-05 Eh   :
          :  -> wf. convergence          0.1000000E-03 e    :
          :  Broyden damping             0.4000000          :
          ...................................................

 iter      E             dE          RMSdq      gap      omega  full diag
   1    -13.1144349 -0.131144E+02  0.858E+00    3.47       0.0  T
   2    -13.0153840  0.990510E-01  0.674E+00    0.17       1.0  T
   3    -13.2193365 -0.203953E+00  0.455E+00    2.49       1.0  T
   4    -13.2620010 -0.426646E-01  0.173E+00    1.64       1.0  T
   5    -13.2619942  0.683255E-05  0.177E+00    1.67       1.0  T
   6    -13.2072043  0.547899E-01  0.366E+00    0.28       1.0  T
   7    -13.2666003 -0.593960E-01  0.464E-01    0.65       1.0  T
   8    -13.2668793 -0.278989E-03  0.201E-01    0.71       1.0  T
   9    -13.2669411 -0.617887E-04  0.678E-02    0.72       1.0  T
  10    -13.2668478  0.932906E-04  0.174E-01    0.77       1.0  T
  11    -13.2669187 -0.708955E-04  0.917E-02    0.75       1.0  T
  12    -13.2669435 -0.247255E-04  0.513E-02    0.73       1.0  T
  13    -13.2669542 -0.107506E-04  0.118E-02    0.72       3.5  T
  14    -13.2669546 -0.373556E-06  0.795E-03    0.72       5.1  T
  15    -13.2669547 -0.161572E-06  0.474E-03    0.72       8.6  T
  16    -13.2669548 -0.857751E-07  0.783E-04    0.72      52.1  T
  17    -13.2669548 -0.201040E-08  0.304E-04    0.72     134.1  T

   *** convergence criteria satisfied after 17 iterations ***

         #    Occupation            Energy/Eh            Energy/eV
      -------------------------------------------------------------
         1        2.0000           -1.0270453             -27.9473
       ...           ...                  ...                  ...
         5        2.0000           -0.5009833             -13.6325
         6        2.0000           -0.4272381             -11.6257
         7        2.0000           -0.4034959             -10.9797
         8        2.0000           -0.4034959             -10.9797
         9        2.0000           -0.3626338              -9.8678
        10        2.0000           -0.3603498              -9.8056
        11        2.0000           -0.3603488              -9.8056 (HOMO)
        12        0.0000           -0.3339333              -9.0868 (LUMO)
        13                          0.0684393               1.8623
        14                          0.0684394               1.8623
        15                          0.0700329               1.9057
        16                          0.0700330               1.9057
       ...                                ...                  ...
        20                          0.2680166               7.2931
      -------------------------------------------------------------
                  HL-Gap            0.0264155 Eh            0.7188 eV
             Fermi-level           -0.3467910 Eh           -9.4367 eV

 SCC (total)                   0 d,  0 h,  0 min,  0.007 sec
 SCC setup                      ...        0 min,  0.000 sec (  4.447%)
 Dispersion                     ...        0 min,  0.000 sec (  0.456%)
 integral evaluation            ...        0 min,  0.001 sec ( 15.430%)
 zeroth order Hamiltonian       ...        0 min,  0.000 sec (  0.418%)
 iterations                     ...        0 min,  0.005 sec ( 61.455%)
 molecular gradient             ...        0 min,  0.001 sec ( 15.446%)
 printout                       ...        0 min,  0.000 sec (  1.645%)

         :::::::::::::::::::::::::::::::::::::::::::::::::::::
         ::                     SUMMARY                     ::
         :::::::::::::::::::::::::::::::::::::::::::::::::::::
         :: total energy             -13.205588106275 Eh    ::
         :: total w/o Gsasa/hb       -13.203481438640 Eh    ::
         :: gradient norm              0.056233789562 Eh/a0 ::
         :: HOMO-LUMO gap              0.718802529143 eV    ::
         ::.................................................::
         :: SCC energy               -13.264259453268 Eh    ::
         :: -> isotropic ES            0.230024101742 Eh    ::
         :: -> anisotropic ES         -0.002255952174 Eh    ::
         :: -> anisotropic XC          0.005692981594 Eh    ::
         :: -> dispersion             -0.001805507437 Eh    ::
         :: -> Gsolv                  -0.112084871469 Eh    ::
         ::    -> Gborn               -0.109978203834 Eh    ::
         ::    -> Gsasa                0.000837933967 Eh    ::
         ::    -> Ghb                 -0.004802044730 Eh    ::
         ::    -> Gshift               0.001857443127 Eh    ::
         :: repulsion energy           0.058672634204 Eh    ::
         :: add. restraining           0.000000000000 Eh    ::
         :::::::::::::::::::::::::::::::::::::::::::::::::::::

           -------------------------------------------------
          |                Property Printout                |
           -------------------------------------------------

    * Orbital Energies and Occupations

         #    Occupation            Energy/Eh            Energy/eV
      -------------------------------------------------------------
         1        2.0000           -1.0270453             -27.9473
         2        2.0000           -0.6305455             -17.1580
         3        2.0000           -0.5989241             -16.2976
         4        2.0000           -0.5010080             -13.6331
         5        2.0000           -0.5009833             -13.6325
         6        2.0000           -0.4272381             -11.6257
         7        2.0000           -0.4034959             -10.9797
         8        2.0000           -0.4034959             -10.9797
         9        2.0000           -0.3626338              -9.8678
        10        2.0000           -0.3603498              -9.8056
        11        2.0000           -0.3603488              -9.8056 (HOMO)
        12        0.0000           -0.3339333              -9.0868 (LUMO)
        13                          0.0684393               1.8623
        14                          0.0684394               1.8623
        15                          0.0700329               1.9057
        16                          0.0700330               1.9057
        17                          0.0705563               1.9199
        18                          0.1127051               3.0669
        19                          0.2679271               7.2907
        20                          0.2680166               7.2931
      -------------------------------------------------------------
                  HL-Gap            0.0264155 Eh            0.7188 eV
             Fermi-level           -0.3467910 Eh           -9.4367 eV

     #   Z        covCN         q      C6AA      α(0)
     1   9 F      0.000    -0.843    21.133     5.354
     2  17 Cl     0.144    -0.507   108.583    15.860
     3   6 C      2.924    -0.030    28.755     8.794
     4   1 H      0.926     0.127     1.560     1.953
     5   1 H      0.927     0.127     1.561     1.954
     6   1 H      0.926     0.127     1.561     1.954

 Mol. C6AA /au·bohr⁶  :        574.759874
 Mol. C8AA /au·bohr⁸  :      16265.434750
 Mol. α(0) /au        :         35.869024


Wiberg/Mayer (AO) data.
largest (>0.10) Wiberg bond orders for each atom
          total WBO             WBO to atom ...
     1  F   0.212        C    3 0.211
     2  Cl  0.666        C    3 0.666
     3  C   3.824        H    6 0.982    H    5 0.982    H    4 0.982    Cl   2 0.666    F    1 0.211
     4  H   0.984        C    3 0.982
     5  H   0.984        C    3 0.982
     6  H   0.984        C    3 0.982

molecular dipole:
                 x           y           z       tot (Debye)
 q only:        2.891       0.050      -0.055
   full:        2.967       0.052      -0.055       7.544
molecular quadrupole (traceless):
                xx          xy          yy          xz          yz          zz
 q only:      -40.347      -1.255      20.166       0.852       0.018      20.181
  q+dip:      -40.076      -1.244      20.031       0.852       0.018      20.045
   full:      -39.099      -1.211      19.543       0.837       0.017      19.556


           -------------------------------------------------
          | TOTAL ENERGY              -13.205588106275 Eh   |
          | GRADIENT NORM               0.056233789562 Eh/α |
          | HOMO-LUMO GAP               0.718802529143 eV   |
           -------------------------------------------------

------------------------------------------------------------------------
 * finished run on 2020/08/20 at 17:46:28.963     
------------------------------------------------------------------------
 total:
 * wall-time:     0 d,  0 h,  0 min,  0.052 sec
 *  cpu-time:     0 d,  0 h,  0 min,  0.019 sec
 * ratio c/w:     0.371 speedup
 SCF:
 * wall-time:     0 d,  0 h,  0 min,  0.008 sec
 *  cpu-time:     0 d,  0 h,  0 min,  0.008 sec
 * ratio c/w:     0.997 speedup

