      -----------------------------------------------------------      
     |                   =====================                   |     
     |                           x T B                           |     
     |                   =====================                   |     
     |                         S. Grimme                         |     
     |          Mulliken Center for Theoretical Chemistry        |     
     |                    University of Bonn                     |     
      -----------------------------------------------------------      

   * xtb version 6.2.3 (830e466) compiled by 'ehlert@majestix' on 2020-03-16

   xtb is free software: you can redistribute it and/or modify it under
   the terms of the GNU Lesser General Public License as published by
   the Free Software Foundation, either version 3 of the License, or
   (at your option) any later version.
   
   xtb is distributed in the hope that it will be useful,
   but WITHOUT ANY WARRANTY; without even the implied warranty of
   MERCHANTABILITY or FITNESS FOR A PARTICULAR PURPOSE.  See the
   GNU Lesser General Public License for more details.
   
   Cite this work as:
   * S. Grimme, C. Bannwarth, P. Shushkov, J. Chem. Theory Comput., 2017,
     13, 1989-2009. DOI: 10.1021/acs.jctc.7b00118
   * C. Bannwarth, S. Ehlert and S. Grimme., J. Chem. Theory Comput., 2019,
     15, 1652-1671. DOI: 10.1021/acs.jctc.8b01176
   * P. Pracht, E. Caldeweyher, S. Ehlert, S. Grimme, ChemRxiv, 2019, preprint.
     DOI: 10.26434/chemrxiv.8326202.v1
   
   for DFT-D4:
   * E. Caldeweyher, C. Bannwarth and S. Grimme, J. Chem. Phys., 2017,
     147, 034112. DOI: 10.1063/1.4993215
   * E. Caldeweyher, S. Ehlert, A. Hansen, H. Neugebauer, S. Spicher,
     C. Bannwarth and S. Grimme, J. Chem. Phys., 2019, 150, 154122.
     DOI: 10.1063/1.5090222
   
   for sTDA-xTB:
   * S. Grimme and C. Bannwarth, J. Chem. Phys., 2016, 145, 054103.
     DOI: 10.1063/1.4959605
   
   in the mass-spec context:
   * V. Asgeirsson, C. Bauer and S. Grimme, Chem. Sci., 2017, 8, 4879.
     DOI: 10.1039/c7sc00601b
   
   for metadynamics refer to:
   * S. Grimme, J. Chem. Theory Comput., 2019, 155, 2847-2862
     DOI: 10.1021/acs.jctc.9b00143
   
   with help from (in alphabetical order)
   C. Bannwarth, F. Bohle, G. Brandenburg, E. Caldeweyher, M. Checinski,
   S. Dohm, S. Ehlert, S. Ehrlich, F. März, H. Neugebauer, J. Pisarek,
   P. Pracht, P. Shushkov, and S. Spicher.
   
 * started run on 2020/08/20 at 17:46:30.691     

           -------------------------------------------------
          |                Calculation Setup                |
           -------------------------------------------------

          program call               : /u/fd/ball4935/opt/bin/xtb 4_4_xtb.xyz --chrg -1 --grad --gbsa Water
          hostname                   : comp0810
          coordinate file            : 4_4_xtb.xyz
          omp threads                :                     1
          number of atoms            :                     6
          number of electrons        :                    22
          charge                     :                    -1
          spin                       :                   0.0
          first test random number   :      0.51137712852427


molecular fragmentation (1/2 indicates fragments):
122222
# atoms in fragment 1/2:     1     5
 fragment masses (1/2) :       19.00       50.49
CMA distance (Bohr)    :   7.311
constraining FC (au)   :  0.0500
########################################################################
[WARNING] Please study the warnings concerning your input carefully
-2- prog_main: XTBPATH is not set, using XTBHOME instead
-1- prog_main: XTBHOME is not set, using HOME instead
########################################################################
           ------------------------------------------------- 
          |                 G F N 2 - x T B                 |
          | Geometry, Frequencies, Noncovalent interactions |
          |            JCTC 2019 parametrisation            |
           ------------------------------------------------- 
             k(s)              :                1.8500
             k(p)              :                2.2300
             k(d)              :                2.2300
             k(f)              :                2.0000
             kEN (H0ij)        :               -2.0000
             D4 a1             :                0.5200
             D4 a2             :                5.0000
             D4 s6             :                1.0000
             D4 s8             :                2.7000
             D4 s9             :                5.0000
             alphaj            :                2.0000

  Z AO/shell   Hii/eV     exponent
  1     Wed Apr 25 08:07:45 CEST 2018   EN: 2.200 GM2: 0.406  GM3: 0.0800  RAES: 1.40
     1s    -10.707211    1.230000
  6     Wed Apr 25 08:07:45 CEST 2018   EN: 2.550 GM2: 0.538  GM3: 0.1500  RAES: 3.00
     2s    -13.970922    2.096432
     2p    -10.063292    1.800000
  9     Mon Apr 23 13:58:50 CEST 2018   EN: 3.980 GM2: 0.532  GM3: 0.1426  RAES: 2.40
     2s    -23.458179    2.416361
     2p    -15.746583    2.308399
 17     Mon Apr 23 14:09:22 CEST 2018   EN: 3.160 GM2: 0.249  GM3: 0.1495  RAES: 2.50
     3s    -29.278781    2.485265
     3p    -12.673758    2.199650
     3d     -0.240338    2.476089

 Solvent             : Water
 Using internal parameter file: .param_gbsa2_Water
 Gsolv ref. state (COSMO-RS): gsolv [1 M gas/solution]
 temperature (mdtemp)       :    298.150000000000     
 dielectric constant        :    80.2000000000000     
 rho                        :    1.00000000000000     
 mass                       :    18.0000000000000     
 surface tension            :    15.5689454083859     
 probe radius               :   0.975313790000000     
 Gshift (Eh)                :   1.857443126794793E-003
 c1                         :    1.55243817000000     
 soset                      :   0.130326360000000     
 HB correction              :  T
           ------------------------------------------------- 
          |        Self-Consistent Charge Iterations        |
           ------------------------------------------------- 

          ...................................................
          :                      SETUP                      :
          :.................................................:
          :  # basis functions                  21          :
          :  # atomic orbitals                  20          :
          :  # shells                           10          :
          :  # electrons                        22          :
          :  max. iterations                   250          :
          :  Hamiltonian                  GFN2-xTB          :
          :  restarted?                      false          :
          :  GBSA solvation                   true          :
          :  PC potential                    false          :
          :  electronic temp.          300.0000000     K    :
          :  accuracy                    1.0000000          :
          :  -> integral cutoff          0.2500000E+02      :
          :  -> integral neglect         0.1000000E-07      :
          :  -> SCF convergence          0.1000000E-05 Eh   :
          :  -> wf. convergence          0.1000000E-03 e    :
          :  Broyden damping             0.4000000          :
          ...................................................

 iter      E             dE          RMSdq      gap      omega  full diag
   1    -13.2325440 -0.132325E+02  0.623E+00    4.79       0.0  T
   2    -13.3033679 -0.708239E-01  0.301E+00    2.45       1.0  T
   3    -13.3107131 -0.734522E-02  0.165E+00    2.70       1.0  T
   4    -13.3113243 -0.611179E-03  0.221E-01    2.32       1.0  T
   5    -13.3113756 -0.513277E-04  0.185E-01    2.47       1.0  T
   6    -13.3114571 -0.815300E-04  0.599E-02    2.44       1.0  T
   7    -13.3114629 -0.572171E-05  0.508E-02    2.43       1.0  T
   8    -13.3114674 -0.450880E-05  0.236E-02    2.41       1.7  T
   9    -13.3114689 -0.151038E-05  0.250E-03    2.43      16.3  T
  10    -13.3114689 -0.958765E-08  0.833E-04    2.43      49.0  T
  11    -13.3114689 -0.193123E-08  0.761E-05    2.43     536.3  T

   *** convergence criteria satisfied after 11 iterations ***

         #    Occupation            Energy/Eh            Energy/eV
      -------------------------------------------------------------
         1        2.0000           -1.0387008             -28.2645
       ...           ...                  ...                  ...
         5        2.0000           -0.4934906             -13.4286
         6        2.0000           -0.4577580             -12.4562
         7        2.0000           -0.4099970             -11.1566
         8        2.0000           -0.4099838             -11.1562
         9        2.0000           -0.3468767              -9.4390
        10        2.0000           -0.3449729              -9.3872
        11        2.0000           -0.3449728              -9.3872 (HOMO)
        12                         -0.2558521              -6.9621 (LUMO)
        13                          0.0475851               1.2949
        14                          0.0475997               1.2953
        15                          0.0486401               1.3236
        16                          0.0486444               1.3237
       ...                                ...                  ...
        20                          0.2600062               7.0751
      -------------------------------------------------------------
                  HL-Gap            0.0891207 Eh            2.4251 eV
             Fermi-level           -0.3004124 Eh           -8.1746 eV

 SCC (total)                   0 d,  0 h,  0 min,  0.006 sec
 SCC setup                      ...        0 min,  0.000 sec (  4.879%)
 Dispersion                     ...        0 min,  0.000 sec (  0.516%)
 integral evaluation            ...        0 min,  0.001 sec ( 16.379%)
 zeroth order Hamiltonian       ...        0 min,  0.000 sec (  0.647%)
 iterations                     ...        0 min,  0.004 sec ( 57.683%)
 molecular gradient             ...        0 min,  0.001 sec ( 17.446%)
 printout                       ...        0 min,  0.000 sec (  1.745%)

         :::::::::::::::::::::::::::::::::::::::::::::::::::::
         ::                     SUMMARY                     ::
         :::::::::::::::::::::::::::::::::::::::::::::::::::::
         :: total energy             -13.249186843764 Eh    ::
         :: total w/o Gsasa/hb       -13.247598103518 Eh    ::
         :: gradient norm              0.064083070655 Eh/a0 ::
         :: HOMO-LUMO gap              2.425097986895 eV    ::
         ::.................................................::
         :: SCC energy               -13.308922497935 Eh    ::
         :: -> isotropic ES            0.243734583289 Eh    ::
         :: -> anisotropic ES         -0.000791913750 Eh    ::
         :: -> anisotropic XC          0.004800335503 Eh    ::
         :: -> dispersion             -0.001966658134 Eh    ::
         :: -> Gsolv                  -0.116915035496 Eh    ::
         ::    -> Gborn               -0.115326295251 Eh    ::
         ::    -> Gsasa                0.000688951574 Eh    ::
         ::    -> Ghb                 -0.004135134946 Eh    ::
         ::    -> Gshift               0.001857443127 Eh    ::
         :: repulsion energy           0.059735961771 Eh    ::
         :: add. restraining           0.000000000000 Eh    ::
         :::::::::::::::::::::::::::::::::::::::::::::::::::::

           -------------------------------------------------
          |                Property Printout                |
           -------------------------------------------------

    * Orbital Energies and Occupations

         #    Occupation            Energy/Eh            Energy/eV
      -------------------------------------------------------------
         1        2.0000           -1.0387008             -28.2645
         2        2.0000           -0.6110708             -16.6281
         3        2.0000           -0.5907012             -16.0738
         4        2.0000           -0.4935865             -13.4312
         5        2.0000           -0.4934906             -13.4286
         6        2.0000           -0.4577580             -12.4562
         7        2.0000           -0.4099970             -11.1566
         8        2.0000           -0.4099838             -11.1562
         9        2.0000           -0.3468767              -9.4390
        10        2.0000           -0.3449729              -9.3872
        11        2.0000           -0.3449728              -9.3872 (HOMO)
        12                         -0.2558521              -6.9621 (LUMO)
        13                          0.0475851               1.2949
        14                          0.0475997               1.2953
        15                          0.0486401               1.3236
        16                          0.0486444               1.3237
        17                          0.0675975               1.8394
        18                          0.1549990               4.2177
        19                          0.2590835               7.0500
        20                          0.2600062               7.0751
      -------------------------------------------------------------
                  HL-Gap            0.0891207 Eh            2.4251 eV
             Fermi-level           -0.3004124 Eh           -8.1746 eV

     #   Z        covCN         q      C6AA      α(0)
     1   9 F      0.001    -0.912    22.572     5.534
     2  17 Cl     0.748    -0.367   110.807    16.102
     3   6 C      3.528    -0.008    21.975     6.894
     4   1 H      0.927     0.096     1.822     2.111
     5   1 H      0.927     0.096     1.822     2.111
     6   1 H      0.927     0.096     1.823     2.111

 Mol. C6AA /au·bohr⁶  :        569.802669
 Mol. C8AA /au·bohr⁸  :      15955.811476
 Mol. α(0) /au        :         34.863013


Wiberg/Mayer (AO) data.
largest (>0.10) Wiberg bond orders for each atom
          total WBO             WBO to atom ...
     1  F   0.167        C    3 0.110
     2  Cl  0.872        C    3 0.808
     3  C   3.882        H    5 0.988    H    6 0.988    H    4 0.988    Cl   2 0.808    F    1 0.110
     4  H   0.991        C    3 0.988
     5  H   0.991        C    3 0.988
     6  H   0.991        C    3 0.988

molecular dipole:
                 x           y           z       tot (Debye)
 q only:        3.350       0.061      -0.056
   full:        3.200       0.058      -0.054       8.137
molecular quadrupole (traceless):
                xx          xy          yy          xz          yz          zz
 q only:      -29.834      -0.916      14.912       0.624       0.012      14.922
  q+dip:      -31.117      -0.957      15.553       0.656       0.010      15.564
   full:      -30.185      -0.926      15.087       0.638       0.011      15.098


           -------------------------------------------------
          | TOTAL ENERGY              -13.249186843764 Eh   |
          | GRADIENT NORM               0.064083070655 Eh/α |
          | HOMO-LUMO GAP               2.425097986895 eV   |
           -------------------------------------------------

------------------------------------------------------------------------
 * finished run on 2020/08/20 at 17:46:30.748     
------------------------------------------------------------------------
 total:
 * wall-time:     0 d,  0 h,  0 min,  0.057 sec
 *  cpu-time:     0 d,  0 h,  0 min,  0.017 sec
 * ratio c/w:     0.297 speedup
 SCF:
 * wall-time:     0 d,  0 h,  0 min,  0.006 sec
 *  cpu-time:     0 d,  0 h,  0 min,  0.006 sec
 * ratio c/w:     0.997 speedup

