      -----------------------------------------------------------      
     |                   =====================                   |     
     |                           x T B                           |     
     |                   =====================                   |     
     |                         S. Grimme                         |     
     |          Mulliken Center for Theoretical Chemistry        |     
     |                    University of Bonn                     |     
      -----------------------------------------------------------      

   * xtb version 6.2.3 (830e466) compiled by 'ehlert@majestix' on 2020-03-16

   xtb is free software: you can redistribute it and/or modify it under
   the terms of the GNU Lesser General Public License as published by
   the Free Software Foundation, either version 3 of the License, or
   (at your option) any later version.
   
   xtb is distributed in the hope that it will be useful,
   but WITHOUT ANY WARRANTY; without even the implied warranty of
   MERCHANTABILITY or FITNESS FOR A PARTICULAR PURPOSE.  See the
   GNU Lesser General Public License for more details.
   
   Cite this work as:
   * S. Grimme, C. Bannwarth, P. Shushkov, J. Chem. Theory Comput., 2017,
     13, 1989-2009. DOI: 10.1021/acs.jctc.7b00118
   * C. Bannwarth, S. Ehlert and S. Grimme., J. Chem. Theory Comput., 2019,
     15, 1652-1671. DOI: 10.1021/acs.jctc.8b01176
   * P. Pracht, E. Caldeweyher, S. Ehlert, S. Grimme, ChemRxiv, 2019, preprint.
     DOI: 10.26434/chemrxiv.8326202.v1
   
   for DFT-D4:
   * E. Caldeweyher, C. Bannwarth and S. Grimme, J. Chem. Phys., 2017,
     147, 034112. DOI: 10.1063/1.4993215
   * E. Caldeweyher, S. Ehlert, A. Hansen, H. Neugebauer, S. Spicher,
     C. Bannwarth and S. Grimme, J. Chem. Phys., 2019, 150, 154122.
     DOI: 10.1063/1.5090222
   
   for sTDA-xTB:
   * S. Grimme and C. Bannwarth, J. Chem. Phys., 2016, 145, 054103.
     DOI: 10.1063/1.4959605
   
   in the mass-spec context:
   * V. Asgeirsson, C. Bauer and S. Grimme, Chem. Sci., 2017, 8, 4879.
     DOI: 10.1039/c7sc00601b
   
   for metadynamics refer to:
   * S. Grimme, J. Chem. Theory Comput., 2019, 155, 2847-2862
     DOI: 10.1021/acs.jctc.9b00143
   
   with help from (in alphabetical order)
   C. Bannwarth, F. Bohle, G. Brandenburg, E. Caldeweyher, M. Checinski,
   S. Dohm, S. Ehlert, S. Ehrlich, F. März, H. Neugebauer, J. Pisarek,
   P. Pracht, P. Shushkov, and S. Spicher.
   
 * started run on 2020/08/20 at 17:46:31.107     

           -------------------------------------------------
          |                Calculation Setup                |
           -------------------------------------------------

          program call               : /u/fd/ball4935/opt/bin/xtb 4_5_xtb.xyz --chrg -1 --grad --gbsa Water
          hostname                   : comp0810
          coordinate file            : 4_5_xtb.xyz
          omp threads                :                     1
          number of atoms            :                     6
          number of electrons        :                    22
          charge                     :                    -1
          spin                       :                   0.0
          first test random number   :      0.96819448624576


molecular fragmentation (1/2 indicates fragments):
122222
# atoms in fragment 1/2:     1     5
 fragment masses (1/2) :       19.00       50.49
CMA distance (Bohr)    :   7.057
constraining FC (au)   :  0.0500
########################################################################
[WARNING] Please study the warnings concerning your input carefully
-2- prog_main: XTBPATH is not set, using XTBHOME instead
-1- prog_main: XTBHOME is not set, using HOME instead
########################################################################
           ------------------------------------------------- 
          |                 G F N 2 - x T B                 |
          | Geometry, Frequencies, Noncovalent interactions |
          |            JCTC 2019 parametrisation            |
           ------------------------------------------------- 
             k(s)              :                1.8500
             k(p)              :                2.2300
             k(d)              :                2.2300
             k(f)              :                2.0000
             kEN (H0ij)        :               -2.0000
             D4 a1             :                0.5200
             D4 a2             :                5.0000
             D4 s6             :                1.0000
             D4 s8             :                2.7000
             D4 s9             :                5.0000
             alphaj            :                2.0000

  Z AO/shell   Hii/eV     exponent
  1     Wed Apr 25 08:07:45 CEST 2018   EN: 2.200 GM2: 0.406  GM3: 0.0800  RAES: 1.40
     1s    -10.707211    1.230000
  6     Wed Apr 25 08:07:45 CEST 2018   EN: 2.550 GM2: 0.538  GM3: 0.1500  RAES: 3.00
     2s    -13.970922    2.096432
     2p    -10.063292    1.800000
  9     Mon Apr 23 13:58:50 CEST 2018   EN: 3.980 GM2: 0.532  GM3: 0.1426  RAES: 2.40
     2s    -23.458179    2.416361
     2p    -15.746583    2.308399
 17     Mon Apr 23 14:09:22 CEST 2018   EN: 3.160 GM2: 0.249  GM3: 0.1495  RAES: 2.50
     3s    -29.278781    2.485265
     3p    -12.673758    2.199650
     3d     -0.240338    2.476089

 Solvent             : Water
 Using internal parameter file: .param_gbsa2_Water
 Gsolv ref. state (COSMO-RS): gsolv [1 M gas/solution]
 temperature (mdtemp)       :    298.150000000000     
 dielectric constant        :    80.2000000000000     
 rho                        :    1.00000000000000     
 mass                       :    18.0000000000000     
 surface tension            :    15.5689454083859     
 probe radius               :   0.975313790000000     
 Gshift (Eh)                :   1.857443126794793E-003
 c1                         :    1.55243817000000     
 soset                      :   0.130326360000000     
 HB correction              :  T
           ------------------------------------------------- 
          |        Self-Consistent Charge Iterations        |
           ------------------------------------------------- 

          ...................................................
          :                      SETUP                      :
          :.................................................:
          :  # basis functions                  21          :
          :  # atomic orbitals                  20          :
          :  # shells                           10          :
          :  # electrons                        22          :
          :  max. iterations                   250          :
          :  Hamiltonian                  GFN2-xTB          :
          :  restarted?                      false          :
          :  GBSA solvation                   true          :
          :  PC potential                    false          :
          :  electronic temp.          300.0000000     K    :
          :  accuracy                    1.0000000          :
          :  -> integral cutoff          0.2500000E+02      :
          :  -> integral neglect         0.1000000E-07      :
          :  -> SCF convergence          0.1000000E-05 Eh   :
          :  -> wf. convergence          0.1000000E-03 e    :
          :  Broyden damping             0.4000000          :
          ...................................................

 iter      E             dE          RMSdq      gap      omega  full diag
   1    -13.2448703 -0.132449E+02  0.604E+00    5.36       0.0  T
   2    -13.3106466 -0.657763E-01  0.294E+00    3.19       1.0  T
   3    -13.3147731 -0.412644E-02  0.162E+00    3.31       1.0  T
   4    -13.3152601 -0.487019E-03  0.246E-01    2.96       1.0  T
   5    -13.3152984 -0.383076E-04  0.181E-01    3.08       1.0  T
   6    -13.3153635 -0.650714E-04  0.121E-01    3.03       1.0  T
   7    -13.3154041 -0.406108E-04  0.584E-02    3.02       1.0  T
   8    -13.3154111 -0.699609E-05  0.156E-02    3.01       2.6  T
   9    -13.3154116 -0.540817E-06  0.137E-03    3.02      29.7  T
  10    -13.3154116 -0.499491E-08  0.362E-04    3.02     112.8  T
  11    -13.3154116 -0.300092E-09  0.675E-05    3.02     604.8  T

   *** convergence criteria satisfied after 11 iterations ***

         #    Occupation            Energy/Eh            Energy/eV
      -------------------------------------------------------------
         1        2.0000           -1.0407136             -28.3193
       ...           ...                  ...                  ...
         5        2.0000           -0.4937640             -13.4360
         6        2.0000           -0.4629895             -12.5986
         7        2.0000           -0.4103584             -11.1664
         8        2.0000           -0.4103435             -11.1660
         9        2.0000           -0.3449819              -9.3874
        10        2.0000           -0.3437264              -9.3533
        11        2.0000           -0.3437261              -9.3533 (HOMO)
        12                         -0.2327507              -6.3335 (LUMO)
        13                          0.0447527               1.2178
        14                          0.0447730               1.2183
        15                          0.0458235               1.2469
        16                          0.0458366               1.2473
       ...                                ...                  ...
        20                          0.2507138               6.8223
      -------------------------------------------------------------
                  HL-Gap            0.1109753 Eh            3.0198 eV
             Fermi-level           -0.2882384 Eh           -7.8434 eV

 SCC (total)                   0 d,  0 h,  0 min,  0.006 sec
 SCC setup                      ...        0 min,  0.000 sec (  4.310%)
 Dispersion                     ...        0 min,  0.000 sec (  0.442%)
 integral evaluation            ...        0 min,  0.001 sec ( 17.587%)
 zeroth order Hamiltonian       ...        0 min,  0.000 sec (  0.487%)
 iterations                     ...        0 min,  0.004 sec ( 55.735%)
 molecular gradient             ...        0 min,  0.001 sec ( 18.865%)
 printout                       ...        0 min,  0.000 sec (  1.836%)

         :::::::::::::::::::::::::::::::::::::::::::::::::::::
         ::                     SUMMARY                     ::
         :::::::::::::::::::::::::::::::::::::::::::::::::::::
         :: total energy             -13.255242155860 Eh    ::
         :: total w/o Gsasa/hb       -13.253786240170 Eh    ::
         :: gradient norm              0.056811839261 Eh/a0 ::
         :: HOMO-LUMO gap              3.019792530786 eV    ::
         ::.................................................::
         :: SCC energy               -13.312896023989 Eh    ::
         :: -> isotropic ES            0.244984464799 Eh    ::
         :: -> anisotropic ES         -0.001518749125 Eh    ::
         :: -> anisotropic XC          0.004017307192 Eh    ::
         :: -> dispersion             -0.002009631740 Eh    ::
         :: -> Gsolv                  -0.117173974668 Eh    ::
         ::    -> Gborn               -0.115718058979 Eh    ::
         ::    -> Gsasa                0.000658154118 Eh    ::
         ::    -> Ghb                 -0.003971512934 Eh    ::
         ::    -> Gshift               0.001857443127 Eh    ::
         :: repulsion energy           0.057654081020 Eh    ::
         :: add. restraining           0.000000000000 Eh    ::
         :::::::::::::::::::::::::::::::::::::::::::::::::::::

           -------------------------------------------------
          |                Property Printout                |
           -------------------------------------------------

    * Orbital Energies and Occupations

         #    Occupation            Energy/Eh            Energy/eV
      -------------------------------------------------------------
         1        2.0000           -1.0407136             -28.3193
         2        2.0000           -0.6102079             -16.6046
         3        2.0000           -0.5895810             -16.0433
         4        2.0000           -0.4939052             -13.4398
         5        2.0000           -0.4937640             -13.4360
         6        2.0000           -0.4629895             -12.5986
         7        2.0000           -0.4103584             -11.1664
         8        2.0000           -0.4103435             -11.1660
         9        2.0000           -0.3449819              -9.3874
        10        2.0000           -0.3437264              -9.3533
        11        2.0000           -0.3437261              -9.3533 (HOMO)
        12                         -0.2327507              -6.3335 (LUMO)
        13                          0.0447527               1.2178
        14                          0.0447730               1.2183
        15                          0.0458235               1.2469
        16                          0.0458366               1.2473
        17                          0.0738278               2.0090
        18                          0.1505805               4.0975
        19                          0.2497259               6.7954
        20                          0.2507138               6.8223
      -------------------------------------------------------------
                  HL-Gap            0.1109753 Eh            3.0198 eV
             Fermi-level           -0.2882384 Eh           -7.8434 eV

     #   Z        covCN         q      C6AA      α(0)
     1   9 F      0.003    -0.918    22.698     5.549
     2  17 Cl     0.813    -0.350   110.339    16.069
     3   6 C      3.594     0.002    21.176     6.664
     4   1 H      0.926     0.089     1.891     2.150
     5   1 H      0.926     0.089     1.890     2.150
     6   1 H      0.926     0.089     1.891     2.150

 Mol. C6AA /au·bohr⁶  :        568.809597
 Mol. C8AA /au·bohr⁸  :      15881.168567
 Mol. α(0) /au        :         34.732474


Wiberg/Mayer (AO) data.
largest (>0.10) Wiberg bond orders for each atom
          total WBO             WBO to atom ...
     1  F   0.157        C    3 0.102
     2  Cl  0.888        C    3 0.824
     3  C   3.892        H    5 0.989    H    6 0.989    H    4 0.989    Cl   2 0.824    F    1 0.102
     4  H   0.992        C    3 0.989
     5  H   0.992        C    3 0.989
     6  H   0.992        C    3 0.989

molecular dipole:
                 x           y           z       tot (Debye)
 q only:        3.357       0.061      -0.055
   full:        3.116       0.056      -0.051       7.921
molecular quadrupole (traceless):
                xx          xy          yy          xz          yz          zz
 q only:      -27.974      -0.856      13.982       0.582       0.011      13.992
  q+dip:      -29.953      -0.921      14.971       0.625       0.009      14.982
   full:      -28.946      -0.889      14.468       0.606       0.010      14.478


           -------------------------------------------------
          | TOTAL ENERGY              -13.255242155860 Eh   |
          | GRADIENT NORM               0.056811839261 Eh/α |
          | HOMO-LUMO GAP               3.019792530786 eV   |
           -------------------------------------------------

------------------------------------------------------------------------
 * finished run on 2020/08/20 at 17:46:31.164     
------------------------------------------------------------------------
 total:
 * wall-time:     0 d,  0 h,  0 min,  0.057 sec
 *  cpu-time:     0 d,  0 h,  0 min,  0.017 sec
 * ratio c/w:     0.301 speedup
 SCF:
 * wall-time:     0 d,  0 h,  0 min,  0.007 sec
 *  cpu-time:     0 d,  0 h,  0 min,  0.007 sec
 * ratio c/w:     0.998 speedup

