
                                 *****************
                                 * O   R   C   A *
                                 *****************

           --- An Ab Initio, DFT and Semiempirical electronic structure package ---

                  #######################################################
                  #                        -***-                        #
                  #          Department of theory and spectroscopy      #
                  #               Directorship: Frank Neese             #
                  #        Max Planck Institute fuer Kohlenforschung    #
                  #                Kaiser Wilhelm Platz 1               #
                  #                 D-45470 Muelheim/Ruhr               #
                  #                      Germany                        #
                  #                                                     #
                  #                  All rights reserved                #
                  #                        -***-                        #
                  #######################################################


                         Program Version 4.2.1 -  RELEASE  -


 With contributions from (in alphabetic order):
   Daniel Aravena         : Magnetic Suceptibility
   Michael Atanasov       : Ab Initio Ligand Field Theory (pilot matlab implementation)
   Alexander A. Auer      : GIAO ZORA, VPT2
   Ute Becker             : Parallelization
   Giovanni Bistoni       : ED, misc. LED, open-shell LED, HFLD
   Martin Brehm           : Molecular dynamics
   Dmytro Bykov           : SCF Hessian
   Vijay G. Chilkuri      : MRCI spin determinant printing, contributions to CSF-ICE
   Dipayan Datta          : RHF DLPNO-CCSD density
   Achintya Kumar Dutta   : EOM-CC, STEOM-CC
   Dmitry Ganyushin       : Spin-Orbit,Spin-Spin,Magnetic field MRCI
   Miquel Garcia          : C-PCM Hessian, Gaussian charge scheme
   Yang Guo               : DLPNO-NEVPT2, CIM, IAO-localization
   Andreas Hansen         : Spin unrestricted coupled pair/coupled cluster methods
   Benjamin Helmich-Paris : CASSCF linear response (MC-RPA)
   Lee Huntington         : MR-EOM, pCC
   Robert Izsak           : Overlap fitted RIJCOSX, COSX-SCS-MP3, EOM
   Christian Kollmar      : KDIIS, OOCD, Brueckner-CCSD(T), CCSD density
   Simone Kossmann        : Meta GGA functionals, TD-DFT gradient, OOMP2, MP2 Hessian
   Martin Krupicka        : AUTO-CI
   Lucas Lang             : DCDCAS
   Dagmar Lenk            : GEPOL surface, SMD
   Dimitrios Liakos       : Extrapolation schemes; Compound Job, initial MDCI parallelization
   Dimitrios Manganas     : Further ROCIS development; embedding schemes
   Dimitrios Pantazis     : SARC Basis sets
   Taras Petrenko         : DFT Hessian,TD-DFT gradient, ASA, ECA, R-Raman, ABS, FL, XAS/XES, NRVS
   Peter Pinski           : DLPNO-MP2, DLPNO-MP2 Gradient
   Christoph Reimann      : Effective Core Potentials
   Marius Retegan         : Local ZFS, SOC
   Christoph Riplinger    : Optimizer, TS searches, QM/MM, DLPNO-CCSD(T), (RO)-DLPNO pert. Triples
   Tobias Risthaus        : Range-separated hybrids, TD-DFT gradient, RPA, STAB
   Michael Roemelt        : Original ROCIS implementation
   Masaaki Saitow         : Open-shell DLPNO-CCSD energy and density
   Barbara Sandhoefer     : DKH picture change effects
   Avijit Sen             : IP-ROCIS
   Kantharuban Sivalingam : CASSCF convergence, NEVPT2, FIC-MRCI
   Bernardo de Souza      : ESD, SOC TD-DFT
   Georgi Stoychev        : AutoAux, RI-MP2 NMR
   Willem Van den Heuvel  : Paramagnetic NMR
   Boris Wezisla          : Elementary symmetry handling
   Frank Wennmohs         : Technical directorship


 We gratefully acknowledge several colleagues who have allowed us to
 interface, adapt or use parts of their codes:
   Stefan Grimme, W. Hujo, H. Kruse,             : VdW corrections, initial TS optimization,
                  C. Bannwarth                     DFT functionals, gCP, sTDA/sTD-DF
   Ed Valeev, F. Pavosevic, A. Kumar             : LibInt (2-el integral package), F12 methods
   Garnet Chan, S. Sharma, J. Yang, R. Olivares  : DMRG
   Ulf Ekstrom                                   : XCFun DFT Library
   Mihaly Kallay                                 : mrcc  (arbitrary order and MRCC methods)
   Andreas Klamt, Michael Diedenhofen            : otool_cosmo (COSMO solvation model)
   Jiri Pittner, Ondrej Demel                    : Mk-CCSD
   Frank Weinhold                                : gennbo (NPA and NBO analysis)
   Christopher J. Cramer and Donald G. Truhlar   : smd solvation model
   Lars Goerigk                                  : TD-DFT with DH, B97 family of functionals
   V. Asgeirsson, H. Jonsson                     : NEB implementation
   FAccTs GmbH                                   : IRC, NEB, NEB-TS, Multilevel, MM, QM/MM, CI optimization
   S Lehtola, MJT Oliveira, MAL Marques          : LibXC Library


 Your calculation uses the libint2 library for the computation of 2-el integrals
 For citations please refer to: http://libint.valeyev.net

 Your ORCA version has been built with support for libXC version: 4.2.3
 For citations please refer to: https://tddft.org/programs/libxc/

 This ORCA versions uses:
   CBLAS   interface :  Fast vector & matrix operations
   LAPACKE interface :  Fast linear algebra routines
   SCALAPACK package :  Parallel linear algebra routines


Your calculation utilizes the atom-pairwise dispersion correction
with the Becke-Johnson damping scheme (D3BJ)
Cite in your paper:
S.Grimme, S.Ehrlich, L.Goerigk, J Comput Chem, (2011), 32, 1456–1465 
S.Grimme, J.Antony, S.Ehrlich and H.Krieg, J.Chem.Phys., 132, (2010), 154104 
   

----- Orbital basis set information -----
Your calculation utilizes the basis: def2-SVP
   F. Weigend and R. Ahlrichs, Phys. Chem. Chem. Phys. 7, 3297 (2005).

----- AuxJ basis set information -----
Your calculation utilizes the auxiliary basis: def2/J
   F. Weigend, Phys. Chem. Chem. Phys. 8, 1057 (2006).

================================================================================
                                        WARNINGS
                       Please study these warnings very carefully!
================================================================================


INFO   : the flag for use of LIBINT has been found!

================================================================================
                                       INPUT FILE
================================================================================
NAME = L6nY71_hl_neb_1-3_1-2_hess_orca.inp
|  1> ! Freq PBE0 RIJCOSX D3BJ def2-SVP def2/J
|  2> %geom MaxIter 100 end
|  3> %output 
|  4> xyzfile=True 
|  5> end 
|  6> %scf 
|  7> maxiter 250 
|  8> end
|  9> %output
| 10> Print[P_Hirshfeld] = 1
| 11> end
| 12> % maxcore
| 13> 4000
| 14> %pal nprocs 8
| 15> end
| 16> *xyz 0 1
| 17> C    0.13713413  -0.63286393  -2.74172778 
| 18> C   -0.50362213   0.10969599  -1.57576501 
| 19> Co  -0.54704519  -0.75238980   0.52069517 
| 20> C   -1.59369062  -0.81359027  -0.95431757 
| 21> O   -2.57250524  -1.18179214  -1.51179451 
| 22> C    0.31329450  -2.30497175   0.28991325 
| 23> O    0.84271871  -3.31497705   0.22876920 
| 24> C   -1.88617978  -0.83663155   1.64484496 
| 25> O   -2.67779729  -1.00992652   2.45169415 
| 26> C    0.53924146   0.28097729   1.54975055 
| 27> O    1.17562733   1.05805598   2.08998214 
| 28> H   -0.64136773  -1.13713970  -3.33459380 
| 29> H    0.83113649  -1.40467769  -2.37863917 
| 30> H    0.69077439   0.05412279  -3.39762072 
| 31> H    0.28100152   0.44839887  -0.85390658 
| 32> H   -1.04714055   1.01235946  -1.89707430 
| 33> *
| 34> 
| 35>                          ****END OF INPUT****
================================================================================

                       ****************************
                       * Single Point Calculation *
                       ****************************

---------------------------------
CARTESIAN COORDINATES (ANGSTROEM)
---------------------------------
  C      0.137134   -0.632864   -2.741728
  C     -0.503622    0.109696   -1.575765
  Co    -0.547045   -0.752390    0.520695
  C     -1.593691   -0.813590   -0.954318
  O     -2.572505   -1.181792   -1.511795
  C      0.313294   -2.304972    0.289913
  O      0.842719   -3.314977    0.228769
  C     -1.886180   -0.836632    1.644845
  O     -2.677797   -1.009927    2.451694
  C      0.539241    0.280977    1.549751
  O      1.175627    1.058056    2.089982
  H     -0.641368   -1.137140   -3.334594
  H      0.831136   -1.404678   -2.378639
  H      0.690774    0.054123   -3.397621
  H      0.281002    0.448399   -0.853907
  H     -1.047141    1.012359   -1.897074

----------------------------
CARTESIAN COORDINATES (A.U.)
----------------------------
  NO LB      ZA    FRAG     MASS         X           Y           Z
   0 C     6.0000    0    12.011    0.259146   -1.195940   -5.181115
   1 C     6.0000    0    12.011   -0.951708    0.207295   -2.977764
   2 Co   27.0000    0    58.930   -1.033766   -1.421811    0.983971
   3 C     6.0000    0    12.011   -3.011639   -1.537463   -1.803399
   4 O     8.0000    0    15.999   -4.861330   -2.233263   -2.856878
   5 C     6.0000    0    12.011    0.592041   -4.355765    0.547857
   6 O     8.0000    0    15.999    1.592508   -6.264399    0.432311
   7 C     6.0000    0    12.011   -3.564363   -1.581005    3.108307
   8 O     8.0000    0    15.999   -5.060304   -1.908485    4.633031
   9 C     6.0000    0    12.011    1.019019    0.530970    2.928604
  10 O     8.0000    0    15.999    2.221614    1.999436    3.949494
  11 H     1.0000    0     1.008   -1.212009   -2.148883   -6.301469
  12 H     1.0000    0     1.008    1.570620   -2.654456   -4.494977
  13 H     1.0000    0     1.008    1.305374    0.102277   -6.420573
  14 H     1.0000    0     1.008    0.531016    0.847351   -1.613650
  15 H     1.0000    0     1.008   -1.978809    1.913082   -3.584951

--------------------------------
INTERNAL COORDINATES (ANGSTROEM)
--------------------------------
 C      0   0   0     0.000000000000     0.00000000     0.00000000
 C      1   0   0     1.523624954031     0.00000000     0.00000000
 Co     2   1   0     2.267205936342   122.02992405     0.00000000
 C      2   1   3     1.557852288081   108.10104737   303.33719730
 O      4   2   1     1.185087007788   125.05899931   296.11900500
 C      3   2   1     1.789959605202   101.61815092     0.69388469
 O      6   3   2     1.141989183404   175.46385352   185.19328339
 C      3   2   1     1.750454476110   128.81376104   226.18960980
 O      8   3   2     1.143544946283   171.88922351   159.23265448
 C      3   2   1     1.818466717807   107.20285296   111.88956354
 O     10   3   2     1.140477284658   171.33220753    30.42978677
 H      1   2   3     1.100840277199   109.75391776    99.45128355
 H      1   2   3     1.099622250831   110.78193267   340.75177023
 H      1   2   3     1.099392486645   111.33297703   219.88207051
 H      2   1   3     1.118674888438   110.26715029    69.04606784
 H      2   1   3     1.101568551109   112.55997133   187.97699332

---------------------------
INTERNAL COORDINATES (A.U.)
---------------------------
 C      0   0   0     0.000000000000     0.00000000     0.00000000
 C      1   0   0     2.879233893927     0.00000000     0.00000000
 Co     2   1   0     4.284398308887   122.02992405     0.00000000
 C      2   1   3     2.943914181575   108.10104737   303.33719730
 O      4   2   1     2.239489889588   125.05899931   296.11900500
 C      3   2   1     3.382533444613   101.61815092     0.69388469
 O      6   3   2     2.158046804535   175.46385352   185.19328339
 C      3   2   1     3.307879569745   128.81376104   226.18960980
 O      8   3   2     2.160986770305   171.88922351   159.23265448
 C      3   2   1     3.436404080305   107.20285296   111.88956354
 O     10   3   2     2.155189729962   171.33220753    30.42978677
 H      1   2   3     2.080286641096   109.75391776    99.45128355
 H      1   2   3     2.077984904837   110.78193267   340.75177023
 H      1   2   3     2.077550713449   111.33297703   219.88207051
 H      2   1   3     2.113989172043   110.26715029    69.04606784
 H      2   1   3     2.081662879336   112.55997133   187.97699332

---------------------
BASIS SET INFORMATION
---------------------
There are 4 groups of distinct atoms

 Group   1 Type C   : 7s4p1d contracted to 3s2p1d pattern {511/31/1}
 Group   2 Type Co  : 14s9p5d1f contracted to 5s3p2d1f pattern {63311/531/41/1}
 Group   3 Type O   : 7s4p1d contracted to 3s2p1d pattern {511/31/1}
 Group   4 Type H   : 4s1p contracted to 2s1p pattern {31/1}

Atom   0C    basis set group =>   1
Atom   1C    basis set group =>   1
Atom   2Co   basis set group =>   2
Atom   3C    basis set group =>   1
Atom   4O    basis set group =>   3
Atom   5C    basis set group =>   1
Atom   6O    basis set group =>   3
Atom   7C    basis set group =>   1
Atom   8O    basis set group =>   3
Atom   9C    basis set group =>   1
Atom  10O    basis set group =>   3
Atom  11H    basis set group =>   4
Atom  12H    basis set group =>   4
Atom  13H    basis set group =>   4
Atom  14H    basis set group =>   4
Atom  15H    basis set group =>   4
---------------------------------
AUXILIARY/J BASIS SET INFORMATION
---------------------------------
There are 4 groups of distinct atoms

 Group   1 Type C   : 12s5p4d2f1g contracted to 6s4p3d1f1g pattern {711111/2111/211/2/1}
 Group   2 Type Co  : 19s5p5d3f3g contracted to 8s5p5d2f3g pattern {121111111/11111/11111/21/111}
 Group   3 Type O   : 12s5p4d2f1g contracted to 6s4p3d1f1g pattern {711111/2111/211/2/1}
 Group   4 Type H   : 5s2p1d contracted to 3s1p1d pattern {311/2/1}

Atom   0C    basis set group =>   1
Atom   1C    basis set group =>   1
Atom   2Co   basis set group =>   2
Atom   3C    basis set group =>   1
Atom   4O    basis set group =>   3
Atom   5C    basis set group =>   1
Atom   6O    basis set group =>   3
Atom   7C    basis set group =>   1
Atom   8O    basis set group =>   3
Atom   9C    basis set group =>   1
Atom  10O    basis set group =>   3
Atom  11H    basis set group =>   4
Atom  12H    basis set group =>   4
Atom  13H    basis set group =>   4
Atom  14H    basis set group =>   4
Atom  15H    basis set group =>   4
[1597925434.769199] [comp0803:188369:0]            sys.c:618  UCX  ERROR shmget(size=2097152 flags=0xfb0) for mm_recv_desc failed: Operation not permitted, please check shared memory limits by 'ipcs -l'
[1597925434.772901] [comp0803:188373:0]            sys.c:618  UCX  ERROR shmget(size=2097152 flags=0xfb0) for mm_recv_desc failed: Operation not permitted, please check shared memory limits by 'ipcs -l'
[1597925434.783614] [comp0803:188371:0]            sys.c:618  UCX  ERROR shmget(size=2097152 flags=0xfb0) for mm_recv_desc failed: Operation not permitted, please check shared memory limits by 'ipcs -l'
[1597925434.788157] [comp0803:188370:0]            sys.c:618  UCX  ERROR shmget(size=2097152 flags=0xfb0) for mm_recv_desc failed: Operation not permitted, please check shared memory limits by 'ipcs -l'
[1597925434.790898] [comp0803:188367:0]            sys.c:618  UCX  ERROR shmget(size=2097152 flags=0xfb0) for mm_recv_desc failed: Operation not permitted, please check shared memory limits by 'ipcs -l'
[1597925434.790935] [comp0803:188372:0]            sys.c:618  UCX  ERROR shmget(size=2097152 flags=0xfb0) for mm_recv_desc failed: Operation not permitted, please check shared memory limits by 'ipcs -l'
[1597925434.794950] [comp0803:188368:0]            sys.c:618  UCX  ERROR shmget(size=2097152 flags=0xfb0) for mm_recv_desc failed: Operation not permitted, please check shared memory limits by 'ipcs -l'
[1597925434.803155] [comp0803:188374:0]            sys.c:618  UCX  ERROR shmget(size=2097152 flags=0xfb0) for mm_recv_desc failed: Operation not permitted, please check shared memory limits by 'ipcs -l'
[1597925434.823681] [comp0803:188367:0]            sys.c:618  UCX  ERROR shmget(size=2097152 flags=0xb80) for ucp_am_bufs failed: Operation not permitted, please check shared memory limits by 'ipcs -l'
[1597925434.824269] [comp0803:188371:0]            sys.c:618  UCX  ERROR shmget(size=2097152 flags=0xb80) for ucp_am_bufs failed: Operation not permitted, please check shared memory limits by 'ipcs -l'
[1597925434.824271] [comp0803:188369:0]            sys.c:618  UCX  ERROR shmget(size=2097152 flags=0xb80) for ucp_am_bufs failed: Operation not permitted, please check shared memory limits by 'ipcs -l'
[1597925434.824274] [comp0803:188368:0]            sys.c:618  UCX  ERROR shmget(size=2097152 flags=0xb80) for ucp_am_bufs failed: Operation not permitted, please check shared memory limits by 'ipcs -l'
[1597925434.824281] [comp0803:188370:0]            sys.c:618  UCX  ERROR shmget(size=2097152 flags=0xb80) for ucp_am_bufs failed: Operation not permitted, please check shared memory limits by 'ipcs -l'
[1597925434.828887] [comp0803:188373:0]            sys.c:618  UCX  ERROR shmget(size=2097152 flags=0xb80) for ucp_am_bufs failed: Operation not permitted, please check shared memory limits by 'ipcs -l'
[1597925434.829629] [comp0803:188372:0]            sys.c:618  UCX  ERROR shmget(size=2097152 flags=0xb80) for ucp_am_bufs failed: Operation not permitted, please check shared memory limits by 'ipcs -l'
[1597925434.829625] [comp0803:188374:0]            sys.c:618  UCX  ERROR shmget(size=2097152 flags=0xb80) for ucp_am_bufs failed: Operation not permitted, please check shared memory limits by 'ipcs -l'


           ************************************************************
           *        Program running with 8 parallel MPI-processes     *
           *              working on a common directory               *
           ************************************************************
------------------------------------------------------------------------------
                           ORCA GTO INTEGRAL CALCULATION
                           -- RI-GTO INTEGRALS CHOSEN --
------------------------------------------------------------------------------

                         BASIS SET STATISTICS AND STARTUP INFO

Gaussian basis set:
 # of primitive gaussian shells          ...  174
 # of primitive gaussian functions       ...  348
 # of contracted shells                  ...   86
 # of contracted basis functions         ...  196
 Highest angular momentum                ...    3
 Maximum contraction depth               ...    6
Auxiliary gaussian basis set:
 # of primitive gaussian shells          ...  315
 # of primitive gaussian functions       ...  887
 # of contracted shells                  ...  198
 # of contracted aux-basis functions     ...  634
 Highest angular momentum                ...    4
 Maximum contraction depth               ...   12
Ratio of auxiliary to basis functions    ...  3.23
Integral package used                  ... LIBINT
 One Electron integrals                  ... done
 Ordering auxiliary basis shells         ... done
 Integral threshhold             Thresh  ...  1.000e-10
 Primitive cut-off               TCut    ...  1.000e-11
 Pre-screening matrix                    ... done
 Shell pair data                         ... 
 Ordering of the shell pairs             ... done (   0.001 sec) 3322 of 3741 pairs
 Determination of significant pairs      ... done (   0.000 sec)
 Creation of shell pair data             ... done (   0.000 sec)
 Storage of shell pair data              ... done (   0.010 sec)
 Shell pair data done in (   0.011 sec)
 Computing two index integrals           ... done
 Cholesky decomposition of the V-matrix  ... done


Timings:
 Total evaluation time                   ...   0.230 sec (  0.004 min)
 One electron matrix time                ...   0.040 sec (  0.001 min) = 17.5%
 Schwartz matrix evaluation time         ...   0.133 sec (  0.002 min) = 57.6%
 Two index repulsion integral time       ...   0.009 sec (  0.000 min) =  3.9%
 Cholesky decomposition of V             ...   0.006 sec (  0.000 min) =  2.6%
 Three index repulsion integral time     ...   0.000 sec (  0.000 min) =  0.0%

[1597925436.049146] [comp0803:188411:0]            sys.c:618  UCX  ERROR shmget(size=2097152 flags=0xfb0) for mm_recv_desc failed: Operation not permitted, please check shared memory limits by 'ipcs -l'
[1597925436.052952] [comp0803:188405:0]            sys.c:618  UCX  ERROR shmget(size=2097152 flags=0xfb0) for mm_recv_desc failed: Operation not permitted, please check shared memory limits by 'ipcs -l'
[1597925436.056640] [comp0803:188407:0]            sys.c:618  UCX  ERROR shmget(size=2097152 flags=0xfb0) for mm_recv_desc failed: Operation not permitted, please check shared memory limits by 'ipcs -l'
[1597925436.070489] [comp0803:188409:0]            sys.c:618  UCX  ERROR shmget(size=2097152 flags=0xfb0) for mm_recv_desc failed: Operation not permitted, please check shared memory limits by 'ipcs -l'
[1597925436.072115] [comp0803:188406:0]            sys.c:618  UCX  ERROR shmget(size=2097152 flags=0xfb0) for mm_recv_desc failed: Operation not permitted, please check shared memory limits by 'ipcs -l'
[1597925436.072189] [comp0803:188408:0]            sys.c:618  UCX  ERROR shmget(size=2097152 flags=0xfb0) for mm_recv_desc failed: Operation not permitted, please check shared memory limits by 'ipcs -l'
[1597925436.072770] [comp0803:188410:0]            sys.c:618  UCX  ERROR shmget(size=2097152 flags=0xfb0) for mm_recv_desc failed: Operation not permitted, please check shared memory limits by 'ipcs -l'
[1597925436.093399] [comp0803:188412:0]            sys.c:618  UCX  ERROR shmget(size=2097152 flags=0xfb0) for mm_recv_desc failed: Operation not permitted, please check shared memory limits by 'ipcs -l'
[1597925436.109402] [comp0803:188409:0]            sys.c:618  UCX  ERROR shmget(size=2097152 flags=0xb80) for ucp_am_bufs failed: Operation not permitted, please check shared memory limits by 'ipcs -l'
[1597925436.110009] [comp0803:188411:0]            sys.c:618  UCX  ERROR shmget(size=2097152 flags=0xb80) for ucp_am_bufs failed: Operation not permitted, please check shared memory limits by 'ipcs -l'
[1597925436.110021] [comp0803:188407:0]            sys.c:618  UCX  ERROR shmget(size=2097152 flags=0xb80) for ucp_am_bufs failed: Operation not permitted, please check shared memory limits by 'ipcs -l'
[1597925436.110716] [comp0803:188412:0]            sys.c:618  UCX  ERROR shmget(size=2097152 flags=0xb80) for ucp_am_bufs failed: Operation not permitted, please check shared memory limits by 'ipcs -l'
[1597925436.110765] [comp0803:188406:0]            sys.c:618  UCX  ERROR shmget(size=2097152 flags=0xb80) for ucp_am_bufs failed: Operation not permitted, please check shared memory limits by 'ipcs -l'
[1597925436.110762] [comp0803:188408:0]            sys.c:618  UCX  ERROR shmget(size=2097152 flags=0xb80) for ucp_am_bufs failed: Operation not permitted, please check shared memory limits by 'ipcs -l'
[1597925436.110759] [comp0803:188410:0]            sys.c:618  UCX  ERROR shmget(size=2097152 flags=0xb80) for ucp_am_bufs failed: Operation not permitted, please check shared memory limits by 'ipcs -l'
[1597925436.111352] [comp0803:188405:0]            sys.c:618  UCX  ERROR shmget(size=2097152 flags=0xb80) for ucp_am_bufs failed: Operation not permitted, please check shared memory limits by 'ipcs -l'


           ************************************************************
           *        Program running with 8 parallel MPI-processes     *
           *              working on a common directory               *
           ************************************************************
-------------------------------------------------------------------------------
                                 ORCA SCF
-------------------------------------------------------------------------------

------------
SCF SETTINGS
------------
Hamiltonian:
 Density Functional     Method          .... DFT(GTOs)
 Exchange Functional    Exchange        .... PBE
   PBE kappa parameter   XKappa         ....  0.804000
   PBE mue parameter    XMuePBE         ....  0.219520
 Correlation Functional Correlation     .... PBE
   PBE beta parameter  CBetaPBE         ....  0.066725
 LDA part of GGA corr.  LDAOpt          .... PW91-LDA
 Gradients option       PostSCFGGA      .... off
 Hybrid DFT is turned on
   Fraction HF Exchange ScalHFX         ....  0.250000
   Scaling of DF-GGA-X  ScalDFX         ....  0.750000
   Scaling of DF-GGA-C  ScalDFC         ....  1.000000
   Scaling of DF-LDA-C  ScalLDAC        ....  1.000000
   Perturbative correction              ....  0.000000
   Density functional embedding theory  .... OFF
   NL short-range parameter             ....  6.900000
 RI-approximation to the Coulomb term is turned on
   Number of auxiliary basis functions  .... 634
   RIJ-COSX (HFX calculated with COS-X)).... on


General Settings:
 Integral files         IntName         .... L6nY71_hl_neb_1-3_1-2_hess_orca
 Hartree-Fock type      HFTyp           .... RHF
 Total Charge           Charge          ....    0
 Multiplicity           Mult            ....    1
 Number of Electrons    NEL             ....  100
 Basis Dimension        Dim             ....  196
 Nuclear Repulsion      ENuc            ....    864.7213801883 Eh

Convergence Acceleration:
 DIIS                   CNVDIIS         .... on
   Start iteration      DIISMaxIt       ....    12
   Startup error        DIISStart       ....  0.200000
   # of expansion vecs  DIISMaxEq       ....     5
   Bias factor          DIISBfac        ....   1.050
   Max. coefficient     DIISMaxC        ....  10.000
 Newton-Raphson         CNVNR           .... off
 SOSCF                  CNVSOSCF        .... off
 Level Shifting         CNVShift        .... on
   Level shift para.    LevelShift      ....    0.2500
   Turn off err/grad.   ShiftErr        ....    0.0010
 Zerner damping         CNVZerner       .... off
 Static damping         CNVDamp         .... on
   Fraction old density DampFac         ....    0.7000
   Max. Damping (<1)    DampMax         ....    0.9800
   Min. Damping (>=0)   DampMin         ....    0.0000
   Turn off err/grad.   DampErr         ....    0.1000
 Fernandez-Rico         CNVRico         .... off

SCF Procedure:
 Maximum # iterations   MaxIter         ....   250
 SCF integral mode      SCFMode         .... Direct
   Integral package                     .... LIBINT
 Reset frequency        DirectResetFreq ....    20
 Integral Threshold     Thresh          ....  1.000e-10 Eh
 Primitive CutOff       TCut            ....  1.000e-11 Eh

Convergence Tolerance:
 Convergence Check Mode ConvCheckMode   .... Total+1el-Energy
 Convergence forced     ConvForced      .... 0
 Energy Change          TolE            ....  1.000e-06 Eh
 1-El. energy change                    ....  1.000e-03 Eh
 DIIS Error             TolErr          ....  1.000e-06


Diagonalization of the overlap matrix:
Smallest eigenvalue                        ... 1.418e-03
Time for diagonalization                   ...    0.007 sec
Threshold for overlap eigenvalues          ... 1.000e-08
Number of eigenvalues below threshold      ... 0
Time for construction of square roots      ...    0.005 sec
Total time needed                          ...    0.012 sec

-------------------
DFT GRID GENERATION
-------------------

General Integration Accuracy     IntAcc      ...  4.340
Radial Grid Type                 RadialGrid  ... Gauss-Chebyshev
Angular Grid (max. acc.)         AngularGrid ... Lebedev-110
Angular grid pruning method      GridPruning ... 3 (G Style)
Weight generation scheme         WeightScheme... Becke
Basis function cutoff            BFCut       ...    1.0000e-10
Integration weight cutoff        WCut        ...    1.0000e-14
Grids for H and He will be reduced by one unit

# of grid points (after initial pruning)     ...  23682 (   0.0 sec)
# of grid points (after weights+screening)   ...  22109 (   0.0 sec)
nearest neighbour list constructed           ...    0.0 sec
Grid point re-assignment to atoms done       ...    0.0 sec
Grid point division into batches done        ...    0.0 sec
Reduced shell lists constructed in    0.1 sec

Total number of grid points                  ...    22109
Total number of batches                      ...      354
Average number of points per batch           ...       62
Average number of grid points per atom       ...     1382
Average number of shells per batch           ...    63.61 (73.96%)
Average number of basis functions per batch  ...   145.57 (74.27%)
Average number of large shells per batch     ...    49.98 (78.57%)
Average number of large basis fcns per batch ...   111.15 (76.36%)
Maximum spatial batch extension              ...   2.68,  2.97,  2.48 au
Average spatial batch extension              ...   0.21,  0.21,  0.20 au

Time for grid setup =    0.103 sec

------------------------------
INITIAL GUESS: MODEL POTENTIAL
------------------------------
Loading Hartree-Fock densities                     ... done
Calculating cut-offs                               ... done
Setting up the integral package                    ... done
Initializing the effective Hamiltonian             ... done
Starting the Coulomb interaction                   ... done (   0.0 sec)
Reading the grid                                   ... done
Mapping shells                                     ... done
Starting the XC term evaluation                    ... done (   0.0 sec)
  promolecular density results
     # of electrons  =    100.002775478
     EX              =   -122.541206886
     EC              =     -3.665611822
     EX+EC           =   -126.206818708
Transforming the Hamiltonian                       ... done (   0.0 sec)
Diagonalizing the Hamiltonian                      ... done (   0.0 sec)
Back transforming the eigenvectors                 ... done (   0.0 sec)
Now organizing SCF variables                       ... done
                      ------------------
                      INITIAL GUESS DONE (   0.3 sec)
                      ------------------
--------------------
COSX GRID GENERATION
--------------------

General Integration Accuracy     IntAcc      ...  3.340
Radial Grid Type                 RadialGrid  ... Gauss-Chebyshev
Angular Grid (max. acc.)         AngularGrid ... Lebedev-50
Angular grid pruning method      GridPruning ... 3 (G Style)
Weight generation scheme         WeightScheme... Becke
Basis function cutoff            BFCut       ...    1.0000e-10
Integration weight cutoff        WCut        ...    1.0000e-14
Grids for H and He will be reduced by one unit

# of grid points (after initial pruning)     ...   8466 (   0.0 sec)
# of grid points (after weights+screening)   ...   7947 (   0.0 sec)
nearest neighbour list constructed           ...    0.0 sec
Grid point re-assignment to atoms done       ...    0.0 sec
Grid point division into batches done        ...    0.0 sec
Reduced shell lists constructed in    0.0 sec

Total number of grid points                  ...     7947
Total number of batches                      ...      131
Average number of points per batch           ...       60
Average number of grid points per atom       ...      497
Average number of shells per batch           ...    62.50 (72.67%)
Average number of basis functions per batch  ...   142.94 (72.93%)
Average number of large shells per batch     ...    48.67 (77.87%)
Average number of large basis fcns per batch ...   107.33 (75.09%)
Maximum spatial batch extension              ...   2.97,  2.85,  3.01 au
Average spatial batch extension              ...   0.25,  0.26,  0.25 au

Overlap Fitting                  UseSFitting ... on
Constructing numerical overlap ... done (      0.0 sec)
Inverting numerical overlap    ... done (      0.0 sec)
Obtaining analytic overlap     ... done (      0.0 sec)
Final contraction and storage  ... done (      0.0 sec)


General Integration Accuracy     IntAcc      ...  3.670
Radial Grid Type                 RadialGrid  ... Gauss-Chebyshev
Angular Grid (max. acc.)         AngularGrid ... Lebedev-50
Angular grid pruning method      GridPruning ... 3 (G Style)
Weight generation scheme         WeightScheme... Becke
Basis function cutoff            BFCut       ...    1.0000e-10
Integration weight cutoff        WCut        ...    1.0000e-14
Grids for H and He will be reduced by one unit

# of grid points (after initial pruning)     ...  10566 (   0.0 sec)
# of grid points (after weights+screening)   ...   9882 (   0.0 sec)
nearest neighbour list constructed           ...    0.0 sec
Grid point re-assignment to atoms done       ...    0.0 sec
Grid point division into batches done        ...    0.0 sec
Reduced shell lists constructed in    0.0 sec

Total number of grid points                  ...     9882
Total number of batches                      ...      163
Average number of points per batch           ...       60
Average number of grid points per atom       ...      618
Average number of shells per batch           ...    63.36 (73.68%)
Average number of basis functions per batch  ...   145.09 (74.03%)
Average number of large shells per batch     ...    49.23 (77.69%)
Average number of large basis fcns per batch ...   108.68 (74.91%)
Maximum spatial batch extension              ...   3.19,  3.04,  2.85 au
Average spatial batch extension              ...   0.26,  0.25,  0.25 au

Overlap Fitting                  UseSFitting ... on
Constructing numerical overlap ... done (      0.0 sec)
Inverting numerical overlap    ... done (      0.0 sec)
Obtaining analytic overlap     ... done (      0.0 sec)
Final contraction and storage  ... done (      0.0 sec)


General Integration Accuracy     IntAcc      ...  4.010
Radial Grid Type                 RadialGrid  ... Gauss-Chebyshev
Angular Grid (max. acc.)         AngularGrid ... Lebedev-110
Angular grid pruning method      GridPruning ... 3 (G Style)
Weight generation scheme         WeightScheme... Becke
Basis function cutoff            BFCut       ...    1.0000e-10
Integration weight cutoff        WCut        ...    1.0000e-14
Grids for H and He will be reduced by one unit

# of grid points (after initial pruning)     ...  20514 (   0.0 sec)
# of grid points (after weights+screening)   ...  19174 (   0.0 sec)
nearest neighbour list constructed           ...    0.0 sec
Grid point re-assignment to atoms done       ...    0.0 sec
Grid point division into batches done        ...    0.0 sec
Reduced shell lists constructed in    0.0 sec

Total number of grid points                  ...    19174
Total number of batches                      ...      308
Average number of points per batch           ...       62
Average number of grid points per atom       ...     1198
Average number of shells per batch           ...    64.28 (74.74%)
Average number of basis functions per batch  ...   147.18 (75.09%)
Average number of large shells per batch     ...    50.05 (77.87%)
Average number of large basis fcns per batch ...   111.40 (75.69%)
Maximum spatial batch extension              ...   3.07,  3.34,  2.95 au
Average spatial batch extension              ...   0.21,  0.21,  0.22 au

Overlap Fitting                  UseSFitting ... on
Constructing numerical overlap ... done (      0.0 sec)
Inverting numerical overlap    ... done (      0.0 sec)
Obtaining analytic overlap     ... done (      0.0 sec)
Final contraction and storage  ... done (      0.0 sec)

Time for X-Grid setup             =    0.183 sec
--------------
SCF ITERATIONS
--------------
ITER       Energy         Delta-E        Max-DP      RMS-DP      [F,P]     Damp
               ***  Starting incremental Fock matrix formation  ***
[1597925437.493195] [comp0803:188406:0]            sys.c:618  UCX  ERROR shmget(size=6291456 flags=0xfb0) for mm_recv_desc failed: Operation not permitted, please check shared memory limits by 'ipcs -l'
  0  -1913.7648943952   0.000000000000 0.11533870  0.00193334  0.1925391 0.7000
  1  -1913.8436427794  -0.078748384211 0.10210079  0.00143049  0.0782265 0.7000
                               ***Turning on DIIS***
  2  -1913.8740573731  -0.030414593687 0.25058813  0.00284447  0.0306587 0.0000
  3  -1913.9279597928  -0.053902419680 0.03298410  0.00086847  0.0383560 0.0000
  4  -1913.9357078570  -0.007748064238 0.03061159  0.00043082  0.0297937 0.0000
  5  -1913.9362680783  -0.000560221273 0.01460482  0.00027181  0.0258353 0.0000
  6  -1913.9372323106  -0.000964232364 0.00310587  0.00008046  0.0035330 0.0000
  7  -1913.9373317031  -0.000099392516 0.00149086  0.00003768  0.0014062 0.0000
  8  -1913.9373530274  -0.000021324279 0.00206782  0.00005421  0.0007694 0.0000
               *** Restarting incremental Fock matrix formation ***
                                   *** Resetting DIIS ***
  9  -1913.9373504957   0.000002531768 0.00210619  0.00004160  0.0006525 0.0000
 10  -1913.9373230380   0.000027457627 0.00123590  0.00002257  0.0044686 0.0000
 11  -1913.9373493704  -0.000026332346 0.00038890  0.00000897  0.0014462 0.0000
 12  -1913.9373536857  -0.000004315367 0.00032142  0.00000831  0.0004369 0.0000
 13  -1913.9373548193  -0.000001133534 0.00019407  0.00000441  0.0001870 0.0000
 14  -1913.9373555050  -0.000000685744 0.00004853  0.00000123  0.0000493 0.0000
                 **** Energy Check signals convergence ****

               *****************************************************
               *                     SUCCESS                       *
               *           SCF CONVERGED AFTER  15 CYCLES          *
               *****************************************************

Setting up the final grid:

General Integration Accuracy     IntAcc      ...  4.670
Radial Grid Type                 RadialGrid  ... Gauss-Chebyshev
Angular Grid (max. acc.)         AngularGrid ... Lebedev-302
Angular grid pruning method      GridPruning ... 3 (G Style)
Weight generation scheme         WeightScheme... Becke
Basis function cutoff            BFCut       ...    1.0000e-10
Integration weight cutoff        WCut        ...    1.0000e-14
Grids for H and He will be reduced by one unit

# of grid points (after initial pruning)     ...  88730 (   0.0 sec)
# of grid points (after weights+screening)   ...  81660 (   0.0 sec)
nearest neighbour list constructed           ...    0.0 sec
Grid point re-assignment to atoms done       ...    0.0 sec
Grid point division into batches done        ...    0.3 sec
Reduced shell lists constructed in    0.4 sec
[1597925446.526499] [comp0803:188412:0]            sys.c:618  UCX  ERROR shmget(size=6291456 flags=0xfb0) for mm_recv_desc failed: Operation not permitted, please check shared memory limits by 'ipcs -l'
[1597925446.526445] [comp0803:188411:0]            sys.c:618  UCX  ERROR shmget(size=6291456 flags=0xfb0) for mm_recv_desc failed: Operation not permitted, please check shared memory limits by 'ipcs -l'
[1597925446.529024] [comp0803:188405:0]            sys.c:618  UCX  ERROR shmget(size=6291456 flags=0xfb0) for mm_recv_desc failed: Operation not permitted, please check shared memory limits by 'ipcs -l'

Total number of grid points                  ...    81660
Total number of batches                      ...     1284
Average number of points per batch           ...       63
Average number of grid points per atom       ...     5104
Average number of shells per batch           ...    62.23 (72.37%)
Average number of basis functions per batch  ...   141.05 (71.96%)
Average number of large shells per batch     ...    48.54 (78.00%)
Average number of large basis fcns per batch ...   107.78 (76.41%)
Maximum spatial batch extension              ...   2.26,  2.33,  2.03 au
Average spatial batch extension              ...   0.13,  0.13,  0.13 au

Final grid set up in    0.4 sec
Final integration                            ... done (   0.1 sec)
Change in XC energy                          ...     0.000706063
Integrated number of electrons               ...    99.999903255
Previous integrated no of electrons          ...   100.001919992
Old exchange energy                            =    -30.753090987 Eh
New exchange energy                            =    -30.752865943 Eh
Exchange energy change after final integration =      0.000225044 Eh
Total energy after final integration           =  -1913.936424509 Eh
Final COS-X integration done in                =     0.955 sec

----------------
TOTAL SCF ENERGY
----------------

Total Energy       :        -1913.93642451 Eh          -52080.85785 eV

Components:
Nuclear Repulsion  :          864.72138019 Eh           23530.26501 eV
Electronic Energy  :        -2778.65780470 Eh          -75611.12286 eV
One Electron Energy:        -4360.32782783 Eh         -118650.55227 eV
Two Electron Energy:         1581.67002314 Eh           43039.42941 eV

Virial components:
Potential Energy   :        -3821.27815358 Eh         -103982.26492 eV
Kinetic Energy     :         1907.34172907 Eh           51901.40706 eV
Virial Ratio       :            2.00345753


DFT components:
N(Alpha)           :       49.999951627310 electrons
N(Beta)            :       49.999951627310 electrons
N(Total)           :       99.999903254621 electrons
E(X)               :      -92.458218873014 Eh       
E(C)               :       -3.704664033942 Eh       
E(XC)              :      -96.162882906956 Eh       
DFET-embed. en.    :        0.000000000000 Eh       

---------------
SCF CONVERGENCE
---------------

  Last Energy change         ...   -1.1070e-07  Tolerance :   1.0000e-06
  Last MAX-Density change    ...    0.0000e+00  Tolerance :   1.0000e-05
  Last RMS-Density change    ...    0.0000e+00  Tolerance :   1.0000e-06
  Last DIIS Error            ...    4.2142e-05  Tolerance :   1.0000e-06

             **** THE GBW FILE WAS UPDATED (L6nY71_hl_neb_1-3_1-2_hess_orca.gbw) ****
             **** DENSITY FILE WAS UPDATED (L6nY71_hl_neb_1-3_1-2_hess_orca.scfp) ****
             **** ENERGY FILE WAS UPDATED (L6nY71_hl_neb_1-3_1-2_hess_orca.en.tmp) ****
             **** THE GBW FILE WAS UPDATED (L6nY71_hl_neb_1-3_1-2_hess_orca.gbw) ****
             **** DENSITY FILE WAS UPDATED (L6nY71_hl_neb_1-3_1-2_hess_orca.scfp) ****
----------------
ORBITAL ENERGIES
----------------

  NO   OCC          E(Eh)            E(eV) 
   0   2.0000    -277.859406     -7560.9388 
   1   2.0000     -33.011870      -898.2986 
   2   2.0000     -28.640385      -779.3445 
   3   2.0000     -28.630576      -779.0776 
   4   2.0000     -28.623554      -778.8865 
   5   2.0000     -19.316225      -525.6212 
   6   2.0000     -19.302028      -525.2349 
   7   2.0000     -19.293118      -524.9924 
   8   2.0000     -19.234009      -523.3840 
   9   2.0000     -10.371931      -282.2346 
  10   2.0000     -10.361431      -281.9489 
  11   2.0000     -10.358098      -281.8582 
  12   2.0000     -10.345758      -281.5224 
  13   2.0000     -10.289274      -279.9854 
  14   2.0000     -10.256701      -279.0990 
  15   2.0000      -3.799893      -103.4003 
  16   2.0000      -2.479909       -67.4817 
  17   2.0000      -2.467023       -67.1311 
  18   2.0000      -2.452893       -66.7466 
  19   2.0000      -1.178989       -32.0819 
  20   2.0000      -1.164811       -31.6961 
  21   2.0000      -1.156569       -31.4719 
  22   2.0000      -1.095384       -29.8069 
  23   2.0000      -0.832288       -22.6477 
  24   2.0000      -0.694700       -18.9038 
  25   2.0000      -0.609507       -16.5855 
  26   2.0000      -0.589174       -16.0322 
  27   2.0000      -0.579523       -15.7696 
  28   2.0000      -0.572084       -15.5672 
  29   2.0000      -0.529952       -14.4207 
  30   2.0000      -0.502989       -13.6870 
  31   2.0000      -0.500341       -13.6150 
  32   2.0000      -0.498715       -13.5707 
  33   2.0000      -0.491038       -13.3618 
  34   2.0000      -0.486309       -13.2331 
  35   2.0000      -0.481117       -13.0918 
  36   2.0000      -0.477391       -12.9905 
  37   2.0000      -0.476111       -12.9556 
  38   2.0000      -0.471285       -12.8243 
  39   2.0000      -0.465321       -12.6620 
  40   2.0000      -0.458140       -12.4666 
  41   2.0000      -0.433086       -11.7849 
  42   2.0000      -0.411013       -11.1842 
  43   2.0000      -0.407627       -11.0921 
  44   2.0000      -0.388736       -10.5780 
  45   2.0000      -0.316564        -8.6141 
  46   2.0000      -0.297914        -8.1067 
  47   2.0000      -0.284850        -7.7512 
  48   2.0000      -0.253642        -6.9020 
  49   2.0000      -0.249809        -6.7976 
  50   0.0000      -0.072770        -1.9802 
  51   0.0000      -0.028097        -0.7646 
  52   0.0000      -0.020873        -0.5680 
  53   0.0000      -0.015242        -0.4148 
  54   0.0000      -0.010417        -0.2834 
  55   0.0000       0.001384         0.0377 
  56   0.0000       0.006504         0.1770 
  57   0.0000       0.013183         0.3587 
  58   0.0000       0.033605         0.9144 
  59   0.0000       0.089803         2.4437 
  60   0.0000       0.099491         2.7073 
  61   0.0000       0.127176         3.4606 
  62   0.0000       0.141416         3.8481 
  63   0.0000       0.144021         3.9190 
  64   0.0000       0.196433         5.3452 
  65   0.0000       0.211240         5.7481 
  66   0.0000       0.240474         6.5436 
  67   0.0000       0.265311         7.2195 
  68   0.0000       0.285263         7.7624 
  69   0.0000       0.313148         8.5212 
  70   0.0000       0.357744         9.7347 
  71   0.0000       0.360078         9.7982 
  72   0.0000       0.392952        10.6928 
  73   0.0000       0.437012        11.8917 
  74   0.0000       0.449052        12.2193 
  75   0.0000       0.461028        12.5452 
  76   0.0000       0.472977        12.8704 
  77   0.0000       0.496011        13.4971 
  78   0.0000       0.512055        13.9337 
  79   0.0000       0.514824        14.0091 
  80   0.0000       0.549928        14.9643 
  81   0.0000       0.571351        15.5473 
  82   0.0000       0.582387        15.8476 
  83   0.0000       0.595444        16.2028 
  84   0.0000       0.603446        16.4206 
  85   0.0000       0.627233        17.0679 
  86   0.0000       0.642637        17.4870 
  87   0.0000       0.655743        17.8437 
  88   0.0000       0.664766        18.0892 
  89   0.0000       0.675086        18.3700 
  90   0.0000       0.678820        18.4716 
  91   0.0000       0.694576        18.9004 
  92   0.0000       0.712017        19.3750 
  93   0.0000       0.718354        19.5474 
  94   0.0000       0.733687        19.9646 
  95   0.0000       0.743796        20.2397 
  96   0.0000       0.748442        20.3662 
  97   0.0000       0.753804        20.5120 
  98   0.0000       0.777169        21.1478 
  99   0.0000       0.791719        21.5438 
 100   0.0000       0.809440        22.0260 
 101   0.0000       0.868832        23.6421 
 102   0.0000       0.923472        25.1289 
 103   0.0000       0.953108        25.9354 
 104   0.0000       0.969317        26.3764 
 105   0.0000       0.979554        26.6550 
 106   0.0000       0.988287        26.8927 
 107   0.0000       1.016780        27.6680 
 108   0.0000       1.055301        28.7162 
 109   0.0000       1.077459        29.3192 
 110   0.0000       1.088349        29.6155 
 111   0.0000       1.092865        29.7384 
 112   0.0000       1.113594        30.3024 
 113   0.0000       1.122981        30.5579 
 114   0.0000       1.153574        31.3903 
 115   0.0000       1.169480        31.8232 
 116   0.0000       1.201575        32.6965 
 117   0.0000       1.246937        33.9309 
 118   0.0000       1.306897        35.5625 
 119   0.0000       1.355261        36.8785 
 120   0.0000       1.416203        38.5368 
 121   0.0000       1.439107        39.1601 
 122   0.0000       1.474098        40.1123 
 123   0.0000       1.506692        40.9992 
 124   0.0000       1.522426        41.4273 
 125   0.0000       1.551903        42.2294 
 126   0.0000       1.563695        42.5503 
 127   0.0000       1.592147        43.3245 
 128   0.0000       1.602438        43.6046 
 129   0.0000       1.617411        44.0120 
 130   0.0000       1.621721        44.1293 
 131   0.0000       1.631034        44.3827 
 132   0.0000       1.650242        44.9054 
 133   0.0000       1.665549        45.3219 
 134   0.0000       1.667095        45.3640 
 135   0.0000       1.700317        46.2680 
 136   0.0000       1.708904        46.5016 
 137   0.0000       1.726798        46.9886 
 138   0.0000       1.743357        47.4392 
 139   0.0000       1.753104        47.7044 
 140   0.0000       1.770031        48.1650 
 141   0.0000       1.776263        48.3346 
 142   0.0000       1.799625        48.9703 
 143   0.0000       1.801990        49.0346 
 144   0.0000       1.814982        49.3882 
 145   0.0000       1.871962        50.9387 
 146   0.0000       1.888125        51.3785 
 147   0.0000       1.903180        51.7882 
 148   0.0000       1.912155        52.0324 
 149   0.0000       1.953943        53.1695 
 150   0.0000       2.025124        55.1064 
 151   0.0000       2.042739        55.5857 
 152   0.0000       2.069115        56.3035 
 153   0.0000       2.156631        58.6849 
 154   0.0000       2.245374        61.0997 
 155   0.0000       2.290524        62.3283 
 156   0.0000       2.366393        64.3928 
 157   0.0000       2.429699        66.1155 
 158   0.0000       2.512382        68.3654 
 159   0.0000       2.550252        69.3959 
 160   0.0000       2.580252        70.2122 
 161   0.0000       2.602652        70.8218 
 162   0.0000       2.605425        70.8972 
 163   0.0000       2.608587        70.9833 
 164   0.0000       2.615155        71.1620 
 165   0.0000       2.619005        71.2668 
 166   0.0000       2.625491        71.4432 
 167   0.0000       2.628114        71.5146 
 168   0.0000       2.673401        72.7469 
 169   0.0000       2.692862        73.2765 
 170   0.0000       2.702101        73.5279 
 171   0.0000       2.754377        74.9504 
 172   0.0000       2.771024        75.4034 
 173   0.0000       2.838928        77.2512 
 174   0.0000       2.925683        79.6119 
 175   0.0000       2.962654        80.6179 
 176   0.0000       3.042171        82.7817 
 177   0.0000       3.157341        85.9156 
 178   0.0000       3.174969        86.3953 
 179   0.0000       3.178048        86.4791 
 180   0.0000       3.192067        86.8606 
 181   0.0000       3.205712        87.2319 
 182   0.0000       3.228979        87.8650 
 183   0.0000       3.272978        89.0623 
 184   0.0000       3.316436        90.2448 
 185   0.0000       3.634641        98.9036 
 186   0.0000       3.644921        99.1833 
 187   0.0000       3.656344        99.4942 
 188   0.0000       3.675468       100.0146 
 189   0.0000       4.875694       132.6744 
 190   0.0000       4.886328       132.9638 
 191   0.0000       4.900083       133.3380 
 192   0.0000       4.925302       134.0243 
 193   0.0000       4.952716       134.7702 
 194   0.0000       4.962968       135.0492 
 195   0.0000       5.036749       137.0569 

                    ********************************
                    * MULLIKEN POPULATION ANALYSIS *
                    ********************************

-----------------------
MULLIKEN ATOMIC CHARGES
-----------------------
   0 C :   -0.062916
   1 C :   -0.099992
   2 Co:   -0.672611
   3 C :    0.095508
   4 O :   -0.167288
   5 C :    0.236419
   6 O :   -0.038138
   7 C :    0.226518
   8 O :   -0.055044
   9 C :    0.171645
  10 O :   -0.031161
  11 H :    0.073284
  12 H :    0.059390
  13 H :    0.065338
  14 H :    0.098423
  15 H :    0.100624
Sum of atomic charges:    0.0000000

--------------------------------
MULLIKEN REDUCED ORBITAL CHARGES
--------------------------------
  0 C s       :     3.038719  s :     3.038719
      pz      :     0.955680  p :     2.996660
      px      :     1.030380
      py      :     1.010600
      dz2     :     0.003349  d :     0.027537
      dxz     :     0.007542
      dyz     :     0.007390
      dx2y2   :     0.001522
      dxy     :     0.007734
  1 C s       :     3.077360  s :     3.077360
      pz      :     0.925449  p :     2.987636
      px      :     1.013846
      py      :     1.048341
      dz2     :     0.005923  d :     0.034996
      dxz     :     0.009703
      dyz     :     0.007578
      dx2y2   :     0.003776
      dxy     :     0.008016
  2 Cos       :     6.567857  s :     6.567857
      pz      :     4.436394  p :    13.448555
      px      :     4.568476
      py      :     4.443686
      dz2     :     1.664078  d :     7.655403
      dxz     :     1.250210
      dyz     :     1.570107
      dx2y2   :     1.614235
      dxy     :     1.556773
      f0      :     0.000092  f :     0.000797
      f+1     :     0.000172
      f-1     :     0.000082
      f+2     :     0.000156
      f-2     :     0.000127
      f+3     :     0.000125
      f-3     :     0.000043
  3 C s       :     3.213590  s :     3.213590
      pz      :     0.892644  p :     2.594682
      px      :     0.889029
      py      :     0.813008
      dz2     :     0.020266  d :     0.096220
      dxz     :     0.025312
      dyz     :     0.011362
      dx2y2   :     0.017264
      dxy     :     0.022016
  4 O s       :     3.751342  s :     3.751342
      pz      :     1.545502  p :     4.395651
      px      :     1.375156
      py      :     1.474992
      dz2     :     0.003053  d :     0.020295
      dxz     :     0.005439
      dyz     :     0.002021
      dx2y2   :     0.005051
      dxy     :     0.004732
  5 C s       :     3.358929  s :     3.358929
      pz      :     0.679259  p :     2.319992
      px      :     0.741177
      py      :     0.899555
      dz2     :     0.006545  d :     0.084660
      dxz     :     0.006893
      dyz     :     0.022846
      dx2y2   :     0.025992
      dxy     :     0.022384
  6 O s       :     3.715108  s :     3.715108
      pz      :     1.459363  p :     4.300618
      px      :     1.451603
      py      :     1.389652
      dz2     :     0.002253  d :     0.022412
      dxz     :     0.001459
      dyz     :     0.005303
      dx2y2   :     0.006688
      dxy     :     0.006710
  7 C s       :     3.314206  s :     3.314206
      pz      :     0.824910  p :     2.372817
      px      :     0.816590
      py      :     0.731317
      dz2     :     0.024273  d :     0.086458
      dxz     :     0.017888
      dyz     :     0.015284
      dx2y2   :     0.013193
      dxy     :     0.015820
  8 O s       :     3.725433  s :     3.725433
      pz      :     1.410137  p :     4.307111
      px      :     1.417239
      py      :     1.479735
      dz2     :     0.005618  d :     0.022501
      dxz     :     0.006577
      dyz     :     0.003491
      dx2y2   :     0.003406
      dxy     :     0.003408
  9 C s       :     3.386138  s :     3.386138
      pz      :     0.746778  p :     2.359606
      px      :     0.788857
      py      :     0.823971
      dz2     :     0.016146  d :     0.082611
      dxz     :     0.012824
      dyz     :     0.015168
      dx2y2   :     0.022891
      dxy     :     0.015582
 10 O s       :     3.720387  s :     3.720387
      pz      :     1.426448  p :     4.288114
      px      :     1.445587
      py      :     1.416079
      dz2     :     0.003849  d :     0.022660
      dxz     :     0.003643
      dyz     :     0.004663
      dx2y2   :     0.005243
      dxy     :     0.005262
 11 H s       :     0.902673  s :     0.902673
      pz      :     0.007133  p :     0.024043
      px      :     0.009962
      py      :     0.006948
 12 H s       :     0.916770  s :     0.916770
      pz      :     0.005256  p :     0.023841
      px      :     0.008879
      py      :     0.009705
 13 H s       :     0.910795  s :     0.910795
      pz      :     0.008063  p :     0.023867
      px      :     0.007468
      py      :     0.008335
 14 H s       :     0.874570  s :     0.874570
      pz      :     0.010224  p :     0.027007
      px      :     0.010465
      py      :     0.006318
 15 H s       :     0.875912  s :     0.875912
      pz      :     0.004736  p :     0.023464
      px      :     0.007317
      py      :     0.011410


                     *******************************
                     * LOEWDIN POPULATION ANALYSIS *
                     *******************************

----------------------
LOEWDIN ATOMIC CHARGES
----------------------
   0 C :   -0.058187
   1 C :   -0.044431
   2 Co:   -0.591455
   3 C :    0.084723
   4 O :   -0.098208
   5 C :    0.126345
   6 O :    0.024906
   7 C :    0.143379
   8 O :    0.016591
   9 C :    0.119186
  10 O :    0.035520
  11 H :    0.041242
  12 H :    0.036538
  13 H :    0.038944
  14 H :    0.065961
  15 H :    0.058947

-------------------------------
LOEWDIN REDUCED ORBITAL CHARGES
-------------------------------
  0 C s       :     2.842948  s :     2.842948
      pz      :     1.024192  p :     3.144328
      px      :     1.062427
      py      :     1.057709
      dz2     :     0.007760  d :     0.070911
      dxz     :     0.020192
      dyz     :     0.019756
      dx2y2   :     0.003067
      dxy     :     0.020136
  1 C s       :     2.843155  s :     2.843155
      pz      :     0.979754  p :     3.114374
      px      :     1.066071
      py      :     1.068549
      dz2     :     0.012449  d :     0.086902
      dxz     :     0.025200
      dyz     :     0.019087
      dx2y2   :     0.008405
      dxy     :     0.021761
  2 Cos       :     6.375365  s :     6.375365
      pz      :     4.368604  p :    13.301050
      px      :     4.508720
      py      :     4.423726
      dz2     :     1.697241  d :     7.913381
      dxz     :     1.348935
      dyz     :     1.597428
      dx2y2   :     1.656444
      dxy     :     1.613333
      f0      :     0.000182  f :     0.001659
      f+1     :     0.000372
      f-1     :     0.000144
      f+2     :     0.000344
      f-2     :     0.000260
      f+3     :     0.000278
      f-3     :     0.000079
  3 C s       :     2.935812  s :     2.935812
      pz      :     0.959552  p :     2.768206
      px      :     0.964298
      py      :     0.844355
      dz2     :     0.041931  d :     0.211260
      dxz     :     0.061746
      dyz     :     0.022303
      dx2y2   :     0.036407
      dxy     :     0.048874
  4 O s       :     3.536933  s :     3.536933
      pz      :     1.573209  p :     4.527353
      px      :     1.473328
      py      :     1.480816
      dz2     :     0.004627  d :     0.033922
      dxz     :     0.010663
      dyz     :     0.002935
      dx2y2   :     0.007999
      dxy     :     0.007698
  5 C s       :     3.154834  s :     3.154834
      pz      :     0.698165  p :     2.539601
      px      :     0.798936
      py      :     1.042501
      dz2     :     0.017187  d :     0.179220
      dxz     :     0.012872
      dyz     :     0.042884
      dx2y2   :     0.053972
      dxy     :     0.052305
  6 O s       :     3.526422  s :     3.526422
      pz      :     1.428985  p :     4.413609
      px      :     1.464716
      py      :     1.519908
      dz2     :     0.004781  d :     0.035064
      dxz     :     0.001733
      dyz     :     0.006271
      dx2y2   :     0.010009
      dxy     :     0.012270
  7 C s       :     3.114330  s :     3.114330
      pz      :     0.908385  p :     2.559613
      px      :     0.904469
      py      :     0.746759
      dz2     :     0.046115  d :     0.182678
      dxz     :     0.047642
      dyz     :     0.029748
      dx2y2   :     0.028437
      dxy     :     0.030736
  8 O s       :     3.525971  s :     3.525971
      pz      :     1.481594  p :     4.422145
      px      :     1.483643
      py      :     1.456908
      dz2     :     0.007043  d :     0.035292
      dxz     :     0.013967
      dyz     :     0.004533
      dx2y2   :     0.005375
      dxy     :     0.004376
  9 C s       :     3.161068  s :     3.161068
      pz      :     0.787528  p :     2.548411
      px      :     0.846595
      py      :     0.914287
      dz2     :     0.029819  d :     0.171336
      dxz     :     0.028033
      dyz     :     0.033825
      dx2y2   :     0.042644
      dxy     :     0.037015
 10 O s       :     3.526351  s :     3.526351
      pz      :     1.440740  p :     4.402726
      px      :     1.479273
      py      :     1.482713
      dz2     :     0.004686  d :     0.035403
      dxz     :     0.006119
      dyz     :     0.008201
      dx2y2   :     0.006451
      dxy     :     0.009947
 11 H s       :     0.891485  s :     0.891485
      pz      :     0.020508  p :     0.067274
      px      :     0.027635
      py      :     0.019130
 12 H s       :     0.896396  s :     0.896396
      pz      :     0.015056  p :     0.067066
      px      :     0.024532
      py      :     0.027478
 13 H s       :     0.894386  s :     0.894386
      pz      :     0.023214  p :     0.066670
      px      :     0.020208
      py      :     0.023248
 14 H s       :     0.854379  s :     0.854379
      pz      :     0.033009  p :     0.079660
      px      :     0.028107
      py      :     0.018545
 15 H s       :     0.870141  s :     0.870141
      pz      :     0.014908  p :     0.070912
      px      :     0.021481
      py      :     0.034523


                      *****************************
                      * MAYER POPULATION ANALYSIS *
                      *****************************

  NA   - Mulliken gross atomic population
  ZA   - Total nuclear charge
  QA   - Mulliken gross atomic charge
  VA   - Mayer's total valence
  BVA  - Mayer's bonded valence
  FA   - Mayer's free valence

  ATOM       NA         ZA         QA         VA         BVA        FA
  0 C      6.0629     6.0000    -0.0629     3.9675     3.9675     0.0000
  1 C      6.1000     6.0000    -0.1000     3.8613     3.8613    -0.0000
  2 Co    27.6726    27.0000    -0.6726     5.6515     5.6515     0.0000
  3 C      5.9045     6.0000     0.0955     4.0011     4.0011     0.0000
  4 O      8.1673     8.0000    -0.1673     2.3830     2.3830     0.0000
  5 C      5.7636     6.0000     0.2364     3.6270     3.6270     0.0000
  6 O      8.0381     8.0000    -0.0381     2.5428     2.5428    -0.0000
  7 C      5.7735     6.0000     0.2265     3.6905     3.6905    -0.0000
  8 O      8.0550     8.0000    -0.0550     2.5440     2.5440     0.0000
  9 C      5.8284     6.0000     0.1716     3.6461     3.6461     0.0000
 10 O      8.0312     8.0000    -0.0312     2.5557     2.5557    -0.0000
 11 H      0.9267     1.0000     0.0733     0.9986     0.9986     0.0000
 12 H      0.9406     1.0000     0.0594     0.9967     0.9967    -0.0000
 13 H      0.9347     1.0000     0.0653     0.9816     0.9816     0.0000
 14 H      0.9016     1.0000     0.0984     0.9808     0.9808    -0.0000
 15 H      0.8994     1.0000     0.1006     0.9771     0.9771    -0.0000

  Mayer bond orders larger than 0.100000
B(  0-C ,  1-C ) :   1.0580 B(  0-C , 11-H ) :   0.9654 B(  0-C , 12-H ) :   0.9604 
B(  0-C , 13-H ) :   0.9662 B(  1-C ,  2-Co) :   0.2714 B(  1-C ,  3-C ) :   0.7565 
B(  1-C , 14-H ) :   0.8329 B(  1-C , 15-H ) :   0.9216 B(  2-Co,  3-C ) :   1.0425 
B(  2-Co,  4-O ) :   0.1766 B(  2-Co,  5-C ) :   1.1993 B(  2-Co,  6-O ) :   0.1284 
B(  2-Co,  7-C ) :   1.2331 B(  2-Co,  8-O ) :   0.1450 B(  2-Co,  9-C ) :   1.1642 
B(  2-Co, 10-O ) :   0.1259 B(  2-Co, 14-H ) :   0.1172 B(  3-C ,  4-O ) :   2.1195 
B(  5-C ,  6-O ) :   2.3879 B(  7-C ,  8-O ) :   2.3733 B(  9-C , 10-O ) :   2.3985 



------------------
HIRSHFELD ANALYSIS
------------------

Total integrated alpha density =     50.000959998
Total integrated beta density  =     50.000959998

  ATOM     CHARGE      SPIN    
   0 C   -0.059156    0.000000
   1 C   -0.012539    0.000000
   2 Co  -0.098499    0.000000
   3 C    0.108572    0.000000
   4 O   -0.208952    0.000000
   5 C    0.126351    0.000000
   6 O   -0.112987    0.000000
   7 C    0.127304    0.000000
   8 O   -0.116365    0.000000
   9 C    0.139360    0.000000
  10 O   -0.102765    0.000000
  11 H    0.036878    0.000000
  12 H    0.034151    0.000000
  13 H    0.036660    0.000000
  14 H    0.043782    0.000000
  15 H    0.056287    0.000000

  TOTAL  -0.001920    0.000000

-------
TIMINGS
-------

Total SCF time: 0 days 0 hours 0 min 11 sec 

Total time                  ....      11.700 sec
Sum of individual times     ....      11.402 sec  ( 97.4%)

Fock matrix formation       ....      10.354 sec  ( 88.5%)
  Split-RI-J                ....       2.128 sec  ( 20.6% of F)
  Chain of spheres X        ....       7.374 sec  ( 71.2% of F)
  COS-X 1 center corr.      ....       0.000 sec  (  0.0% of F)
  XC integration            ....       0.724 sec  (  7.0% of F)
    Basis function eval.    ....       0.220 sec  ( 30.4% of XC)
    Density eval.           ....       0.114 sec  ( 15.7% of XC)
    XC-Functional eval.     ....       0.046 sec  (  6.4% of XC)
    XC-Potential eval.      ....       0.151 sec  ( 20.9% of XC)
Diagonalization             ....       0.076 sec  (  0.6%)
Density matrix formation    ....       0.011 sec  (  0.1%)
Population analysis         ....       0.057 sec  (  0.5%)
Initial guess               ....       0.149 sec  (  1.3%)
Orbital Transformation      ....       0.000 sec  (  0.0%)
Orbital Orthonormalization  ....       0.000 sec  (  0.0%)
DIIS solution               ....       0.033 sec  (  0.3%)
Grid generation             ....       0.722 sec  (  6.2%)


-------------------------------------------------------------------------------
                          DFT DISPERSION CORRECTION                            
                                                                               
                              DFTD3 V3.1  Rev 1                                
                          USING Becke-Johnson damping                          
-------------------------------------------------------------------------------
The PBE0 functional is recognized
Active option DFTDOPT                   ...         4   

molecular C6(AA) [au] = 4171.306069 


            DFT-D V3
 parameters
 s6 scaling factor         :     1.0000 
 a1 scaling factor         :     0.4145 
 s8 scaling factor         :     1.2177 
 a2 scaling factor         :     4.8593 
 ad hoc parameters k1-k3   :    16.0000     1.3333    -4.0000 

 Edisp/kcal,au: -10.352866604839  -0.016498341345 
 E6   /kcal   :  -6.108636785 
 E8   /kcal   :  -4.244229820 
 % E8         :  40.995696958 

-------------------------   ----------------
Dispersion correction           -0.016498341
-------------------------   ----------------


-------------------------   --------------------
FINAL SINGLE POINT ENERGY     -1913.952922849994
-------------------------   --------------------


                            ***************************************
                            *     ORCA property calculations      *
                            ***************************************

                                    ---------------------
                                    Active property flags
                                    ---------------------
   (+) Dipole Moment


------------------------------------------------------------------------------
                       ORCA ELECTRIC PROPERTIES CALCULATION
------------------------------------------------------------------------------

Dipole Moment Calculation                       ... on
Quadrupole Moment Calculation                   ... off
Polarizability Calculation                      ... off
GBWName                                         ... L6nY71_hl_neb_1-3_1-2_hess_orca.gbw
Electron density file                           ... L6nY71_hl_neb_1-3_1-2_hess_orca.scfp
The origin for moment calculation is the CENTER OF MASS  = (-1.131660, -1.577310  0.466647)

-------------
DIPOLE MOMENT
-------------
                                X             Y             Z
Electronic contribution:     -1.77197      -1.81441      13.00107
Nuclear contribution   :      2.66542       2.55640     -13.51451
                        -----------------------------------------
Total Dipole Moment    :      0.89345       0.74199      -0.51344
                        -----------------------------------------
Magnitude (a.u.)       :      1.26981
Magnitude (Debye)      :      3.22760



--------------------
Rotational spectrum 
--------------------
 
Rotational constants in cm-1:     0.034299     0.025978     0.023139 
Rotational constants in MHz :  1028.252283   778.798604   693.697955 

 Dipole components along the rotational axes: 
x,y,z [a.u.] :    -0.290072     1.050834     0.651170 
x,y,z [Debye]:    -0.737304     2.671009     1.655142 

 
[1597925448.958186] [comp0803:188483:0]            sys.c:618  UCX  ERROR shmget(size=2097152 flags=0xfb0) for mm_recv_desc failed: Operation not permitted, please check shared memory limits by 'ipcs -l'
[1597925448.978432] [comp0803:188487:0]            sys.c:618  UCX  ERROR shmget(size=2097152 flags=0xfb0) for mm_recv_desc failed: Operation not permitted, please check shared memory limits by 'ipcs -l'
[1597925448.980412] [comp0803:188492:0]            sys.c:618  UCX  ERROR shmget(size=2097152 flags=0xfb0) for mm_recv_desc failed: Operation not permitted, please check shared memory limits by 'ipcs -l'
[1597925448.997249] [comp0803:188489:0]            sys.c:618  UCX  ERROR shmget(size=2097152 flags=0xfb0) for mm_recv_desc failed: Operation not permitted, please check shared memory limits by 'ipcs -l'
[1597925448.997345] [comp0803:188488:0]            sys.c:618  UCX  ERROR shmget(size=2097152 flags=0xfb0) for mm_recv_desc failed: Operation not permitted, please check shared memory limits by 'ipcs -l'
[1597925449.008385] [comp0803:188486:0]            sys.c:618  UCX  ERROR shmget(size=2097152 flags=0xfb0) for mm_recv_desc failed: Operation not permitted, please check shared memory limits by 'ipcs -l'
[1597925449.008535] [comp0803:188491:0]            sys.c:618  UCX  ERROR shmget(size=2097152 flags=0xfb0) for mm_recv_desc failed: Operation not permitted, please check shared memory limits by 'ipcs -l'
[1597925449.023327] [comp0803:188493:0]            sys.c:618  UCX  ERROR shmget(size=2097152 flags=0xfb0) for mm_recv_desc failed: Operation not permitted, please check shared memory limits by 'ipcs -l'
[1597925449.035108] [comp0803:188489:0]            sys.c:618  UCX  ERROR shmget(size=2097152 flags=0xb80) for ucp_am_bufs failed: Operation not permitted, please check shared memory limits by 'ipcs -l'
[1597925449.035486] [comp0803:188483:0]            sys.c:618  UCX  ERROR shmget(size=2097152 flags=0xb80) for ucp_am_bufs failed: Operation not permitted, please check shared memory limits by 'ipcs -l'
[1597925449.035496] [comp0803:188492:0]            sys.c:618  UCX  ERROR shmget(size=2097152 flags=0xb80) for ucp_am_bufs failed: Operation not permitted, please check shared memory limits by 'ipcs -l'
[1597925449.035497] [comp0803:188486:0]            sys.c:618  UCX  ERROR shmget(size=2097152 flags=0xb80) for ucp_am_bufs failed: Operation not permitted, please check shared memory limits by 'ipcs -l'
[1597925449.035488] [comp0803:188487:0]            sys.c:618  UCX  ERROR shmget(size=2097152 flags=0xb80) for ucp_am_bufs failed: Operation not permitted, please check shared memory limits by 'ipcs -l'
[1597925449.036261] [comp0803:188488:0]            sys.c:618  UCX  ERROR shmget(size=2097152 flags=0xb80) for ucp_am_bufs failed: Operation not permitted, please check shared memory limits by 'ipcs -l'
[1597925449.036264] [comp0803:188493:0]            sys.c:618  UCX  ERROR shmget(size=2097152 flags=0xb80) for ucp_am_bufs failed: Operation not permitted, please check shared memory limits by 'ipcs -l'
[1597925449.036836] [comp0803:188491:0]            sys.c:618  UCX  ERROR shmget(size=2097152 flags=0xb80) for ucp_am_bufs failed: Operation not permitted, please check shared memory limits by 'ipcs -l'


           ************************************************************
           *        Program running with 8 parallel MPI-processes     *
           *              working on a common directory               *
           ************************************************************
[1597925449.062113] [comp0803:188487:0]            sys.c:618  UCX  ERROR shmget(size=6291456 flags=0xfb0) for mm_recv_desc failed: Operation not permitted, please check shared memory limits by 'ipcs -l'

-------------------------------------------------------------------------------
                               ORCA SCF HESSIAN
-------------------------------------------------------------------------------

Hessian of the Kohn-Sham DFT energy:
Kohn-Sham wavefunction type                      ... RKS
Hartree-Fock exchange scaling                    ...    0.250
Number of operators                              ...    1
Number of atoms                                  ...   16
Basis set dimensions                             ...  196
Integral neglect threshold                       ... 1.0e-10
Integral primitive cutoff                        ... 1.0e-11

Setting up DFT Hessian calculations              ... 
Electron density on the grid                     ... found on disk
Electron density on the final grid               ... found on disk
Building xc-kernel on the grid                   ... done   (      0.0 sec)
Building xc-kernel on the final grid             ... done   (      0.0 sec)
                                                     done   (      0.1 sec)

Nuclear repulsion Hessian                        ... done   (      0.0 sec)

----------------------------------------------
Forming right-hand sides of CP-SCF equations     ...
----------------------------------------------
One electron integral derivatives                ... done   (      0.3 sec)
Transforming the overlap derivative matrices     ... done   (      0.0 sec)
[1597925449.729781] [comp0803:188489:0]            sys.c:618  UCX  ERROR shmget(size=6291456 flags=0xfb0) for mm_recv_desc failed: Operation not permitted, please check shared memory limits by 'ipcs -l'
[1597925449.729844] [comp0803:188491:0]            sys.c:618  UCX  ERROR shmget(size=6291456 flags=0xfb0) for mm_recv_desc failed: Operation not permitted, please check shared memory limits by 'ipcs -l'
[1597925449.731617] [comp0803:188488:0]            sys.c:618  UCX  ERROR shmget(size=6291456 flags=0xfb0) for mm_recv_desc failed: Operation not permitted, please check shared memory limits by 'ipcs -l'
[1597925449.736553] [comp0803:188492:0]            sys.c:618  UCX  ERROR shmget(size=6291456 flags=0xfb0) for mm_recv_desc failed: Operation not permitted, please check shared memory limits by 'ipcs -l'
[1597925449.739320] [comp0803:188493:0]            sys.c:618  UCX  ERROR shmget(size=6291456 flags=0xfb0) for mm_recv_desc failed: Operation not permitted, please check shared memory limits by 'ipcs -l'
[1597925449.743270] [comp0803:188483:0]            sys.c:618  UCX  ERROR shmget(size=6291456 flags=0xfb0) for mm_recv_desc failed: Operation not permitted, please check shared memory limits by 'ipcs -l'
Making the Q(x) pseudodensities                  ... [1597925449.754324] [comp0803:188486:0]            sys.c:618  UCX  ERROR shmget(size=6291456 flags=0xfb0) for mm_recv_desc failed: Operation not permitted, please check shared memory limits by 'ipcs -l'
done   (      0.0 sec)
Adding the E*S(x)*S(y) terms to the Hessian      ... done   (      0.0 sec)
Calculating energy weighted overlap derivatives  ... done   (      0.0 sec)
Two electron integral derivatives (RI)           ... done   (      5.2 sec)
Exchange-correlation integral derivatives        ... done   (      6.2 sec)
tr(F(y)Q(x)) contribution to the Hessian         ... done   (      0.0 sec)
Response fock operator R(S(x)) (RIJCOSX)         ... done   (      5.6 sec)
XC Response fock operator R(S(x))                ... done   (      2.3 sec)
tr(F(y)S(x)) contribution to the Hessian         ... done   (      0.0 sec)
Transforming and finalizing RHSs                 ... done   (      0.0 sec)

----------------------------------------------
Solving the CP-SCF equations (RIJCOSX)           ...
----------------------------------------------
     CP-SCF ITERATION   0: 
     CP-SCF ITERATION   1:      0.112022951008
     CP-SCF ITERATION   2:      0.006977858532
     CP-SCF ITERATION   3:      0.001849799724
     CP-SCF ITERATION   4:      0.000429780562
     CP-SCF ITERATION   5:      0.000081288728
     CP-SCF ITERATION   6:      0.000011278241
     CP-SCF ITERATION   7:      0.000002147429
     CP-SCF ITERATION   8:      0.000000978062

                                                 ... done   (     30.3 sec)
Forming perturbed density Hessian contributions  ... done   (      0.0 sec)
2nd integral derivative contribs (RI)            ... done   (     25.9 sec)
Exchange-correlation Hessian                     ... done   (      5.1 sec)
Dispersion correction in the Hessian             ... done   (      0.4 sec)
Dipol derivatives                                ... done   (      0.3 sec)

Total SCF Hessian time: 0 days 0 hours 1 min 22 sec 

Writing the Hessian file to the disk             ... done


Maximum memory used throughout the entire calculation: 190.0 MB

-----------------------
VIBRATIONAL FREQUENCIES
-----------------------

Scaling factor for frequencies =  1.000000000  (already applied!)

   0:         0.00 cm**-1
   1:         0.00 cm**-1
   2:         0.00 cm**-1
   3:         0.00 cm**-1
   4:         0.00 cm**-1
   5:         0.00 cm**-1
   6:        39.40 cm**-1
   7:        70.20 cm**-1
   8:        82.72 cm**-1
   9:        88.29 cm**-1
  10:        92.37 cm**-1
  11:       102.30 cm**-1
  12:       142.11 cm**-1
  13:       200.45 cm**-1
  14:       272.54 cm**-1
  15:       300.87 cm**-1
  16:       345.05 cm**-1
  17:       365.78 cm**-1
  18:       396.08 cm**-1
  19:       412.71 cm**-1
  20:       442.75 cm**-1
  21:       478.80 cm**-1
  22:       508.77 cm**-1
  23:       519.69 cm**-1
  24:       548.39 cm**-1
  25:       569.04 cm**-1
  26:       586.43 cm**-1
  27:       674.50 cm**-1
  28:       726.17 cm**-1
  29:       827.20 cm**-1
  30:       987.71 cm**-1
  31:      1063.58 cm**-1
  32:      1082.90 cm**-1
  33:      1245.22 cm**-1
  34:      1292.70 cm**-1
  35:      1387.39 cm**-1
  36:      1410.62 cm**-1
  37:      1463.35 cm**-1
  38:      1472.54 cm**-1
  39:      1928.48 cm**-1
  40:      2145.47 cm**-1
  41:      2151.56 cm**-1
  42:      2213.02 cm**-1
  43:      2927.73 cm**-1
  44:      3062.96 cm**-1
  45:      3113.83 cm**-1
  46:      3163.10 cm**-1
  47:      3170.93 cm**-1


------------
NORMAL MODES
------------

These modes are the Cartesian displacements weighted by the diagonal matrix
M(i,i)=1/sqrt(m[i]) where m[i] is the mass of the displaced atom
Thus, these vectors are normalized but *not* orthogonal

                  0          1          2          3          4          5    
      0       0.000000   0.000000   0.000000   0.000000   0.000000   0.000000
      1       0.000000   0.000000   0.000000   0.000000   0.000000   0.000000
      2       0.000000   0.000000   0.000000   0.000000   0.000000   0.000000
      3       0.000000   0.000000   0.000000   0.000000   0.000000   0.000000
      4       0.000000   0.000000   0.000000   0.000000   0.000000   0.000000
      5       0.000000   0.000000   0.000000   0.000000   0.000000   0.000000
      6       0.000000   0.000000   0.000000   0.000000   0.000000   0.000000
      7       0.000000   0.000000   0.000000   0.000000   0.000000   0.000000
      8       0.000000   0.000000   0.000000   0.000000   0.000000   0.000000
      9       0.000000   0.000000   0.000000   0.000000   0.000000   0.000000
     10       0.000000   0.000000   0.000000   0.000000   0.000000   0.000000
     11       0.000000   0.000000   0.000000   0.000000   0.000000   0.000000
[...]
     20      -0.000050   0.000091   0.000221  -0.003614   0.017997  -0.017220
     21      -0.001444   0.000390  -0.000122   0.041446   0.449809   0.157564
     22      -0.000031  -0.000125  -0.000042   0.010030   0.095936   0.025969
     23       0.000401  -0.000147  -0.000112  -0.043582  -0.451643  -0.157777
     24       0.001312  -0.000404   0.000174  -0.031550  -0.319265  -0.109429
     25       0.000231  -0.000047   0.000056  -0.007263  -0.070181  -0.021604
     26      -0.001164   0.000347  -0.000159   0.031198   0.324162   0.111059
     27       0.001430  -0.000304  -0.000005  -0.027743   0.062959   0.351792
     28       0.002016  -0.000576   0.000032  -0.043917   0.083857   0.425247
     29      -0.001787   0.000159   0.000025  -0.012106   0.059633   0.303395
     30      -0.001473   0.000420   0.000070   0.024256  -0.047025  -0.256440
     31      -0.001901   0.000545   0.000095   0.032480  -0.060150  -0.311386
     32      -0.001022   0.000431   0.000033   0.017692  -0.042224  -0.219111
     33      -0.134103  -0.282594   0.132658  -0.078664  -0.000296   0.003872
     34       0.043717  -0.025248  -0.588928   0.009272  -0.000883  -0.001202
     35       0.082591   0.348841   0.341164   0.077473  -0.000146  -0.001937
     36       0.086205   0.405293  -0.333672   0.009033  -0.005903   0.007780
     37       0.134005   0.241938  -0.393623   0.006636  -0.005065   0.005132
     38       0.099532  -0.312341  -0.260224   0.006569   0.008911  -0.009278
     39       0.103273   0.562170   0.062181   0.031629  -0.007710   0.006814
     40       0.044806  -0.187781   0.285524   0.018518   0.010416  -0.004723
     41       0.117523   0.289763   0.299137   0.026500   0.006777   0.001648
     42       0.027483   0.038837  -0.015419   0.012927   0.006293  -0.007344
     43      -0.603657   0.082831  -0.038812   0.028357   0.001785   0.008582
     44       0.341840  -0.125960   0.045212  -0.133106   0.002231  -0.001844
     45      -0.357834   0.042469  -0.051524   0.018931   0.000174  -0.000041
     46      -0.327097   0.068940  -0.001476   0.003502  -0.001917   0.002636
     47      -0.430355   0.093526   0.023987   0.006860  -0.017386   0.016836
                 42         43         44         45         46         47    
      0      -0.001055  -0.001741   0.016571   0.006924   0.086203   0.003932
      1       0.003972  -0.001495  -0.026121  -0.007345   0.016948   0.079311
      2      -0.000454  -0.001805  -0.039919   0.006237   0.031577  -0.049668
      3      -0.001221   0.048594  -0.000696  -0.047930   0.005558  -0.004362
      4       0.000475   0.032534  -0.000002   0.064262  -0.003713   0.007053
      5      -0.004407   0.046939   0.000596  -0.029332   0.004637  -0.002799
      6      -0.002571   0.000623  -0.000020  -0.000057  -0.000006   0.000027
      7      -0.002529   0.000655   0.000043  -0.000166   0.000012  -0.000041
      8       0.002329  -0.000303  -0.000003   0.000149  -0.000002  -0.000010
      9       0.085319   0.004594  -0.000817  -0.000297   0.000604  -0.000311
     10       0.024446   0.002909  -0.000666   0.000468   0.000266   0.000051
     11       0.068335   0.000325   0.000289  -0.000471   0.000397   0.000162
     12      -0.054358  -0.002939   0.000336   0.000126  -0.000404  -0.000052
     13      -0.018700  -0.001454   0.000210  -0.000085  -0.000211  -0.000045
     14      -0.034990  -0.000958   0.000147   0.000094  -0.000316   0.000008
     15      -0.213691   0.000062   0.000164  -0.000020   0.000012  -0.000030
     16       0.413512  -0.000673  -0.000327   0.000050   0.000041   0.000033
     17       0.030031   0.000331  -0.000070   0.000001   0.000004   0.000071
     18       0.151418  -0.000071  -0.000117  -0.000005   0.000009   0.000026
     19      -0.290686   0.000276   0.000196  -0.000014  -0.000012  -0.000033
     20      -0.018571  -0.000090   0.000033   0.000001   0.000019  -0.000032
     21       0.312208  -0.000048  -0.000196  -0.000167   0.000031  -0.000067
     22       0.062253  -0.000241  -0.000038   0.000042   0.000036  -0.000042
     23      -0.306917  -0.000174   0.000202   0.000177  -0.000048   0.000061
     24      -0.214312   0.000024   0.000117   0.000079  -0.000019   0.000035
     25      -0.046007   0.000073   0.000024  -0.000001  -0.000015   0.000013
     26       0.216013   0.000007  -0.000128  -0.000085   0.000024  -0.000039
     27      -0.272603  -0.000383   0.000149   0.000217   0.000021   0.000064
     28      -0.331532  -0.000847   0.000150   0.000211  -0.000004   0.000106
     29      -0.235101   0.001460   0.000123  -0.000035   0.000101   0.000005
     30       0.194697   0.000148  -0.000089  -0.000069  -0.000011  -0.000043
     31       0.238195   0.000259  -0.000119  -0.000088   0.000006  -0.000056
     32       0.165949  -0.000123  -0.000074  -0.000021  -0.000015  -0.000014
     33       0.010436   0.024074   0.440178  -0.034501  -0.548135  -0.073920
     34       0.001265   0.015538   0.276168  -0.022762  -0.354251  -0.034617
     35      -0.001845   0.021689   0.325876  -0.023438  -0.417049  -0.063697
     36      -0.004872   0.003318  -0.349660  -0.067111  -0.317809   0.409385
     37       0.006409  -0.007824   0.387061   0.075141   0.368013  -0.440249
     38       0.000772   0.002200  -0.193601  -0.038033  -0.173493   0.213770
     39       0.001233   0.005712  -0.277894   0.024824  -0.161319  -0.381027
     40      -0.018841   0.006155  -0.357075   0.028733  -0.218248  -0.471485
     41      -0.013816  -0.006613   0.326712  -0.023724   0.209048   0.442497
     42      -0.014939  -0.716250   0.008096   0.085220  -0.029899   0.004386
     43      -0.038216  -0.319149   0.002096   0.047574  -0.014486   0.002318
     44       0.043472  -0.597755   0.007609   0.069217  -0.030780   0.003407
     45       0.014050   0.083167  -0.004314   0.484618  -0.037093   0.049353
     46      -0.005484  -0.103125   0.006044  -0.803381   0.060194  -0.082504
     47      -0.032786   0.055737  -0.003971   0.286564  -0.019979   0.027477


-----------
IR SPECTRUM
-----------

 Mode    freq (cm**-1)   T**2         TX         TY         TZ
-------------------------------------------------------------------
   6:        39.40    2.675948  (  0.633843  -1.462470  -0.367928)
   7:        70.20    0.336754  (  0.122540  -0.375027  -0.425550)
   8:        82.72    0.169368  ( -0.143254   0.264518  -0.280849)
   9:        88.29    0.316966  ( -0.192310   0.451593  -0.275766)
  10:        92.37    0.552374  (  0.017198  -0.382046   0.637275)
  11:       102.30    0.549717  (  0.001254  -0.621275   0.404639)
  12:       142.11    0.660705  ( -0.004670   0.236037  -0.777798)
  13:       200.45    0.782311  (  0.117775   0.510198  -0.712838)
  14:       272.54    3.624987  ( -1.014211  -0.099783   1.608230)
  15:       300.87    0.772201  ( -0.410411   0.721964   0.287284)
  16:       345.05    1.278756  (  0.454912   0.469149   0.922882)
  17:       365.78    2.985706  ( -0.990846  -0.571747  -1.295004)
  18:       396.08    3.509617  ( -1.448120   0.728469   0.939095)
  19:       412.71    0.350624  ( -0.493187  -0.112518   0.307783)
  20:       442.75    2.456665  ( -0.943501  -0.994401   0.760025)
  21:       478.80   15.203101  (  0.721379  -3.786643  -0.586557)
  22:       508.77   16.375571  ( -3.345504  -0.252940  -2.262564)
  23:       519.69   11.101062  (  0.817108   0.184705  -3.224791)
  24:       548.39   66.811836  (  6.357326  -0.105924   5.136635)
  25:       569.04   35.307415  ( -2.221617   1.244840   5.368632)
  26:       586.43   46.058516  (  0.670085   6.625916  -1.306424)
  27:       674.50   31.553271  (  3.612588  -1.325245  -4.092213)
  28:       726.17   23.363142  ( -3.591331  -2.814186   1.595570)
  29:       827.20   46.615210  ( -1.007283   3.230944  -5.929721)
  30:       987.71    2.347038  (  0.496573   0.840588  -1.180620)
  31:      1063.58    5.151237  (  1.245419  -0.188876   1.887987)
  32:      1082.90   75.940611  (  0.643502  -2.001830   8.456902)
  33:      1245.22   25.662768  ( -1.154691   1.165876  -4.792723)
  34:      1292.70    5.298200  ( -1.289831  -0.941486   1.657751)
  35:      1387.39   10.077654  ( -0.229293  -3.114858  -0.568099)
  36:      1410.62   32.457516  ( -1.486573  -3.540131   4.208930)
  37:      1463.35   19.384001  (  4.270115   0.680111   0.829196)
  38:      1472.54    7.407465  ( -0.383239  -2.299721   1.404235)
  39:      1928.48  795.728844  (-18.905304  -2.176713 -20.822589)
  40:      2145.47  1072.617241  ( 27.516148 -10.372597 -14.418325)
  41:      2151.56  957.723976  ( 11.161174  27.825466   7.674347)
  42:      2213.02  326.744342  ( -4.342860   3.998105 -17.085054)
  43:      2927.73    3.622578  ( -1.582784   0.131155   1.048890)
  44:      3062.96   17.976961  (  1.891286  -0.818234  -3.705468)
  45:      3113.83    0.478272  ( -0.367312   0.559508  -0.174082)
  46:      3163.10    3.289262  (  1.606947   0.022559   0.840521)
  47:      3170.93    6.265659  (  0.347744   1.970450  -1.504014)

The first frequency considered to be a vibration is 6
The total number of vibrations considered is 42


--------------------------
THERMOCHEMISTRY AT 298.15K
--------------------------

Temperature         ... 298.15 K
Pressure            ... 1.00 atm
Total Mass          ... 200.03 AMU

Throughout the following assumptions are being made:
  (1) The electronic state is orbitally nondegenerate
  (2) There are no thermally accessible electronically excited states
  (3) Hindered rotations indicated by low frequency modes are not
      treated as such but are treated as vibrations and this may
      cause some error
  (4) All equations used are the standard statistical mechanics
      equations for an ideal gas
  (5) All vibrations are strictly harmonic

freq.      39.40  E(vib)   ...       0.54 
freq.      70.20  E(vib)   ...       0.50 
freq.      82.72  E(vib)   ...       0.48 
freq.      88.29  E(vib)   ...       0.48 
freq.      92.37  E(vib)   ...       0.47 
freq.     102.30  E(vib)   ...       0.46 
freq.     142.11  E(vib)   ...       0.41 
freq.     200.45  E(vib)   ...       0.35 
freq.     272.54  E(vib)   ...       0.29 
freq.     300.87  E(vib)   ...       0.26 
freq.     345.05  E(vib)   ...       0.23 
freq.     365.78  E(vib)   ...       0.22 
freq.     396.08  E(vib)   ...       0.20 
freq.     412.71  E(vib)   ...       0.19 
freq.     442.75  E(vib)   ...       0.17 
freq.     478.80  E(vib)   ...       0.15 
freq.     508.77  E(vib)   ...       0.14 
freq.     519.69  E(vib)   ...       0.13 
freq.     548.39  E(vib)   ...       0.12 
freq.     569.04  E(vib)   ...       0.11 
freq.     586.43  E(vib)   ...       0.11 
freq.     674.50  E(vib)   ...       0.08 
freq.     726.17  E(vib)   ...       0.06 
freq.     827.20  E(vib)   ...       0.04 
freq.     987.71  E(vib)   ...       0.02 
freq.    1063.58  E(vib)   ...       0.02 
freq.    1082.90  E(vib)   ...       0.02 
freq.    1245.22  E(vib)   ...       0.01 
freq.    1292.70  E(vib)   ...       0.01 
freq.    1387.39  E(vib)   ...       0.00 
freq.    1410.62  E(vib)   ...       0.00 
freq.    1463.35  E(vib)   ...       0.00 
freq.    1472.54  E(vib)   ...       0.00 
freq.    1928.48  E(vib)   ...       0.00 
freq.    2145.47  E(vib)   ...       0.00 
freq.    2151.56  E(vib)   ...       0.00 
freq.    2213.02  E(vib)   ...       0.00 
freq.    2927.73  E(vib)   ...       0.00 
freq.    3062.96  E(vib)   ...       0.00 
freq.    3113.83  E(vib)   ...       0.00 
freq.    3163.10  E(vib)   ...       0.00 
freq.    3170.93  E(vib)   ...       0.00 

------------
INNER ENERGY
------------

The inner energy is: U= E(el) + E(ZPE) + E(vib) + E(rot) + E(trans)
    E(el)   - is the total energy from the electronic structure calculation
              = E(kin-el) + E(nuc-el) + E(el-el) + E(nuc-nuc)
    E(ZPE)  - the the zero temperature vibrational energy from the frequency calculation
    E(vib)  - the the finite temperature correction to E(ZPE) due to population
              of excited vibrational states
    E(rot)  - is the rotational thermal energy
    E(trans)- is the translational thermal energy

Summary of contributions to the inner energy U:
Electronic energy                ...  -1913.95292285 Eh
Zero point energy                ...      0.10041185 Eh      63.01 kcal/mol
Thermal vibrational correction   ...      0.00998756 Eh       6.27 kcal/mol
Thermal rotational correction    ...      0.00141627 Eh       0.89 kcal/mol
Thermal translational correction ...      0.00141627 Eh       0.89 kcal/mol
-----------------------------------------------------------------------
Total thermal energy                  -1913.83969090 Eh


Summary of corrections to the electronic energy:
(perhaps to be used in another calculation)
Total thermal correction                  0.01282010 Eh       8.04 kcal/mol
Non-thermal (ZPE) correction              0.10041185 Eh      63.01 kcal/mol
-----------------------------------------------------------------------
Total correction                          0.11323195 Eh      71.05 kcal/mol


--------
ENTHALPY
--------

The enthalpy is H = U + kB*T
                kB is Boltzmann's constant
Total free energy                 ...  -1913.83969090 Eh 
Thermal Enthalpy correction       ...      0.00094421 Eh       0.59 kcal/mol
-----------------------------------------------------------------------
Total Enthalpy                    ...  -1913.83874669 Eh


Note: Only C1 symmetry has been detected, increase convergence thresholds 
      if your molecule has a higher symmetry. Symmetry factor of 1.0 is   
      used for the rotational entropy correction. 
 

Note: Rotational entropy computed according to Herzberg 
Infrared and Raman Spectra, Chapter V,1, Van Nostrand Reinhold, 1945 
Point Group:  C1, Symmetry Number:   1  
Rotational constants in cm-1:     0.034299     0.025978     0.023139 

Vibrational entropy computed according to the QRRHO of S. Grimme
Chem.Eur.J. 2012 18 9955


-------
ENTROPY
-------

The entropy contributions are T*S = T*(S(el)+S(vib)+S(rot)+S(trans))
     S(el)   - electronic entropy
     S(vib)  - vibrational entropy
     S(rot)  - rotational entropy
     S(trans)- translational entropy
The entropies will be listed as mutliplied by the temperature to get
units of energy

Electronic entropy                ...      0.00000000 Eh      0.00 kcal/mol
Vibrational entropy               ...      0.01787839 Eh     11.22 kcal/mol
Rotational entropy                ...      0.01460437 Eh      9.16 kcal/mol
Translational entropy             ...      0.01985315 Eh     12.46 kcal/mol
-----------------------------------------------------------------------
Final entropy term                ...      0.05233591 Eh     32.84 kcal/mol

In case the symmetry of your molecule has not been determined correctly
or in case you have a reason to use a different symmetry number we print 
out the resulting rotational entropy values for sn=1,12 :
 --------------------------------------------------------
|  sn= 1 | S(rot)=       0.01460437 Eh      9.16 kcal/mol|
|  sn= 2 | S(rot)=       0.01394992 Eh      8.75 kcal/mol|
|  sn= 3 | S(rot)=       0.01356708 Eh      8.51 kcal/mol|
|  sn= 4 | S(rot)=       0.01329546 Eh      8.34 kcal/mol|
|  sn= 5 | S(rot)=       0.01308477 Eh      8.21 kcal/mol|
|  sn= 6 | S(rot)=       0.01291263 Eh      8.10 kcal/mol|
|  sn= 7 | S(rot)=       0.01276708 Eh      8.01 kcal/mol|
|  sn= 8 | S(rot)=       0.01264100 Eh      7.93 kcal/mol|
|  sn= 9 | S(rot)=       0.01252979 Eh      7.86 kcal/mol|
|  sn=10 | S(rot)=       0.01243032 Eh      7.80 kcal/mol|
|  sn=11 | S(rot)=       0.01234033 Eh      7.74 kcal/mol|
|  sn=12 | S(rot)=       0.01225817 Eh      7.69 kcal/mol|
 --------------------------------------------------------


-------------------
GIBBS FREE ENERGY
-------------------

The Gibbs free energy is G = H - T*S

Total enthalpy                    ...  -1913.83874669 Eh 
Total entropy correction          ...     -0.05233591 Eh    -32.84 kcal/mol
-----------------------------------------------------------------------
Final Gibbs free energy         ...  -1913.89108260 Eh

For completeness - the Gibbs free energy minus the electronic energy
G-E(el)                           ...      0.06184025 Eh     38.81 kcal/mol

[1597925532.785019] [comp0803:188554:0]            sys.c:618  UCX  ERROR shmget(size=2097152 flags=0xfb0) for mm_recv_desc failed: Operation not permitted, please check shared memory limits by 'ipcs -l'
[1597925532.795509] [comp0803:188552:0]            sys.c:618  UCX  ERROR shmget(size=2097152 flags=0xfb0) for mm_recv_desc failed: Operation not permitted, please check shared memory limits by 'ipcs -l'
[1597925532.795980] [comp0803:188553:0]            sys.c:618  UCX  ERROR shmget(size=2097152 flags=0xfb0) for mm_recv_desc failed: Operation not permitted, please check shared memory limits by 'ipcs -l'
[1597925532.795960] [comp0803:188558:0]            sys.c:618  UCX  ERROR shmget(size=2097152 flags=0xfb0) for mm_recv_desc failed: Operation not permitted, please check shared memory limits by 'ipcs -l'
[1597925532.799228] [comp0803:188556:0]            sys.c:618  UCX  ERROR shmget(size=2097152 flags=0xfb0) for mm_recv_desc failed: Operation not permitted, please check shared memory limits by 'ipcs -l'
[1597925532.800626] [comp0803:188555:0]            sys.c:618  UCX  ERROR shmget(size=2097152 flags=0xfb0) for mm_recv_desc failed: Operation not permitted, please check shared memory limits by 'ipcs -l'
[1597925532.814006] [comp0803:188557:0]            sys.c:618  UCX  ERROR shmget(size=2097152 flags=0xfb0) for mm_recv_desc failed: Operation not permitted, please check shared memory limits by 'ipcs -l'
[1597925532.816731] [comp0803:188559:0]            sys.c:618  UCX  ERROR shmget(size=2097152 flags=0xfb0) for mm_recv_desc failed: Operation not permitted, please check shared memory limits by 'ipcs -l'
[1597925532.837196] [comp0803:188552:0]            sys.c:618  UCX  ERROR shmget(size=2097152 flags=0xb80) for ucp_am_bufs failed: Operation not permitted, please check shared memory limits by 'ipcs -l'
[1597925532.837846] [comp0803:188556:0]            sys.c:618  UCX  ERROR shmget(size=2097152 flags=0xb80) for ucp_am_bufs failed: Operation not permitted, please check shared memory limits by 'ipcs -l'
[1597925532.837830] [comp0803:188558:0]            sys.c:618  UCX  ERROR shmget(size=2097152 flags=0xb80) for ucp_am_bufs failed: Operation not permitted, please check shared memory limits by 'ipcs -l'
[1597925532.837830] [comp0803:188555:0]            sys.c:618  UCX  ERROR shmget(size=2097152 flags=0xb80) for ucp_am_bufs failed: Operation not permitted, please check shared memory limits by 'ipcs -l'
[1597925532.837855] [comp0803:188553:0]            sys.c:618  UCX  ERROR shmget(size=2097152 flags=0xb80) for ucp_am_bufs failed: Operation not permitted, please check shared memory limits by 'ipcs -l'
[1597925532.838211] [comp0803:188554:0]            sys.c:618  UCX  ERROR shmget(size=2097152 flags=0xb80) for ucp_am_bufs failed: Operation not permitted, please check shared memory limits by 'ipcs -l'
[1597925532.839126] [comp0803:188559:0]            sys.c:618  UCX  ERROR shmget(size=2097152 flags=0xb80) for ucp_am_bufs failed: Operation not permitted, please check shared memory limits by 'ipcs -l'
[1597925532.839122] [comp0803:188557:0]            sys.c:618  UCX  ERROR shmget(size=2097152 flags=0xb80) for ucp_am_bufs failed: Operation not permitted, please check shared memory limits by 'ipcs -l'

Timings for individual modules:

Sum of individual times         ...       97.314 sec (=   1.622 min)
GTO integral calculation        ...        1.270 sec (=   0.021 min)   1.3 %
SCF iterations                  ...       12.743 sec (=   0.212 min)  13.1 %
Analytical frequency calculation...       83.300 sec (=   1.388 min)  85.6 %
                             ****ORCA TERMINATED NORMALLY****
TOTAL RUN TIME: 0 days 0 hours 1 minutes 39 seconds 100 msec
