
                                 *****************
                                 * O   R   C   A *
                                 *****************

           --- An Ab Initio, DFT and Semiempirical electronic structure package ---

                  #######################################################
                  #                        -***-                        #
                  #          Department of theory and spectroscopy      #
                  #               Directorship: Frank Neese             #
                  #        Max Planck Institute fuer Kohlenforschung    #
                  #                Kaiser Wilhelm Platz 1               #
                  #                 D-45470 Muelheim/Ruhr               #
                  #                      Germany                        #
                  #                                                     #
                  #                  All rights reserved                #
                  #                        -***-                        #
                  #######################################################


                         Program Version 4.2.1 -  RELEASE  -


 With contributions from (in alphabetic order):
   Daniel Aravena         : Magnetic Suceptibility
   Michael Atanasov       : Ab Initio Ligand Field Theory (pilot matlab implementation)
   Alexander A. Auer      : GIAO ZORA, VPT2
   Ute Becker             : Parallelization
   Giovanni Bistoni       : ED, misc. LED, open-shell LED, HFLD
   Martin Brehm           : Molecular dynamics
   Dmytro Bykov           : SCF Hessian
   Vijay G. Chilkuri      : MRCI spin determinant printing, contributions to CSF-ICE
   Dipayan Datta          : RHF DLPNO-CCSD density
   Achintya Kumar Dutta   : EOM-CC, STEOM-CC
   Dmitry Ganyushin       : Spin-Orbit,Spin-Spin,Magnetic field MRCI
   Miquel Garcia          : C-PCM Hessian, Gaussian charge scheme
   Yang Guo               : DLPNO-NEVPT2, CIM, IAO-localization
   Andreas Hansen         : Spin unrestricted coupled pair/coupled cluster methods
   Benjamin Helmich-Paris : CASSCF linear response (MC-RPA)
   Lee Huntington         : MR-EOM, pCC
   Robert Izsak           : Overlap fitted RIJCOSX, COSX-SCS-MP3, EOM
   Christian Kollmar      : KDIIS, OOCD, Brueckner-CCSD(T), CCSD density
   Simone Kossmann        : Meta GGA functionals, TD-DFT gradient, OOMP2, MP2 Hessian
   Martin Krupicka        : AUTO-CI
   Lucas Lang             : DCDCAS
   Dagmar Lenk            : GEPOL surface, SMD
   Dimitrios Liakos       : Extrapolation schemes; Compound Job, initial MDCI parallelization
   Dimitrios Manganas     : Further ROCIS development; embedding schemes
   Dimitrios Pantazis     : SARC Basis sets
   Taras Petrenko         : DFT Hessian,TD-DFT gradient, ASA, ECA, R-Raman, ABS, FL, XAS/XES, NRVS
   Peter Pinski           : DLPNO-MP2, DLPNO-MP2 Gradient
   Christoph Reimann      : Effective Core Potentials
   Marius Retegan         : Local ZFS, SOC
   Christoph Riplinger    : Optimizer, TS searches, QM/MM, DLPNO-CCSD(T), (RO)-DLPNO pert. Triples
   Tobias Risthaus        : Range-separated hybrids, TD-DFT gradient, RPA, STAB
   Michael Roemelt        : Original ROCIS implementation
   Masaaki Saitow         : Open-shell DLPNO-CCSD energy and density
   Barbara Sandhoefer     : DKH picture change effects
   Avijit Sen             : IP-ROCIS
   Kantharuban Sivalingam : CASSCF convergence, NEVPT2, FIC-MRCI
   Bernardo de Souza      : ESD, SOC TD-DFT
   Georgi Stoychev        : AutoAux, RI-MP2 NMR
   Willem Van den Heuvel  : Paramagnetic NMR
   Boris Wezisla          : Elementary symmetry handling
   Frank Wennmohs         : Technical directorship


 We gratefully acknowledge several colleagues who have allowed us to
 interface, adapt or use parts of their codes:
   Stefan Grimme, W. Hujo, H. Kruse,             : VdW corrections, initial TS optimization,
                  C. Bannwarth                     DFT functionals, gCP, sTDA/sTD-DF
   Ed Valeev, F. Pavosevic, A. Kumar             : LibInt (2-el integral package), F12 methods
   Garnet Chan, S. Sharma, J. Yang, R. Olivares  : DMRG
   Ulf Ekstrom                                   : XCFun DFT Library
   Mihaly Kallay                                 : mrcc  (arbitrary order and MRCC methods)
   Andreas Klamt, Michael Diedenhofen            : otool_cosmo (COSMO solvation model)
   Jiri Pittner, Ondrej Demel                    : Mk-CCSD
   Frank Weinhold                                : gennbo (NPA and NBO analysis)
   Christopher J. Cramer and Donald G. Truhlar   : smd solvation model
   Lars Goerigk                                  : TD-DFT with DH, B97 family of functionals
   V. Asgeirsson, H. Jonsson                     : NEB implementation
   FAccTs GmbH                                   : IRC, NEB, NEB-TS, Multilevel, MM, QM/MM, CI optimization
   S Lehtola, MJT Oliveira, MAL Marques          : LibXC Library


 Your calculation uses the libint2 library for the computation of 2-el integrals
 For citations please refer to: http://libint.valeyev.net

 Your ORCA version has been built with support for libXC version: 4.2.3
 For citations please refer to: https://tddft.org/programs/libxc/

 This ORCA versions uses:
   CBLAS   interface :  Fast vector & matrix operations
   LAPACKE interface :  Fast linear algebra routines
   SCALAPACK package :  Parallel linear algebra routines


Your calculation utilizes the atom-pairwise dispersion correction
with the Becke-Johnson damping scheme (D3BJ)
Cite in your paper:
S.Grimme, S.Ehrlich, L.Goerigk, J Comput Chem, (2011), 32, 1456–1465 
S.Grimme, J.Antony, S.Ehrlich and H.Krieg, J.Chem.Phys., 132, (2010), 154104 
   

----- Orbital basis set information -----
Your calculation utilizes the basis: def2-SVP
   F. Weigend and R. Ahlrichs, Phys. Chem. Chem. Phys. 7, 3297 (2005).

----- AuxJ basis set information -----
Your calculation utilizes the auxiliary basis: def2/J
   F. Weigend, Phys. Chem. Chem. Phys. 8, 1057 (2006).

================================================================================
                                        WARNINGS
                       Please study these warnings very carefully!
================================================================================


WARNING: your system is open-shell and RHF/RKS was chosen
  ===> : WILL SWITCH to UHF/UKS


INFO   : the flag for use of LIBINT has been found!

================================================================================
                                       INPUT FILE
================================================================================
NAME = m-mfaV_ll_neb_2-6_1-6_hess_orca.inp
|  1> ! Freq PBE0 RIJCOSX D3BJ def2-SVP def2/J CPCM(Water)
|  2> %geom MaxIter 100 end
|  3> %output 
|  4> xyzfile=True 
|  5> end 
|  6> %scf 
|  7> maxiter 250 
|  8> end
|  9> %output
| 10> Print[P_Hirshfeld] = 1
| 11> end
| 12> % maxcore
| 13> 4000
| 14> %pal nprocs 4
| 15> end
| 16> *xyz 0 2
| 17> C   -1.18411974   0.11758787  -0.00135401 
| 18> C    0.21380557  -0.47379091   0.16889268 
| 19> C    1.31708350   0.34589088  -0.37070023 
| 20> H   -1.20530489   1.17296245   0.26447627 
| 21> H   -1.87820804  -0.40912945   0.65036772 
| 22> H   -1.52676968   0.01432511  -1.02785230 
| 23> H    0.41049238  -0.55863292   1.24936101 
| 24> H    0.24612796  -1.48483037  -0.24928380 
| 25> H    1.33588529   1.40036024  -0.16930540 
| 26> H    2.27084031  -0.12488585  -0.51456670 
| 27> *
| 28> 
| 29>                          ****END OF INPUT****
================================================================================

                       ****************************
                       * Single Point Calculation *
                       ****************************

---------------------------------
CARTESIAN COORDINATES (ANGSTROEM)
---------------------------------
  C     -1.184120    0.117588   -0.001354
  C      0.213806   -0.473791    0.168893
  C      1.317084    0.345891   -0.370700
  H     -1.205305    1.172962    0.264476
  H     -1.878208   -0.409129    0.650368
  H     -1.526770    0.014325   -1.027852
  H      0.410492   -0.558633    1.249361
  H      0.246128   -1.484830   -0.249284
  H      1.335885    1.400360   -0.169305
  H      2.270840   -0.124886   -0.514567

----------------------------
CARTESIAN COORDINATES (A.U.)
----------------------------
  NO LB      ZA    FRAG     MASS         X           Y           Z
   0 C     6.0000    0    12.011   -2.237662    0.222209   -0.002559
   1 C     6.0000    0    12.011    0.404034   -0.895335    0.319161
   2 C     6.0000    0    12.011    2.488927    0.653639   -0.700522
   3 H     1.0000    0     1.008   -2.277696    2.216578    0.499788
   4 H     1.0000    0     1.008   -3.549299   -0.773143    1.229017
   5 H     1.0000    0     1.008   -2.885177    0.027071   -1.942359
   6 H     1.0000    0     1.008    0.775718   -1.055663    2.360950
   7 H     1.0000    0     1.008    0.465114   -2.805923   -0.471078
   8 H     1.0000    0     1.008    2.524457    2.646297   -0.319941
   9 H     1.0000    0     1.008    4.291266   -0.236000   -0.972390

--------------------------------
INTERNAL COORDINATES (ANGSTROEM)
--------------------------------
 C      0   0   0     0.000000000000     0.00000000     0.00000000
 C      1   0   0     1.527385992220     0.00000000     0.00000000
 C      2   1   0     1.476570667528   115.35274090     0.00000000
 H      1   2   3     1.088544924409   111.46775678   314.66000896
 H      1   2   3     1.088085895846   109.24703673   195.26221252
 H      1   2   3     1.087092874762   110.91322636    75.61864436
 H      2   1   3     1.101497017709   107.61296714   117.47343340
 H      2   1   3     1.094585352998   110.00330236   234.13159258
 H      3   2   1     1.073694097980   119.32246419    45.42234168
 H      3   2   1     1.073303472146   117.99912236   195.95749162

---------------------------
INTERNAL COORDINATES (A.U.)
---------------------------
 C      0   0   0     0.000000000000     0.00000000     0.00000000
 C      1   0   0     2.886341226083     0.00000000     0.00000000
 C      2   1   0     2.790314179010   115.35274090     0.00000000
 H      1   2   3     2.057051791602   111.46775678   314.66000896
 H      1   2   3     2.056184353331   109.24703673   195.26221252
 H      1   2   3     2.054307815437   110.91322636    75.61864436
 H      2   1   3     2.081527700801   107.61296714   117.47343340
 H      2   1   3     2.068466547368   110.00330236   234.13159258
 H      3   2   1     2.028987796790   119.32246419    45.42234168
 H      3   2   1     2.028249620943   117.99912236   195.95749162

---------------------
BASIS SET INFORMATION
---------------------
There are 2 groups of distinct atoms

 Group   1 Type C   : 7s4p1d contracted to 3s2p1d pattern {511/31/1}
 Group   2 Type H   : 4s1p contracted to 2s1p pattern {31/1}

Atom   0C    basis set group =>   1
Atom   1C    basis set group =>   1
Atom   2C    basis set group =>   1
Atom   3H    basis set group =>   2
Atom   4H    basis set group =>   2
Atom   5H    basis set group =>   2
Atom   6H    basis set group =>   2
Atom   7H    basis set group =>   2
Atom   8H    basis set group =>   2
Atom   9H    basis set group =>   2
---------------------------------
AUXILIARY/J BASIS SET INFORMATION
---------------------------------
There are 2 groups of distinct atoms

 Group   1 Type C   : 12s5p4d2f1g contracted to 6s4p3d1f1g pattern {711111/2111/211/2/1}
 Group   2 Type H   : 5s2p1d contracted to 3s1p1d pattern {311/2/1}

Atom   0C    basis set group =>   1
Atom   1C    basis set group =>   1
Atom   2C    basis set group =>   1
Atom   3H    basis set group =>   2
Atom   4H    basis set group =>   2
Atom   5H    basis set group =>   2
Atom   6H    basis set group =>   2
Atom   7H    basis set group =>   2
Atom   8H    basis set group =>   2
Atom   9H    basis set group =>   2
[1597914157.632829] [comp0810:26489:0]            sys.c:618  UCX  ERROR shmget(size=2097152 flags=0xfb0) for mm_recv_desc failed: Operation not permitted, please check shared memory limits by 'ipcs -l'
[1597914157.637341] [comp0810:26491:0]            sys.c:618  UCX  ERROR shmget(size=2097152 flags=0xfb0) for mm_recv_desc failed: Operation not permitted, please check shared memory limits by 'ipcs -l'
[1597914157.641910] [comp0810:26490:0]            sys.c:618  UCX  ERROR shmget(size=2097152 flags=0xfb0) for mm_recv_desc failed: Operation not permitted, please check shared memory limits by 'ipcs -l'
[1597914157.642180] [comp0810:26492:0]            sys.c:618  UCX  ERROR shmget(size=2097152 flags=0xfb0) for mm_recv_desc failed: Operation not permitted, please check shared memory limits by 'ipcs -l'
[1597914157.652872] [comp0810:26491:0]            sys.c:618  UCX  ERROR shmget(size=2097152 flags=0xb80) for ucp_am_bufs failed: Operation not permitted, please check shared memory limits by 'ipcs -l'
[1597914157.653265] [comp0810:26489:0]            sys.c:618  UCX  ERROR shmget(size=2097152 flags=0xb80) for ucp_am_bufs failed: Operation not permitted, please check shared memory limits by 'ipcs -l'


           ************************************************************
           *        Program running with 4 parallel MPI-processes     *
           *              working on a common directory               *
           ************************************************************
------------------------------------------------------------------------------
                           ORCA GTO INTEGRAL CALCULATION
                           -- RI-GTO INTEGRALS CHOSEN --
------------------------------------------------------------------------------

                         BASIS SET STATISTICS AND STARTUP INFO

Gaussian basis set:
 # of primitive gaussian shells          ...   71
 # of primitive gaussian functions       ...  121
 # of contracted shells                  ...   39
 # of contracted basis functions         ...   77
 Highest angular momentum                ...    2
 Maximum contraction depth               ...    5
Auxiliary gaussian basis set:
 # of primitive gaussian shells          ...  128
 # of primitive gaussian functions       ...  322
 # of contracted shells                  ...   80
 # of contracted aux-basis functions     ...  224
 Highest angular momentum                ...    4
 Maximum contraction depth               ...    7
Ratio of auxiliary to basis functions    ...  2.91
Integral package used                  ... LIBINT
[1597914157.653835] [comp0810:26490:0]            sys.c:618  UCX  ERROR shmget(size=2097152 flags=0xb80) for ucp_am_bufs failed: Operation not permitted, please check shared memory limits by 'ipcs -l'
[1597914157.653898] [comp0810:26492:0]            sys.c:618  UCX  ERROR shmget(size=2097152 flags=0xb80) for ucp_am_bufs failed: Operation not permitted, please check shared memory limits by 'ipcs -l'
 One Electron integrals                  ... done
 Ordering auxiliary basis shells         ... done
 Integral threshhold             Thresh  ...  1.000e-10
 Primitive cut-off               TCut    ...  1.000e-11
 Pre-screening matrix                    ... done
 Shell pair data                         ... 
 Ordering of the shell pairs             ... done (   0.000 sec) 779 of 780 pairs
 Determination of significant pairs      ... done (   0.000 sec)
 Creation of shell pair data             ... done (   0.000 sec)
 Storage of shell pair data              ... done (   0.002 sec)
 Shell pair data done in (   0.003 sec)
 Computing two index integrals           ... done
 Cholesky decomposition of the V-matrix  ... done


Timings:
 Total evaluation time                   ...   0.123 sec (  0.002 min)
 One electron matrix time                ...   0.007 sec (  0.000 min) =  5.3%
 Schwartz matrix evaluation time         ...   0.095 sec (  0.002 min) = 77.3%
 Two index repulsion integral time       ...   0.001 sec (  0.000 min) =  1.0%
 Cholesky decomposition of V             ...   0.001 sec (  0.000 min) =  0.9%
 Three index repulsion integral time     ...   0.000 sec (  0.000 min) =  0.0%

[1597914158.589658] [comp0810:26512:0]            sys.c:618  UCX  ERROR shmget(size=2097152 flags=0xfb0) for mm_recv_desc failed: Operation not permitted, please check shared memory limits by 'ipcs -l'
[1597914158.594892] [comp0810:26513:0]            sys.c:618  UCX  ERROR shmget(size=2097152 flags=0xfb0) for mm_recv_desc failed: Operation not permitted, please check shared memory limits by 'ipcs -l'
[1597914158.599483] [comp0810:26510:0]            sys.c:618  UCX  ERROR shmget(size=2097152 flags=0xfb0) for mm_recv_desc failed: Operation not permitted, please check shared memory limits by 'ipcs -l'
[1597914158.598498] [comp0810:26511:0]            sys.c:618  UCX  ERROR shmget(size=2097152 flags=0xfb0) for mm_recv_desc failed: Operation not permitted, please check shared memory limits by 'ipcs -l'
[1597914158.607577] [comp0810:26513:0]            sys.c:618  UCX  ERROR shmget(size=2097152 flags=0xb80) for ucp_am_bufs failed: Operation not permitted, please check shared memory limits by 'ipcs -l'
[1597914158.607906] [comp0810:26510:0]            sys.c:618  UCX  ERROR shmget(size=2097152 flags=0xb80) for ucp_am_bufs failed: Operation not permitted, please check shared memory limits by 'ipcs -l'


           ************************************************************
           *        Program running with 4 parallel MPI-processes     *
           *              working on a common directory               *
           ************************************************************
-------------------------------------------------------------------------------
                                 ORCA SCF
-------------------------------------------------------------------------------

------------
SCF SETTINGS
------------
Hamiltonian:
 Density Functional     Method          .... DFT(GTOs)
 Exchange Functional    Exchange        .... PBE
   PBE kappa parameter   XKappa         ....  0.804000
   PBE mue parameter    XMuePBE         ....  0.219520
 Correlation Functional Correlation     .... PBE
   PBE beta parameter  CBetaPBE         ....  0.066725
 LDA part of GGA corr.  LDAOpt          .... PW91-LDA
 Gradients option       PostSCFGGA      .... off
 Hybrid DFT is turned on
   Fraction HF Exchange ScalHFX         ....  0.250000
   Scaling of DF-GGA-X  ScalDFX         ....  0.750000
   Scaling of DF-GGA-C  ScalDFC         ....  1.000000
   Scaling of DF-LDA-C  ScalLDAC        ....  1.000000
   Perturbative correction              ....  0.000000
   Density functional embedding theory  .... OFF
   NL short-range parameter             ....  6.900000
 RI-approximation to the Coulomb term is turned on
   Number of auxiliary basis functions  .... 224
   RIJ-COSX (HFX calculated with COS-X)).... on


General Settings:
 Integral files         IntName         .... m-mfaV_ll_neb_2-6_1-6_hess_orca
 Hartree-Fock type      HFTyp           .... UHF
 Total Charge           Charge          ....    0
 Multiplicity           Mult            ....    2
 Number of Electrons    NEL             ....   25
 Basis Dimension        Dim             ....   77
 Nuclear Repulsion      ENuc            ....     76.1883604651 Eh

Convergence Acceleration:
 DIIS                   CNVDIIS         .... on
   Start iteration      DIISMaxIt       ....    12
   Startup error        DIISStart       ....  0.200000
   # of expansion vecs  DIISMaxEq       ....     5
   Bias factor          DIISBfac        ....   1.050
   Max. coefficient     DIISMaxC        ....  10.000
 Newton-Raphson         CNVNR           .... off
 SOSCF                  CNVSOSCF        .... off
 Level Shifting         CNVShift        .... on
   Level shift para.    LevelShift      ....    0.2500
   Turn off err/grad.   ShiftErr        ....    0.0010
 Zerner damping         CNVZerner       .... off
 Static damping         CNVDamp         .... on
   Fraction old density DampFac         ....    0.7000
   Max. Damping (<1)    DampMax         ....    0.9800
   Min. Damping (>=0)   DampMin         ....    0.0000
   Turn off err/grad.   DampErr         ....    0.1000
 Fernandez-Rico         CNVRico         .... off

SCF Procedure:
 Maximum # iterations   MaxIter         ....   250
 SCF integral mode      SCFMode         .... Direct
   Integral package                     .... LIBINT
 Reset frequency        DirectResetFreq ....    20
 Integral Threshold     Thresh          ....  1.000e-10 Eh
 Primitive CutOff       TCut            ....  1.000e-11 Eh

Convergence Tolerance:
 Convergence Check Mode ConvCheckMode   .... Total+1el-Energy
 Convergence forced     ConvForced      .... 0
 Energy Change          TolE            ....  1.000e-06 Eh
 1-El. energy change                    ....  1.000e-03 Eh
 DIIS Error             TolErr          ....  1.000e-06


Diagonalization of the overlap matrix:
Smallest eigenvalue                        ... 2.933e-03
Time for diagonalization                   ...    0.001 sec
Threshold for overlap eigenvalues          ... 1.000e-08
Number of eigenvalues below threshold      ... 0
Time for construction of square roots      ...    0.001 sec
Total time needed                [1597914158.607954] [comp0810:26512:0]            sys.c:618  UCX  ERROR shmget(size=2097152 flags=0xb80) for ucp_am_bufs failed: Operation not permitted, please check shared memory limits by 'ipcs -l'
[1597914158.607601] [comp0810:26511:0]            sys.c:618  UCX  ERROR shmget(size=2097152 flags=0xb80) for ucp_am_bufs failed: Operation not permitted, please check shared memory limits by 'ipcs -l'
          ...    0.002 sec

-------------------
DFT GRID GENERATION
-------------------

General Integration Accuracy     IntAcc      ...  4.340
Radial Grid Type                 RadialGrid  ... Gauss-Chebyshev
Angular Grid (max. acc.)         AngularGrid ... Lebedev-110
Angular grid pruning method      GridPruning ... 3 (G Style)
Weight generation scheme         WeightScheme... Becke
Basis function cutoff            BFCut       ...    1.0000e-10
Integration weight cutoff        WCut        ...    1.0000e-14
Grids for H and He will be reduced by one unit

# of grid points (after initial pruning)     ...  10526 (   0.0 sec)
# of grid points (after weights+screening)   ...  10046 (   0.0 sec)
nearest neighbour list constructed           ...    0.0 sec
Grid point re-assignment to atoms done       ...    0.0 sec
Grid point division into batches done        ...    0.0 sec
Reduced shell lists constructed in    0.0 sec

Total number of grid points                  ...    10046
Total number of batches                      ...      162
Average number of points per batch           ...       62
Average number of grid points per atom       ...     1005
Average number of shells per batch           ...    35.60 (91.27%)
Average number of basis functions per batch  ...    70.21 (91.19%)
Average number of large shells per batch     ...    32.79 (92.11%)
Average number of large basis fcns per batch ...    64.21 (91.45%)
Maximum spatial batch extension              ...  15.81, 14.66, 18.77 au
Average spatial batch extension              ...   0.68,  0.60,  0.69 au

Time for grid setup =    0.024 sec

------------------------------
INITIAL GUESS: MODEL POTENTIAL
------------------------------
Loading Hartree-Fock densities                     ... done
Calculating cut-offs                               ... done
Setting up the integral package                    ... done
Initializing the effective Hamiltonian             ... done
Starting the Coulomb interaction                   ... done (   0.0 sec)
Reading the grid                                   ... done
Mapping shells                                     ... done
Starting the XC term evaluation                    ... done (   0.0 sec)
  promolecular density results
     # of electrons  =     24.996550221
     EX              =    -17.363759819
     EC              =     -0.782461364
     EX+EC           =    -18.146221183
Transforming the Hamiltonian                       ... done (   0.0 sec)
Diagonalizing the Hamiltonian                      ... done (   0.0 sec)
Back transforming the eigenvectors                 ... done (   0.0 sec)
Now organizing SCF variables                       ... done
                      ------------------
                      INITIAL GUESS DONE (   0.1 sec)
                      ------------------
--------------------
COSX GRID GENERATION
--------------------

General Integration Accuracy     IntAcc      ...  3.340
Radial Grid Type                 RadialGrid  ... Gauss-Chebyshev
Angular Grid (max. acc.)         AngularGrid ... Lebedev-50
Angular grid pruning method      GridPruning ... 3 (G Style)
Weight generation scheme         WeightScheme... Becke
Basis function cutoff            BFCut       ...    1.0000e-10
Integration weight cutoff        WCut        ...    1.0000e-14
Grids for H and He will be reduced by one unit

# of grid points (after initial pruning)     ...   3980 (   0.0 sec)
# of grid points (after weights+screening)   ...   3792 (   0.0 sec)
nearest neighbour list constructed           ...    0.0 sec
Grid point re-assignment to atoms done       ...    0.0 sec
Grid point division into batches done        ...    0.0 sec
Reduced shell lists constructed in    0.0 sec

Total number of grid points                  ...     3792
Total number of batches                      ...       65
Average number of points per batch           ...       58
Average number of grid points per atom       ...      379
Average number of shells per batch           ...    36.06 (92.45%)
Average number of basis functions per batch  ...    71.83 (93.29%)
Average number of large shells per batch     ...    34.33 (95.22%)
Average number of large basis fcns per batch ...    68.22 (94.97%)
Maximum spatial batch extension              ...   3.31,  3.90, 10.32 au
Average spatial batch extension              ...   0.56,  0.48,  0.60 au

Overlap Fitting                  UseSFitting ... on
Constructing numerical overlap ... done (      0.0 sec)
Inverting numerical overlap    ... done (      0.0 sec)
Obtaining analytic overlap     ... done (      0.0 sec)
Final contraction and storage  ... done (      0.0 sec)


General Integration Accuracy     IntAcc      ...  3.670
Radial Grid Type                 RadialGrid  ... Gauss-Chebyshev
Angular Grid (max. acc.)         AngularGrid ... Lebedev-50
Angular grid pruning method      GridPruning ... 3 (G Style)
Weight generation scheme         WeightScheme... Becke
Basis function cutoff            BFCut       ...    1.0000e-10
Integration weight cutoff        WCut        ...    1.0000e-14
Grids for H and He will be reduced by one unit

# of grid points (after initial pruning)     ...   5170 (   0.0 sec)
# of grid points (after weights+screening)   ...   4911 (   0.0 sec)
nearest neighbour list constructed           ...    0.0 sec
Grid point re-assignment to atoms done       ...    0.0 sec
Grid point division into batches done        ...    0.0 sec
Reduced shell lists constructed in    0.0 sec

Total number of grid points                  ...     4911
Total number of batches                      ...       81
Average number of points per batch           ...       60
Average number of grid points per atom       ...      491
Average number of shells per batch           ...    35.91 (92.07%)
Average number of basis functions per batch  ...    71.36 (92.68%)
Average number of large shells per batch     ...    33.55 (93.42%)
Average number of large basis fcns per batch ...    65.82 (92.23%)
Maximum spatial batch extension              ...  11.90, 14.58, 19.32 au
Average spatial batch extension              ...   0.62,  0.65,  0.89 au

Overlap Fitting                  UseSFitting ... on
Constructing numerical overlap ... done (      0.0 sec)
Inverting numerical overlap    ... done (      0.0 sec)
Obtaining analytic overlap     ... done (      0.0 sec)
Final contraction and storage  ... done (      0.0 sec)


General Integration Accuracy     IntAcc      ...  4.010
Radial Grid Type                 RadialGrid  ... Gauss-Chebyshev
Angular Grid (max. acc.)         AngularGrid ... Lebedev-110
Angular grid pruning method      GridPruning ... 3 (G Style)
Weight generation scheme         WeightScheme... Becke
Basis function cutoff            BFCut       ...    1.0000e-10
Integration weight cutoff        WCut        ...    1.0000e-14
Grids for H and He will be reduced by one unit

# of grid points (after initial pruning)     ...   9080 (   0.0 sec)
# of grid points (after weights+screening)   ...   8673 (   0.0 sec)
nearest neighbour list constructed           ...    0.0 sec
Grid point re-assignment to atoms done       ...    0.0 sec
Grid point division into batches done        ...    0.0 sec
Reduced shell lists constructed in    0.0 sec

Total number of grid points                  ...     8673
Total number of batches                      ...      141
Average number of points per batch           ...       61
Average number of grid points per atom       ...      867
Average number of shells per batch           ...    35.68 (91.48%)
Average number of basis functions per batch  ...    70.38 (91.40%)
Average number of large shells per batch     ...    32.92 (92.27%)
Average number of large basis fcns per batch ...    64.43 (91.55%)
Maximum spatial batch extension              ...  15.13, 14.61, 19.12 au
Average spatial batch extension              ...   0.71,  0.67,  0.74 au

Overlap Fitting                  UseSFitting ... on
Constructing numerical overlap ... done (      0.0 sec)
Inverting numerical overlap    ... done (      0.0 sec)
Obtaining analytic overlap     ... done (      0.0 sec)
Final contraction and storage  ... done (      0.0 sec)

Time for X-Grid setup             =    0.121 sec

--------------------
CPCM SOLVATION MODEL
--------------------
CPCM parameters:
  Epsilon                                         ...      80.4000
  Refrac                                          ...       1.3300
  Rsolv                                           ...       1.3000
  Surface type                                    ...    GEPOL SES
  Epsilon function type                           ...         CPCM
Radii:
 Radius for C  used is    3.7795 Bohr (=   2.0000 Ang.)
 Radius for H  used is    2.4566 Bohr (=   1.3000 Ang.)
Calculating surface                               ...        done! (  0.0s)
GEPOL surface points                              ...          330
GEPOL Volume                                      ...     523.2204
GEPOL Surface-area                                ...     345.7924
Calculating surface distance matrix               ...        done! (  0.0s)
Performing Cholesky decomposition & store         ...        done! (  0.1s)
Overall time for CPCM initialization              ...                 0.1s
--------------
SCF ITERATIONS
--------------
ITER       Energy         Delta-E        Max-DP      RMS-DP      [F,P]     Damp
               ***  Starting incremental Fock matrix formation  ***
  0   -118.1295396772   0.000000000000 0.03576810  0.00147359  0.1635389 0.7000
  1   -118.1744976165  -0.044957939288 0.02239533  0.00107795  0.0890635 0.7000
                               ***Turning on DIIS***
  2   -118.1948009975  -0.020303380994 0.03420545  0.00196313  0.0371010 0.0000
  3   -118.2235405223  -0.028739524814 0.01675161  0.00071346  0.0452019 0.0000
  4   -118.2311602379  -0.007619715600 0.00586681  0.00018856  0.0077676 0.0000
  5   -118.2315144620  -0.000354224055 0.00147309  0.00007529  0.0020134 0.0000
  6   -118.2315535386  -0.000039076669 0.00144098  0.00005522  0.0006093 0.0000
               *** Restarting incremental Fock matrix formation ***
                                   *** Resetting DIIS ***
  7   -118.2315525188   0.000001019816 0.00049634  0.00001177  0.0002373 0.0000
  8   -118.2315532589  -0.000000740046 0.00018582  0.00000471  0.0002029 0.0000
                 **** Energy Check signals convergence ****

               *****************************************************
               *                     SUCCESS                       *
               *           SCF CONVERGED AFTER   9 CYCLES          *
               *****************************************************

Setting up the final grid:

General Integration Accuracy     IntAcc      ...  4.670
Radial Grid Type                 RadialGrid  ... Gauss-Chebyshev
Angular Grid (max. acc.)         AngularGrid ... Lebedev-302
Angular grid pruning method      GridPruning ... 3 (G Style)
Weight generation scheme         WeightScheme... Becke
Basis function cutoff            BFCut       ...    1.0000e-10
Integration weight cutoff        WCut        ...    1.0000e-14
Grids for H and He will be reduced by one unit

# of grid points (after initial pruning)     ...  42394 (   0.0 sec)
# of grid points (after weights+screening)   ...  39959 (   0.0 sec)
nearest neighbour list constructed           ...    0.0 sec
Grid point re-assignment to atoms done       ...    0.0 sec
Grid point division into batches done        ...    0.1 sec
Reduced shell lists constructed in    0.1 sec

Total number of grid points                  ...    39959
Total number of batches                      ...      629
Average number of points per batch           ...       63
Average number of grid points per atom       ...     3996
Average number of shells per batch           ...    34.67 (88.91%)
Average number of basis functions per batch  ...    68.41 (88.84%)
Average number of large shells per batch     ...    31.02 (89.46%)
Average number of large basis fcns per batch ...    60.44 (88.35%)
Maximum spatial batch extension              ...  14.77, 13.43, 15.87 au
Average spatial batch extension              ...   0.42,  0.42,  0.46 au

Final grid set up in    0.2 sec
Final integration                            ... done (   0.1 sec)
Change in XC energy                          ...    -0.000128357
Integrated number of electrons               ...    24.999999871
Previous integrated no of electrons          ...    24.999429438
Old exchange energy                            =     -4.505201656 Eh
New exchange energy                            =     -4.505366534 Eh
Exchange energy change after final integration =     -0.000164878 Eh
Total energy after final integration           =   -118.231846728 Eh
Final COS-X integration done in                =     0.228 sec

----------------
TOTAL SCF ENERGY
----------------

Total Energy       :         -118.23184673 Eh           -3217.25211 eV

Components:
Nuclear Repulsion  :           76.18836047 Eh            2073.19069 eV
Electronic Energy  :         -194.42020719 Eh           -5290.44280 eV
One Electron Energy:         -308.18026077 Eh           -8386.01123 eV
Two Electron Energy:          113.76005358 Eh            3095.56843 eV
CPCM Dielectric    :           -0.00141404 Eh              -0.03848 eV

Virial components:
Potential Energy   :         -235.15667374 Eh           -6398.93841 eV
Kinetic Energy     :          116.92482702 Eh            3181.68630 eV
Virial Ratio       :            2.01117829


DFT components:
N(Alpha)           :       13.000001061779 electrons
N(Beta)            :       11.999998808865 electrons
N(Total)           :       24.999999870644 electrons
E(X)               :      -13.418578842684 Eh       
E(C)               :       -0.791629845518 Eh       
E(XC)              :      -14.210208688202 Eh       
DFET-embed. en.    :        0.000000000000 Eh       
CPCM Solvation Model Properties:
Surface-charge          :           -0.02011213
Charge-correction       :            0.00002415 Eh               0.00066 eV
Free-energy (cav+disp)  :            0.00314890 Eh               0.08569 eV
Corrected G(solv)       :         -118.22867367 Eh           -3217.16577 eV

---------------
SCF CONVERGENCE
---------------

  Last Energy change         ...   -2.3408e-07  Tolerance :   1.0000e-06
  Last MAX-Density change    ...    0.0000e+00  Tolerance :   1.0000e-05
  Last RMS-Density change    ...    0.0000e+00  Tolerance :   1.0000e-06
  Last DIIS Error            ...    2.9215e-05  Tolerance :   1.0000e-06

             **** THE GBW FILE WAS UPDATED (m-mfaV_ll_neb_2-6_1-6_hess_orca.gbw) ****
             **** DENSITY FILE WAS UPDATED (m-mfaV_ll_neb_2-6_1-6_hess_orca.scfp) ****
             **** ENERGY FILE WAS UPDATED (m-mfaV_ll_neb_2-6_1-6_hess_orca.en.tmp) ****
----------------------
UHF SPIN CONTAMINATION
----------------------

Warning: in a DFT calculation there is little theoretical justification to 
         calculate <S**2> as in Hartree-Fock theory. We will do it anyways
         but you should keep in mind that the values have only limited relevance

Expectation value of <S**2>     :     0.753958
Ideal value S*(S+1) for S=0.5   :     0.750000
Deviation                       :     0.003958

             **** THE GBW FILE WAS UPDATED (m-mfaV_ll_neb_2-6_1-6_hess_orca.gbw) ****
             **** DENSITY FILE WAS UPDATED (m-mfaV_ll_neb_2-6_1-6_hess_orca.scfp) ****
----------------
ORBITAL ENERGIES
----------------
                 SPIN UP ORBITALS
  NO   OCC          E(Eh)            E(eV) 
   0   1.0000     -10.229834      -278.3679 
   1   1.0000     -10.226270      -278.2710 
   2   1.0000     -10.215643      -277.9818 
   3   1.0000      -0.800218       -21.7750 
   4   1.0000      -0.689778       -18.7698 
   5   1.0000      -0.587444       -15.9852 
   6   1.0000      -0.470173       -12.7941 
   7   1.0000      -0.450991       -12.2721 
   8   1.0000      -0.417966       -11.3734 
   9   1.0000      -0.370780       -10.0894 
  10   1.0000      -0.357567        -9.7299 
  11   1.0000      -0.348314        -9.4781 
  12   1.0000      -0.217804        -5.9267 
  13   0.0000       0.081645         2.2217 
  14   0.0000       0.123056         3.3485 
  15   0.0000       0.125278         3.4090 
  16   0.0000       0.134615         3.6631 
  17   0.0000       0.158370         4.3095 
  18   0.0000       0.176091         4.7917 
  19   0.0000       0.187049         5.0899 
  20   0.0000       0.232934         6.3385 
  21   0.0000       0.286438         7.7944 
  22   0.0000       0.420416        11.4401 
  23   0.0000       0.436909        11.8889 
  24   0.0000       0.448849        12.2138 
  25   0.0000       0.478049        13.0084 
  26   0.0000       0.523271        14.2389 
  27   0.0000       0.524206        14.2644 
  28   0.0000       0.620481        16.8842 
  29   0.0000       0.639476        17.4010 
  30   0.0000       0.667786        18.1714 
  31   0.0000       0.672371        18.2961 
  32   0.0000       0.700671        19.0662 
  33   0.0000       0.703685        19.1482 
  34   0.0000       0.717844        19.5335 
  35   0.0000       0.721263        19.6266 
  36   0.0000       0.735243        20.0070 
  37   0.0000       0.737234        20.0612 
  38   0.0000       0.782145        21.2832 
  39   0.0000       0.906280        24.6611 
  40   0.0000       1.001174        27.2433 
  41   0.0000       1.136014        30.9125 
  42   0.0000       1.204316        32.7711 
  43   0.0000       1.287982        35.0478 
  44   0.0000       1.375703        37.4348 
  45   0.0000       1.482782        40.3486 
  46   0.0000       1.557974        42.3946 
  47   0.0000       1.593957        43.3738 
  48   0.0000       1.652975        44.9797 
  49   0.0000       1.713515        46.6271 
  50   0.0000       1.740571        47.3633 
  51   0.0000       1.770808        48.1861 
  52   0.0000       1.804687        49.1080 
  53   0.0000       1.811865        49.3033 
  54   0.0000       1.828743        49.7626 
  55   0.0000       1.873650        50.9846 
  56   0.0000       1.888565        51.3905 
  57   0.0000       1.898066        51.6490 
  58   0.0000       1.959750        53.3275 
  59   0.0000       2.021574        55.0098 
  60   0.0000       2.090323        56.8806 
  61   0.0000       2.174283        59.1652 
  62   0.0000       2.249743        61.2186 
  63   0.0000       2.305688        62.7410 
  64   0.0000       2.395950        65.1971 
  65   0.0000       2.406017        65.4711 
  66   0.0000       2.462198        66.9998 
  67   0.0000       2.565933        69.8226 
  68   0.0000       2.613509        71.1172 
  69   0.0000       2.664100        72.4938 
  70   0.0000       2.811554        76.5063 
  71   0.0000       2.884826        78.5001 
  72   0.0000       2.912860        79.2629 
  73   0.0000       3.000799        81.6559 
  74   0.0000       3.025847        82.3375 
  75   0.0000       3.074508        83.6616 
  76   0.0000       3.107046        84.5470 

                 SPIN DOWN ORBITALS
  NO   OCC          E(Eh)            E(eV) 
   0   1.0000     -10.227136      -278.2945 
   1   1.0000     -10.215229      -277.9705 
   2   1.0000     -10.214244      -277.9437 
   3   1.0000      -0.789541       -21.4845 
   4   1.0000      -0.671542       -18.2736 
   5   1.0000      -0.571354       -15.5473 
   6   1.0000      -0.463045       -12.6001 
   7   1.0000      -0.442996       -12.0545 
   8   1.0000      -0.411414       -11.1952 
   9   1.0000      -0.361915        -9.8482 
  10   1.0000      -0.351118        -9.5544 
  11   1.0000      -0.344530        -9.3751 
  12   0.0000      -0.031784        -0.8649 
  13   0.0000       0.085024         2.3136 
  14   0.0000       0.125029         3.4022 
  15   0.0000       0.130578         3.5532 
  16   0.0000       0.140687         3.8283 
  17   0.0000       0.162091         4.4107 
  18   0.0000       0.179028         4.8716 
  19   0.0000       0.190239         5.1767 
  20   0.0000       0.237491         6.4625 
  21   0.0000       0.295705         8.0465 
  22   0.0000       0.427564        11.6346 
  23   0.0000       0.441457        12.0127 
  24   0.0000       0.453366        12.3367 
  25   0.0000       0.489662        13.3244 
  26   0.0000       0.548873        14.9356 
  27   0.0000       0.582653        15.8548 
  28   0.0000       0.637551        17.3486 
  29   0.0000       0.646254        17.5855 
  30   0.0000       0.671496        18.2723 
  31   0.0000       0.686721        18.6866 
  32   0.0000       0.705293        19.1920 
  33   0.0000       0.706811        19.2333 
  34   0.0000       0.721784        19.6407 
  35   0.0000       0.725612        19.7449 
  36   0.0000       0.742424        20.2024 
  37   0.0000       0.744439        20.2572 
  38   0.0000       0.786904        21.4128 
  39   0.0000       0.914948        24.8970 
  40   0.0000       1.007268        27.4091 
  41   0.0000       1.146664        31.2023 
  42   0.0000       1.215627        33.0789 
  43   0.0000       1.300316        35.3834 
  44   0.0000       1.378866        37.5208 
  45   0.0000       1.495090        40.6835 
  46   0.0000       1.558162        42.3997 
  47   0.0000       1.602048        43.5939 
  48   0.0000       1.656172        45.0667 
  49   0.0000       1.725792        46.9612 
  50   0.0000       1.748631        47.5827 
  51   0.0000       1.779925        48.4342 
  52   0.0000       1.810437        49.2645 
  53   0.0000       1.812334        49.3161 
  54   0.0000       1.844049        50.1791 
  55   0.0000       1.879892        51.1545 
  56   0.0000       1.895632        51.5828 
  57   0.0000       1.907111        51.8951 
  58   0.0000       1.986181        54.0467 
  59   0.0000       2.032664        55.3116 
  60   0.0000       2.106631        57.3243 
  61   0.0000       2.199405        59.8489 
  62   0.0000       2.258472        61.4562 
  63   0.0000       2.329362        63.3852 
  64   0.0000       2.404103        65.4190 
  65   0.0000       2.419284        65.8321 
  66   0.0000       2.469504        67.1986 
  67   0.0000       2.569069        69.9079 
  68   0.0000       2.619937        71.2921 
  69   0.0000       2.672396        72.7196 
  70   0.0000       2.819034        76.7098 
  71   0.0000       2.890469        78.6537 
  72   0.0000       2.916854        79.3716 
  73   0.0000       3.004983        81.7697 
  74   0.0000       3.030899        82.4750 
  75   0.0000       3.079079        83.7860 
  76   0.0000       3.113735        84.7290 

                    ********************************
                    * MULLIKEN POPULATION ANALYSIS *
                    ********************************

--------------------------------------------
MULLIKEN ATOMIC CHARGES AND SPIN POPULATIONS
--------------------------------------------
   0 C :   -0.089116    0.009679
   1 C :   -0.113528   -0.090050
   2 C :   -0.157665    1.096619
   3 H :    0.043204   -0.001190
   4 H :    0.044724    0.000756
   5 H :    0.045217    0.004422
   6 H :    0.060902    0.065296
   7 H :    0.052648    0.010575
   8 H :    0.058646   -0.047462
   9 H :    0.054966   -0.048644
Sum of atomic charges         :   -0.0000000
Sum of atomic spin populations:    1.0000000

-----------------------------------------------------
MULLIKEN REDUCED ORBITAL CHARGES AND SPIN POPULATIONS
-----------------------------------------------------
CHARGE
  0 C s       :     3.039207  s :     3.039207
      pz      :     1.027765  p :     3.021788
      px      :     0.975555
      py      :     1.018468
      dz2     :     0.006296  d :     0.028122
      dxz     :     0.006741
      dyz     :     0.002811
      dx2y2   :     0.007180
      dxy     :     0.005093
  1 C s       :     3.064610  s :     3.064610
      pz      :     1.015328  p :     3.010252
      px      :     0.968131
      py      :     1.026793
      dz2     :     0.009539  d :     0.038666
      dxz     :     0.006599
      dyz     :     0.004303
      dx2y2   :     0.010140
      dxy     :     0.008085
  2 C s       :     3.193705  s :     3.193705
      pz      :     0.994757  p :     2.940297
      px      :     0.966552
      py      :     0.978989
      dz2     :     0.003469  d :     0.023663
      dxz     :     0.002552
      dyz     :     0.002639
      dx2y2   :     0.008683
      dxy     :     0.006319
  3 H s       :     0.932354  s :     0.932354
      pz      :     0.005877  p :     0.024441
      px      :     0.004293
      py      :     0.014272
  4 H s       :     0.930827  s :     0.930827
      pz      :     0.008670  p :     0.024449
      px      :     0.008386
      py      :     0.007392
  5 H s       :     0.930332  s :     0.930332
      pz      :     0.013865  p :     0.024451
      px      :     0.005335
      py      :     0.005251
  6 H s       :     0.914951  s :     0.914951
      pz      :     0.014357  p :     0.024147
      px      :     0.004845
      py      :     0.004945
  7 H s       :     0.924314  s :     0.924314
      pz      :     0.006231  p :     0.023037
      px      :     0.003826
      py      :     0.012980
  8 H s       :     0.916174  s :     0.916174
      pz      :     0.005680  p :     0.025180
      px      :     0.004424
      py      :     0.015077
  9 H s       :     0.919991  s :     0.919991
      pz      :     0.005596  p :     0.025043
      px      :     0.012906
      py      :     0.006541

SPIN
  0 C s       :     0.000415  s :     0.000415
      pz      :     0.000039  p :     0.009296
      px      :     0.005791
      py      :     0.003466
      dz2     :     0.000086  d :    -0.000032
      dxz     :    -0.000144
      dyz     :     0.000070
      dx2y2   :    -0.000061
      dxy     :     0.000017
  1 C s       :    -0.026906  s :    -0.026906
      pz      :    -0.024988  p :    -0.070092
      px      :    -0.026983
      py      :    -0.018122
      dz2     :     0.004571  d :     0.006948
      dxz     :     0.000560
      dyz     :     0.001342
      dx2y2   :     0.000331
      dxy     :     0.000145
  2 C s       :     0.132793  s :     0.132793
      pz      :     0.821915  p :     0.966744
      px      :     0.104268
      py      :     0.040561
      dz2     :    -0.001920  d :    -0.002918
      dxz     :    -0.000560
      dyz     :    -0.000246
      dx2y2   :    -0.000035
      dxy     :    -0.000158
  3 H s       :    -0.001281  s :    -0.001281
      pz      :     0.000009  p :     0.000091
      px      :     0.000061
      py      :     0.000020
  4 H s       :     0.000751  s :     0.000751
      pz      :    -0.000012  p :     0.000005
      px      :     0.000021
      py      :    -0.000004
  5 H s       :     0.004412  s :     0.004412
      pz      :    -0.000021  p :     0.000010
      px      :     0.000009
      py      :     0.000022
  6 H s       :     0.065239  s :     0.065239
      pz      :    -0.000546  p :     0.000057
      px      :     0.000496
      py      :     0.000107
  7 H s       :     0.010807  s :     0.010807
      pz      :    -0.000161  p :    -0.000232
      px      :     0.000023
      py      :    -0.000094
  8 H s       :    -0.052748  s :    -0.052748
      pz      :     0.004368  p :     0.005286
      px      :     0.000257
      py      :     0.000661
  9 H s       :    -0.053898  s :    -0.053898
      pz      :     0.004970  p :     0.005254
      px      :     0.000300
      py      :    -0.000016


                     *******************************
                     * LOEWDIN POPULATION ANALYSIS *
                     *******************************

-------------------------------------------
LOEWDIN ATOMIC CHARGES AND SPIN POPULATIONS
-------------------------------------------
   0 C :   -0.071340    0.012588
   1 C :   -0.072435   -0.007178
   2 C :   -0.047471    0.921536
   3 H :    0.027846   -0.000096
   4 H :    0.029904    0.000027
   5 H :    0.026883    0.001786
   6 H :    0.043431    0.057646
   7 H :    0.034789    0.009044
   8 H :    0.014053    0.002754
   9 H :    0.014339    0.001892

----------------------------------------------------
LOEWDIN REDUCED ORBITAL CHARGES AND SPIN POPULATIONS
----------------------------------------------------
CHARGE
  0 C s       :     2.837855  s :     2.837855
      pz      :     1.072030  p :     3.161847
      px      :     1.025073
      py      :     1.064744
      dz2     :     0.016913  d :     0.071638
      dxz     :     0.015872
      dyz     :     0.007068
      dx2y2   :     0.018919
      dxy     :     0.012866
  1 C s       :     2.834528  s :     2.834528
      pz      :     1.053237  p :     3.141807
      px      :     1.029131
      py      :     1.059439
      dz2     :     0.025247  d :     0.096100
      dxz     :     0.014412
      dyz     :     0.011267
      dx2y2   :     0.024402
      dxy     :     0.020773
  2 C s       :     2.924553  s :     2.924553
      pz      :     0.970922  p :     3.064706
      px      :     1.035620
      py      :     1.058164
      dz2     :     0.006586  d :     0.058212
      dxz     :     0.005441
      dyz     :     0.005866
      dx2y2   :     0.022631
      dxy     :     0.017688
  3 H s       :     0.904231  s :     0.904231
      pz      :     0.015007  p :     0.067923
      px      :     0.013253
      py      :     0.039663
  4 H s       :     0.902068  s :     0.902068
      pz      :     0.023266  p :     0.068028
      px      :     0.024963
      py      :     0.019798
  5 H s       :     0.904798  s :     0.904798
      pz      :     0.038224  p :     0.068319
      px      :     0.016472
      py      :     0.013623
  6 H s       :     0.888087  s :     0.888087
      pz      :     0.039970  p :     0.068483
      px      :     0.014819
      py      :     0.013694
  7 H s       :     0.898461  s :     0.898461
      pz      :     0.017127  p :     0.066750
      px      :     0.012828
      py      :     0.036795
  8 H s       :     0.907619  s :     0.907619
      pz      :     0.021669  p :     0.078328
      px      :     0.013055
      py      :     0.043604
  9 H s       :     0.907596  s :     0.907596
      pz      :     0.020891  p :     0.078065
      px      :     0.038511
      py      :     0.018663

SPIN
  0 C s       :     0.003637  s :     0.003637
      pz      :     0.000269  p :     0.009075
      px      :     0.006459
      py      :     0.002348
      dz2     :     0.000189  d :    -0.000124
      dxz     :    -0.000277
      dyz     :     0.000161
      dx2y2   :    -0.000166
      dxy     :    -0.000031
  1 C s       :    -0.004328  s :    -0.004328
      pz      :    -0.002791  p :    -0.020393
      px      :    -0.010385
      py      :    -0.007218
      dz2     :     0.011002  d :     0.017543
      dxz     :     0.001652
      dyz     :     0.003224
      dx2y2   :     0.000904
      dxy     :     0.000762
  2 C s       :     0.046930  s :     0.046930
      pz      :     0.776820  p :     0.878358
      px      :     0.082653
      py      :     0.018884
      dz2     :    -0.001037  d :    -0.003752
      dxz     :    -0.000638
      dyz     :    -0.000345
      dx2y2   :    -0.000869
      dxy     :    -0.000864
  3 H s       :    -0.000385  s :    -0.000385
      pz      :     0.000016  p :     0.000290
      px      :     0.000196
      py      :     0.000077
  4 H s       :    -0.000156  s :    -0.000156
      pz      :     0.000008  p :     0.000183
      px      :     0.000163
      py      :     0.000012
  5 H s       :     0.001269  s :     0.001269
      pz      :     0.000145  p :     0.000517
      px      :     0.000241
      py      :     0.000131
  6 H s       :     0.057829  s :     0.057829
      pz      :    -0.001151  p :    -0.000183
      px      :     0.000659
      py      :     0.000308
  7 H s       :     0.009712  s :     0.009712
      pz      :    -0.000163  p :    -0.000668
      px      :    -0.000149
      py      :    -0.000356
  8 H s       :    -0.020747  s :    -0.020747
      pz      :     0.018074  p :     0.023501
      px      :     0.001946
      py      :     0.003481
  9 H s       :    -0.021557  s :    -0.021557
      pz      :     0.019144  p :     0.023449
      px      :     0.003401
      py      :     0.000904


                      *****************************
                      * MAYER POPULATION ANALYSIS *
                      *****************************

  NA   - Mulliken gross atomic population
  ZA   - Total nuclear charge
  QA   - Mulliken gross atomic charge
  VA   - Mayer's total valence
  BVA  - Mayer's bonded valence
  FA   - Mayer's free valence

  ATOM       NA         ZA         QA         VA         BVA        FA
  0 C      6.0891     6.0000    -0.0891     3.9871     3.9869     0.0001
  1 C      6.1135     6.0000    -0.1135     4.0839     4.0798     0.0041
  2 C      6.1577     6.0000    -0.1577     3.9385     3.0706     0.8679
  3 H      0.9568     1.0000     0.0432     0.9888     0.9888     0.0000
  4 H      0.9553     1.0000     0.0447     0.9830     0.9830     0.0000
  5 H      0.9548     1.0000     0.0452     0.9827     0.9826     0.0000
  6 H      0.9391     1.0000     0.0609     0.9677     0.9631     0.0046
  7 H      0.9474     1.0000     0.0526     0.9706     0.9705     0.0001
  8 H      0.9414     1.0000     0.0586     0.9827     0.9797     0.0030
  9 H      0.9450     1.0000     0.0550     0.9790     0.9759     0.0031

  Mayer bond orders larger than 0.100000
B(  0-C ,  1-C ) :   1.0796 B(  0-C ,  3-H ) :   0.9740 B(  0-C ,  4-H ) :   0.9702 
B(  0-C ,  5-H ) :   0.9771 B(  1-C ,  2-C ) :   1.0984 B(  1-C ,  6-H ) :   0.9282 
B(  1-C ,  7-H ) :   0.9519 B(  2-C ,  8-H ) :   0.9686 B(  2-C ,  9-H ) :   0.9700 



------------------
HIRSHFELD ANALYSIS
------------------

Total integrated alpha density =     12.999925491
Total integrated beta density  =     11.999503947

  ATOM     CHARGE      SPIN    
   0 C   -0.076526    0.016142
   1 C   -0.041133    0.055319
   2 C   -0.066096    0.757663
   3 H    0.027140    0.000843
   4 H    0.028576    0.000614
   5 H    0.023428    0.003925
   6 H    0.031531    0.055126
   7 H    0.031594    0.011003
   8 H    0.021179    0.050545
   9 H    0.020878    0.049241

  TOTAL   0.000571    1.000422

-------
TIMINGS
-------

Total SCF time: 0 days 0 hours 0 min 5 sec 

Total time                  ....       5.052 sec
Sum of individual times     ....       4.859 sec  ( 96.2%)

Fock matrix formation       ....       4.404 sec  ( 87.2%)
  Split-RI-J                ....       0.916 sec  ( 20.8% of F)
  Chain of spheres X        ....       1.490 sec  ( 33.8% of F)
  COS-X 1 center corr.      ....       0.000 sec  (  0.0% of F)
  XC integration            ....       0.334 sec  (  7.6% of F)
    Basis function eval.    ....       0.094 sec  ( 28.1% of XC)
    Density eval.           ....       0.065 sec  ( 19.3% of XC)
    XC-Functional eval.     ....       0.032 sec  (  9.5% of XC)
    XC-Potential eval.      ....       0.106 sec  ( 31.8% of XC)
Diagonalization             ....       0.016 sec  (  0.3%)
Density matrix formation    ....       0.001 sec  (  0.0%)
Population analysis         ....       0.023 sec  (  0.5%)
Initial guess               ....       0.100 sec  (  2.0%)
Orbital Transformation      ....       0.000 sec  (  0.0%)
Orbital Orthonormalization  ....       0.000 sec  (  0.0%)
DIIS solution               ....       0.004 sec  (  0.1%)
Grid generation             ....       0.311 sec  (  6.2%)


-------------------------------------------------------------------------------
                          DFT DISPERSION CORRECTION                            
                                                                               
                              DFTD3 V3.1  Rev 1                                
                          USING Becke-Johnson damping                          
-------------------------------------------------------------------------------
The PBE0 functional is recognized
Active option DFTDOPT                   ...         4   

molecular C6(AA) [au] = 669.930340 


            DFT-D V3
 parameters
 s6 scaling factor         :     1.0000 
 a1 scaling factor         :     0.4145 
 s8 scaling factor         :     1.2177 
 a2 scaling factor         :     4.8593 
 ad hoc parameters k1-k3   :    16.0000     1.3333    -4.0000 

 Edisp/kcal,au: -2.811117811039  -0.004479800907 
 E6   /kcal   :  -1.848759822 
 E8   /kcal   :  -0.962357989 
 % E8         :  34.233997080 

-------------------------   ----------------
Dispersion correction           -0.004479801
-------------------------   ----------------


-------------------------   --------------------
FINAL SINGLE POINT ENERGY      -118.236326529045
-------------------------   --------------------


                            ***************************************
                            *     ORCA property calculations      *
                            ***************************************

                                    ---------------------
                                    Active property flags
                                    ---------------------
   (+) Dipole Moment


------------------------------------------------------------------------------
                       ORCA ELECTRIC PROPERTIES CALCULATION
------------------------------------------------------------------------------

Dipole Moment Calculation                       ... on
Quadrupole Moment Calculation                   ... off
Polarizability Calculation                      ... off
GBWName                                         ... m-mfaV_ll_neb_2-6_1-6_hess_orca.gbw
Electron density file                           ... m-mfaV_ll_neb_2-6_1-6_hess_orca.scfp
The origin for moment calculation is the CENTER OF MASS  = ( 0.167327, -0.004982 -0.098034)

-------------
DIPOLE MOMENT
-------------
                                X             Y             Z
Electronic contribution:      0.86382      -0.11560      -0.30536
Nuclear contribution   :     -0.90699       0.02686       0.53133
                        -----------------------------------------
Total Dipole Moment    :     -0.04316      -0.08874       0.22597
                        -----------------------------------------
Magnitude (a.u.)       :      0.24658
Magnitude (Debye)      :      0.62675



--------------------
Rotational spectrum 
--------------------
 
Rotational constants in cm-1:     1.145249     0.295280     0.260668 
Rotational constants in MHz : 34333.711455  8852.268866  7814.615789 

 Dipole components along the rotational axes: 
x,y,z [a.u.] :    -0.078933     0.157178     0.172813 
x,y,z [Debye]:    -0.200633     0.399514     0.439255 

 
[1597914164.613456] [comp0810:26534:0]            sys.c:618  UCX  ERROR shmget(size=2097152 flags=0xfb0) for mm_recv_desc failed: Operation not permitted, please check shared memory limits by 'ipcs -l'
[1597914164.618976] [comp0810:26536:0]            sys.c:618  UCX  ERROR shmget(size=2097152 flags=0xfb0) for mm_recv_desc failed: Operation not permitted, please check shared memory limits by 'ipcs -l'
[1597914164.625274] [comp0810:26535:0]            sys.c:618  UCX  ERROR shmget(size=2097152 flags=0xfb0) for mm_recv_desc failed: Operation not permitted, please check shared memory limits by 'ipcs -l'
[1597914164.629735] [comp0810:26537:0]            sys.c:618  UCX  ERROR shmget(size=2097152 flags=0xfb0) for mm_recv_desc failed: Operation not permitted, please check shared memory limits by 'ipcs -l'
[1597914164.636921] [comp0810:26536:0]            sys.c:618  UCX  ERROR shmget(size=2097152 flags=0xb80) for ucp_am_bufs failed: Operation not permitted, please check shared memory limits by 'ipcs -l'
[1597914164.636945] [comp0810:26534:0]            sys.c:618  UCX  ERROR shmget(size=2097152 flags=0xb80) for ucp_am_bufs failed: Operation not permitted, please check shared memory limits by 'ipcs -l'


           ************************************************************
           *        Program running with 4 parallel MPI-processes     *
           *              working on a common directory               *
           ************************************************************
[1597914164.636518] [comp0810:26535:0]            sys.c:618  UCX  ERROR shmget(size=2097152 flags=0xb80) for ucp_am_bufs failed: Operation not permitted, please check shared memory limits by 'ipcs -l'
[1597914164.652323] [comp0810:26537:0]            sys.c:618  UCX  ERROR shmget(size=2097152 flags=0xb80) for ucp_am_bufs failed: Operation not permitted, please check shared memory limits by 'ipcs -l'

-------------------------------------------------------------------------------
                               ORCA SCF HESSIAN
-------------------------------------------------------------------------------

Hessian of the Kohn-Sham DFT energy:
Kohn-Sham wavefunction type                      ... UKS
Hartree-Fock exchange scaling                    ...    0.250
Number of operators                              ...    2
Number of atoms                                  ...   10
Basis set dimensions                             ...   77
Integral neglect threshold                       ... 1.0e-10
Integral primitive cutoff                        ... 1.0e-11

Setting up DFT Hessian calculations              ... 
Electron density on the grid                     ... found on disk
Electron density on the final grid               ... found on disk
Building xc-kernel on the grid                   ... done   (      0.0 sec)
Building xc-kernel on the final grid             ... done   (      0.0 sec)
                                                     done   (      0.0 sec)

Nuclear repulsion Hessian                        ... done   (      0.0 sec)

----------------------------------------------
Forming right-hand sides of CP-SCF equations     ...
----------------------------------------------
One electron integral derivatives                ... done   (      1.3 sec)
Transforming the overlap derivative matrices     ... done   (      0.0 sec)
[1597914166.599471] [comp0810:26536:0]            sys.c:618  UCX  ERROR shmget(size=6291456 flags=0xfb0) for mm_recv_desc failed: Operation not permitted, please check shared memory limits by 'ipcs -l'
[1597914166.605962] [comp0810:26535:0]            sys.c:618  UCX  ERROR shmget(size=6291456 flags=0xfb0) for mm_recv_desc failed: Operation not permitted, please check shared memory limits by 'ipcs -l'
Adding tr(S(x)F(y) C-PCM term to the hessian     ... done   (      0.3 sec)
Making the Q(x) pseudodensities                  ... done   (      0.0 sec)
Adding the E*S(x)*S(y) terms to the Hessian      ... done   (      0.0 sec)
Calculating energy weighted overlap derivatives  ... done   (      0.0 sec)
Two electron integral derivatives (RI)           ... done   (      0.7 sec)
Exchange-correlation integral derivatives        ... done   (      4.0 sec)
tr(F(y)Q(x)) contribution to the Hessian         ... done   (      0.0 sec)
Response fock operator R(S(x)) (RIJCOSX)         ... done   (      1.0 sec)
XC Response fock operator R(S(x))                ... done   (      1.3 sec)
tr(F(y)S(x)) contribution to the Hessian         ... done   (      0.0 sec)
Transforming and finalizing RHSs                 ... done   (      0.0 sec)

----------------------------------------------
Solving the CP-SCF equations (RIJCOSX)           ...
----------------------------------------------
     CP-SCF ITERATION   0: 
     CP-SCF ITERATION   1:      0.001203639856
     CP-SCF ITERATION   2:      0.000163460962
     CP-SCF ITERATION   3:      0.000009881533
     CP-SCF ITERATION   4:      0.000001193945
     CP-SCF ITERATION   5:      0.000000767036

                                                 ... done   (      7.6 sec)
Forming perturbed density Hessian contributions  ... done   (      0.0 sec)
Calculating [Q*(d^2 A/dXdY)*Q  ] C-PCM term      ... done   (      0.0 sec)
Calculating [d^2(V_N)/(dXdY)*Q ] C-PCM term      ... done   (      0.0 sec)
Calculating [d^2(V_el)/(dXdY)*Q] C-PCM term      ... done   (      0.1 sec)
Calculating C-PCM term that depends on dQ/dX     ... done   (      0.0 sec)
2nd integral derivative contribs (RI)            ... done   (      2.2 sec)
Exchange-correlation Hessian                     ... done   (      4.7 sec)
Dispersion correction in the Hessian             ... done   (      0.6 sec)
Dipol derivatives                                ... done   (      0.1 sec)

Total SCF Hessian time: 0 days 0 hours 0 min 24 sec 

Writing the Hessian file to the disk             ... done


Maximum memory used throughout the entire calculation: 133.1 MB

-----------------------
VIBRATIONAL FREQUENCIES
-----------------------

Scaling factor for frequencies =  1.000000000  (already applied!)

   0:         0.00 cm**-1
   1:         0.00 cm**-1
   2:         0.00 cm**-1
   3:         0.00 cm**-1
   4:         0.00 cm**-1
   5:         0.00 cm**-1
   6:      -382.82 cm**-1 ***imaginary mode***
   7:      -206.88 cm**-1 ***imaginary mode***
   8:       292.63 cm**-1
   9:       460.47 cm**-1
  10:       694.05 cm**-1
  11:       829.84 cm**-1
  12:       906.95 cm**-1
  13:      1024.37 cm**-1
  14:      1113.84 cm**-1
  15:      1156.41 cm**-1
  16:      1232.95 cm**-1
  17:      1324.44 cm**-1
  18:      1350.50 cm**-1
  19:      1392.53 cm**-1
  20:      1396.92 cm**-1
  21:      1436.01 cm**-1
  22:      1441.53 cm**-1
  23:      3053.28 cm**-1
  24:      3162.05 cm**-1
  25:      3169.20 cm**-1
  26:      3266.86 cm**-1
  27:      3276.36 cm**-1
  28:      3337.65 cm**-1
  29:      3457.18 cm**-1


------------
NORMAL MODES
------------

These modes are the Cartesian displacements weighted by the diagonal matrix
M(i,i)=1/sqrt(m[i]) where m[i] is the mass of the displaced atom
Thus, these vectors are normalized but *not* orthogonal

                  0          1          2          3          4          5    
      0       0.000000   0.000000   0.000000   0.000000   0.000000   0.000000
      1       0.000000   0.000000   0.000000   0.000000   0.000000   0.000000
      2       0.000000   0.000000   0.000000   0.000000   0.000000   0.000000
      3       0.000000   0.000000   0.000000   0.000000   0.000000   0.000000
      4       0.000000   0.000000   0.000000   0.000000   0.000000   0.000000
      5       0.000000   0.000000   0.000000   0.000000   0.000000   0.000000
      6       0.000000   0.000000   0.000000   0.000000   0.000000   0.000000
      7       0.000000   0.000000   0.000000   0.000000   0.000000   0.000000
      8       0.000000   0.000000   0.000000   0.000000   0.000000   0.000000
      9       0.000000   0.000000   0.000000   0.000000   0.000000   0.000000
     10       0.000000   0.000000   0.000000   0.000000   0.000000   0.000000
     11       0.000000   0.000000   0.000000   0.000000   0.000000   0.000000
     12       0.000000   0.000000   0.000000   0.000000   0.000000   0.000000
     13       0.000000   0.000000   0.000000   0.000000   0.000000   0.000000
     14       0.000000   0.000000   0.000000   0.000000   0.000000   0.000000
     15       0.000000   0.000000   0.000000   0.000000   0.000000   0.000000
     16       0.000000   0.000000   0.000000   0.000000   0.000000   0.000000
     17       0.000000   0.000000   0.000000   0.000000   0.000000   0.000000
     18       0.000000   0.000000   0.000000   0.000000   0.000000   0.000000
     19       0.000000   0.000000   0.000000   0.000000   0.000000   0.000000
     20       0.000000   0.000000   0.000000   0.000000   0.000000   0.000000
     21       0.000000   0.000000   0.000000   0.000000   0.000000   0.000000
     22       0.000000   0.000000   0.000000   0.000000   0.000000   0.000000
     23       0.000000   0.000000   0.000000   0.000000   0.000000   0.000000
     24       0.000000   0.000000   0.000000   0.000000   0.000000   0.000000
     25       0.000000   0.000000   0.000000   0.000000   0.000000   0.000000
     26       0.000000   0.000000   0.000000   0.000000   0.000000   0.000000
     27       0.000000   0.000000   0.000000   0.000000   0.000000   0.000000
     28       0.000000   0.000000   0.000000   0.000000   0.000000   0.000000
     29       0.000000   0.000000   0.000000   0.000000   0.000000   0.000000
                  6          7          8          9         10         11    
      0       0.007042  -0.004141   0.119048  -0.043881   0.033200   0.038676
      1       0.015967   0.007242   0.059634  -0.010393   0.001927  -0.070767
      2       0.029633   0.012287  -0.038396   0.000821   0.024393  -0.012278
      3      -0.006719  -0.004437   0.022423  -0.004393   0.000064  -0.026315
      4      -0.014155  -0.031547  -0.136594   0.038940   0.031462  -0.000425
      5      -0.034375  -0.068550   0.074423   0.000249   0.086061  -0.019232
      6       0.008572   0.009339  -0.135922   0.078104  -0.060779  -0.073509
      7      -0.017394   0.023631   0.027568  -0.006482   0.019331   0.063047
      8      -0.005999   0.040498   0.029747   0.117335  -0.058477   0.023426
      9       0.026475   0.153570   0.357061  -0.143702  -0.176012   0.493784
     10      -0.015354   0.129747   0.083520  -0.000034   0.056612  -0.082707
     11       0.156548  -0.462508  -0.112511  -0.049388  -0.214147   0.074834
     12       0.000752   0.111885  -0.092695   0.030366  -0.138592  -0.079209
     13      -0.045006   0.365432   0.275224  -0.046751  -0.003209   0.197879
     14      -0.026906   0.425224  -0.093085   0.051739  -0.165650   0.074163
     15      -0.006111  -0.284674   0.236448  -0.080491   0.404604  -0.075749
     16       0.144717  -0.427345   0.106310  -0.105593  -0.221543   0.203944
     17       0.021116   0.149719  -0.081966   0.022543  -0.078413   0.000908
     18       0.026042   0.016024  -0.020710  -0.126889   0.227313  -0.084432
     19      -0.100324  -0.150503  -0.178545  -0.260992  -0.471872   0.090771
     20      -0.046376  -0.082230   0.076113  -0.003607  -0.003813   0.000147
     21      -0.022109  -0.012533   0.014079   0.003066  -0.103224   0.353815
     22      -0.000746   0.008541  -0.107815   0.128337   0.215045   0.001793
     23      -0.080926  -0.167746   0.004500  -0.223503  -0.381438   0.008937
     24      -0.308144  -0.052174  -0.505453   0.045939   0.237662   0.406751
     25       0.093621   0.008199   0.068861   0.132242   0.004088   0.095487
     26      -0.570252   0.132736  -0.174094  -0.673921   0.011843  -0.205229
     27       0.177099   0.058836  -0.054864  -0.083740  -0.123884  -0.286342
     28       0.108763   0.073967   0.340990  -0.110125  -0.207324  -0.410118
     29       0.674780   0.192656  -0.402687  -0.534731   0.212285   0.142560
                 12         13         14         15         16         17    
      0      -0.213014  -0.026111   0.074880   0.041127  -0.000672  -0.049836
      1      -0.018322   0.026995  -0.130503   0.077813   0.031384   0.064392
      2       0.036019  -0.112882   0.029632   0.010475   0.092826  -0.014202
      3       0.044560   0.061917  -0.160103  -0.049522   0.042024  -0.124279
      4      -0.097812  -0.021542   0.077880  -0.201343  -0.001510  -0.024304
      5       0.055135   0.149301   0.030267   0.002394  -0.055229   0.022082
      6       0.141430  -0.004833   0.101719   0.036052  -0.012964   0.005323
      7       0.059680   0.005525   0.028805   0.157418  -0.024273  -0.025696
      8      -0.062757  -0.087713  -0.064199  -0.025876  -0.027311  -0.004963
      9       0.200616  -0.026551   0.432710  -0.307108  -0.135197   0.304211
     10       0.031818  -0.055791  -0.118776   0.069455   0.095537   0.014065
     11      -0.109342   0.232868   0.005882  -0.007290  -0.173116   0.159237
     12      -0.671671   0.272839  -0.047909   0.128014  -0.114692   0.323331
     13       0.379747  -0.029557   0.084780  -0.161468  -0.056727  -0.281499
     14      -0.133032   0.170595   0.061857  -0.079966  -0.104731   0.094477
     15       0.065925  -0.534483   0.198624  -0.015636   0.262736   0.281020
     16       0.209510   0.160149   0.043146  -0.203575  -0.108055  -0.306912
     17      -0.084226   0.047185  -0.024080   0.054672   0.016176  -0.075561
     18       0.189260  -0.401023  -0.487779  -0.217224  -0.774342   0.201497
     19      -0.101757  -0.398685  -0.104782   0.074549   0.024856   0.041194
     20       0.023087   0.188347   0.062125   0.049108   0.094312  -0.033983
     21       0.202159   0.147389  -0.529725  -0.387963   0.448003   0.475603
     22      -0.078416   0.122579   0.099320  -0.323892   0.006113   0.039312
     23       0.010331  -0.207714  -0.049790   0.268293  -0.040244  -0.087834
     24       0.125223   0.097716   0.015152   0.505897  -0.038651   0.239336
     25       0.056320  -0.021805   0.018072   0.190523  -0.038664  -0.010934
     26      -0.006849   0.090845   0.059198  -0.211127   0.044697  -0.046636
     27       0.210497   0.075052   0.222376  -0.035528   0.013877   0.186275
     28       0.175473   0.092294   0.262043  -0.049391   0.010201   0.333290
     29      -0.038338   0.089087  -0.063963   0.081296   0.040339  -0.044467
                 18         19         20         21         22         23    
      0      -0.149119  -0.015571   0.002466   0.003094   0.009172   0.000522
      1       0.026507  -0.025535  -0.015499   0.024067   0.029301   0.000570
      2      -0.014753   0.009625   0.010679   0.039783  -0.020516  -0.001755
      3       0.138008   0.090912   0.003426   0.004691   0.053793   0.016222
      4       0.008795  -0.006203   0.065671   0.009503   0.045440  -0.025478
      5      -0.018330  -0.009332  -0.044118   0.018990  -0.033621   0.067211
      6      -0.019882  -0.102106  -0.046435   0.003144  -0.034541  -0.001466
      7       0.020404  -0.066102  -0.025118   0.000271  -0.022215  -0.000749
      8       0.008045   0.043829   0.012591  -0.001322   0.013535   0.001706
      9       0.476474  -0.015689  -0.054191   0.406009   0.160558   0.001289
     10       0.023873   0.012240   0.041937   0.122038  -0.113498   0.012483
     11       0.023411  -0.130648  -0.212877  -0.360076   0.520392   0.002594
     12       0.309332  -0.038039   0.055022  -0.078719  -0.330342  -0.017425
     13      -0.247877   0.031452  -0.044430  -0.501753   0.172551  -0.016373
     14       0.237542   0.029703   0.032711  -0.477367  -0.248541   0.015991
     15       0.403263  -0.004013  -0.007538  -0.404795  -0.129843   0.003473
     16      -0.062711   0.172134   0.239192  -0.038764  -0.605478   0.001023
     17      -0.183332  -0.017114  -0.015240   0.168211   0.093718   0.007844
     18      -0.156948  -0.049408   0.048798   0.040353  -0.072203  -0.164582
     19      -0.092329   0.377223  -0.574758   0.006306  -0.134640   0.071008
     20       0.033840   0.042864  -0.090067   0.014178  -0.019414  -0.942932
     21      -0.416775  -0.282583   0.076905  -0.050618  -0.110304  -0.005329
     22      -0.070450   0.120346  -0.200473   0.032105  -0.035899   0.242056
     23       0.119926  -0.320464   0.581528  -0.034895   0.154293   0.116563
     24      -0.105340   0.535399   0.273193  -0.032753   0.116091  -0.002483
     25       0.015653  -0.036559  -0.018285  -0.000183  -0.019403   0.000228
     26       0.010687  -0.148682  -0.041718   0.008791  -0.021821  -0.000709
     27      -0.140708   0.173252   0.090917  -0.009712   0.027343   0.003004
     28      -0.229942   0.488996   0.258281  -0.022985   0.110482  -0.004696
     29       0.056269   0.018585  -0.005918  -0.003408   0.005171   0.000363
                 24         25         26         27         28         29    
      0       0.045685   0.000289  -0.036775  -0.002206  -0.000627  -0.000224
      1      -0.020488  -0.006517  -0.085204   0.014399  -0.000214   0.000274
      2       0.001691  -0.003489   0.012460   0.092831  -0.000612  -0.000094
      3      -0.001973   0.001754  -0.000089   0.000280  -0.002331   0.000411
      4      -0.001472   0.072979  -0.004959   0.002930  -0.001979  -0.002201
      5      -0.003196   0.049686  -0.002144   0.004568   0.002232  -0.000916
      6       0.000129   0.000202  -0.000117   0.000518   0.053694   0.051855
      7       0.000067  -0.002359   0.000167  -0.000121   0.034223  -0.082892
      8       0.000008   0.000781   0.000075  -0.000143  -0.000122  -0.018942
      9      -0.000404   0.000876  -0.013007   0.002682   0.001294  -0.001802
     10       0.582205   0.075606   0.699309  -0.311361   0.001288  -0.000379
     11       0.148943   0.019681   0.182654  -0.066023   0.000537   0.000319
     12      -0.364008  -0.004705   0.430275   0.284138   0.003660  -0.000307
     13      -0.286827  -0.003017   0.323260   0.221390   0.000378  -0.000177
     14       0.350602   0.000163  -0.411179  -0.256577  -0.001346   0.000933
     15      -0.162618   0.006416   0.020148  -0.259691   0.002584   0.000773
     16      -0.057766   0.000768  -0.004609  -0.081408   0.000271   0.000413
     17      -0.517056   0.025835   0.078819  -0.785602   0.006769   0.001977
     18       0.004819  -0.043196   0.001667  -0.007111  -0.000713   0.000274
     19      -0.003097   0.031471   0.000240   0.003695  -0.000517  -0.000525
     20       0.025231  -0.242946   0.004513  -0.034604  -0.001932   0.001623
     21       0.000869   0.027569  -0.003117   0.002362   0.000882  -0.000211
     22       0.026156  -0.887431   0.052483  -0.037684   0.003557   0.019062
     23       0.010910  -0.366999   0.022048  -0.016957  -0.000742   0.006700
     24       0.001509   0.001256   0.001693  -0.000480   0.001467   0.014320
     25      -0.003286   0.010856   0.003053  -0.002060  -0.702057   0.683618
     26      -0.001211   0.005223  -0.000201   0.000180  -0.125843   0.126677
     27      -0.002555  -0.014975   0.002992  -0.005124  -0.613735  -0.633167
     28       0.003482   0.007919  -0.001362   0.002384   0.315408   0.308652
     29       0.000415  -0.000727  -0.000465   0.000712   0.104715   0.099511


-----------
IR SPECTRUM
-----------

 Mode    freq (cm**-1)   T**2         TX         TY         TZ
-------------------------------------------------------------------
   8:       292.63    8.983885  (  0.232253   0.898465  -2.850036)
   9:       460.47   53.418759  ( -1.219202   0.324044  -7.199118)
  10:       694.05    3.497012  (  1.164615  -1.390277  -0.455865)
  11:       829.84    2.360746  (  1.187887   0.846703   0.482456)
  12:       906.95    3.375962  (  1.070203   1.453312  -0.344255)
  13:      1024.37    3.843428  (  0.895695  -0.073607   1.742338)
  14:      1113.84    0.870417  (  0.335492   0.859988  -0.135213)
  15:      1156.41    0.436469  ( -0.370451  -0.165959   0.521242)
  16:      1232.95    0.230395  (  0.111637   0.354594  -0.303638)
  17:      1324.44    0.817726  (  0.267486  -0.798823   0.328723)
  18:      1350.50    3.928752  (  1.943343  -0.374175   0.110282)
  19:      1392.53    5.332022  (  0.844117   2.077449  -0.551083)
  20:      1396.92    3.098386  (  0.679226  -1.146708   1.149826)
  21:      1436.01   10.588038  ( -0.135056  -1.738697  -2.747131)
  22:      1441.53    8.957977  ( -0.975156  -2.315051   1.627141)
  23:      3053.28   33.116430  (  1.884403  -2.832180   4.641574)
  24:      3162.05   31.626823  (  5.214169  -2.099969   0.171448)
  25:      3169.20   23.961327  (  0.069605   4.434759   2.071085)
  26:      3266.86   30.794659  ( -2.310779  -5.031408   0.374015)
  27:      3276.36   28.239706  (  0.193457   0.852100   5.241775)
  28:      3337.65   19.948931  (  3.424551   2.410894  -1.552085)
  29:      3457.18   13.730727  (  2.113122  -2.961696  -0.702706)

The first frequency considered to be a vibration is 8
The total number of vibrations considered is 22


--------------------------
THERMOCHEMISTRY AT 298.15K
--------------------------

Temperature         ... 298.15 K
Pressure            ... 1.00 atm
Total Mass          ... 43.09 AMU

Throughout the following assumptions are being made:
  (1) The electronic state is orbitally nondegenerate
      but the spin degeneracy is treated
  (2) There are no thermally accessible electronically excited states
  (3) Hindered rotations indicated by low frequency modes are not
      treated as such but are treated as vibrations and this may
      cause some error
  (4) All equations used are the standard statistical mechanics
      equations for an ideal gas
  (5) All vibrations are strictly harmonic

freq.     292.63  E(vib)   ...       0.27 
freq.     460.47  E(vib)   ...       0.16 
freq.     694.05  E(vib)   ...       0.07 
freq.     829.84  E(vib)   ...       0.04 
freq.     906.95  E(vib)   ...       0.03 
freq.    1024.37  E(vib)   ...       0.02 
freq.    1113.84  E(vib)   ...       0.01 
freq.    1156.41  E(vib)   ...       0.01 
freq.    1232.95  E(vib)   ...       0.01 
freq.    1324.44  E(vib)   ...       0.01 
freq.    1350.50  E(vib)   ...       0.01 
freq.    1392.53  E(vib)   ...       0.00 
freq.    1396.92  E(vib)   ...       0.00 
freq.    1436.01  E(vib)   ...       0.00 
freq.    1441.53  E(vib)   ...       0.00 
freq.    3053.28  E(vib)   ...       0.00 
freq.    3162.05  E(vib)   ...       0.00 
freq.    3169.20  E(vib)   ...       0.00 
freq.    3266.86  E(vib)   ...       0.00 
freq.    3276.36  E(vib)   ...       0.00 
freq.    3337.65  E(vib)   ...       0.00 
freq.    3457.18  E(vib)   ...       0.00 

------------
INNER ENERGY
------------

The inner energy is: U= E(el) + E(ZPE) + E(vib) + E(rot) + E(trans)
    E(el)   - is the total energy from the electronic structure calculation
              = E(kin-el) + E(nuc-el) + E(el-el) + E(nuc-nuc)
    E(ZPE)  - the the zero temperature vibrational energy from the frequency calculation
    E(vib)  - the the finite temperature correction to E(ZPE) due to population
              of excited vibrational states
    E(rot)  - is the rotational thermal energy
    E(trans)- is the translational thermal energy

Summary of contributions to the inner energy U:
Electronic energy                ...   -118.23632653 Eh
Zero point energy                ...      0.08833833 Eh      55.43 kcal/mol
Thermal vibrational correction   ...      0.00106132 Eh       0.67 kcal/mol
Thermal rotational correction    ...      0.00141627 Eh       0.89 kcal/mol
Thermal translational correction ...      0.00141627 Eh       0.89 kcal/mol
-----------------------------------------------------------------------
Total thermal energy                   -118.14409434 Eh


Summary of corrections to the electronic energy:
(perhaps to be used in another calculation)
Total thermal correction                  0.00389386 Eh       2.44 kcal/mol
Non-thermal (ZPE) correction              0.08833833 Eh      55.43 kcal/mol
-----------------------------------------------------------------------
Total correction                          0.09223219 Eh      57.88 kcal/mol


--------
ENTHALPY
--------

The enthalpy is H = U + kB*T
                kB is Boltzmann's constant
Total free energy                 ...   -118.14409434 Eh 
Thermal Enthalpy correction       ...      0.00094421 Eh       0.59 kcal/mol
-----------------------------------------------------------------------
Total Enthalpy                    ...   -118.14315013 Eh


Note: Only C1 symmetry has been detected, increase convergence thresholds 
      if your molecule has a higher symmetry. Symmetry factor of 1.0 is   
      used for the rotational entropy correction. 
 

Note: Rotational entropy computed according to Herzberg 
Infrared and Raman Spectra, Chapter V,1, Van Nostrand Reinhold, 1945 
Point Group:  C1, Symmetry Number:   1  
Rotational constants in cm-1:     1.145249     0.295280     0.260668 

Vibrational entropy computed according to the QRRHO of S. Grimme
Chem.Eur.J. 2012 18 9955


-------
ENTROPY
-------

The entropy contributions are T*S = T*(S(el)+S(vib)+S(rot)+S(trans))
     S(el)   - electronic entropy
     S(vib)  - vibrational entropy
     S(rot)  - rotational entropy
     S(trans)- translational entropy
The entropies will be listed as mutliplied by the temperature to get
units of energy

Electronic entropy                ...      0.00065446 Eh      0.41 kcal/mol
Vibrational entropy               ...      0.00152354 Eh      0.96 kcal/mol
Rotational entropy                ...      0.01065739 Eh      6.69 kcal/mol
Translational entropy             ...      0.01767888 Eh     11.09 kcal/mol
-----------------------------------------------------------------------
Final entropy term                ...      0.03051426 Eh     19.15 kcal/mol

In case the symmetry of your molecule has not been determined correctly
or in case you have a reason to use a different symmetry number we print 
out the resulting rotational entropy values for sn=1,12 :
 --------------------------------------------------------
|  sn= 1 | S(rot)=       0.01065739 Eh      6.69 kcal/mol|
|  sn= 2 | S(rot)=       0.01000293 Eh      6.28 kcal/mol|
|  sn= 3 | S(rot)=       0.00962010 Eh      6.04 kcal/mol|
|  sn= 4 | S(rot)=       0.00934847 Eh      5.87 kcal/mol|
|  sn= 5 | S(rot)=       0.00913778 Eh      5.73 kcal/mol|
|  sn= 6 | S(rot)=       0.00896564 Eh      5.63 kcal/mol|
|  sn= 7 | S(rot)=       0.00882009 Eh      5.53 kcal/mol|
|  sn= 8 | S(rot)=       0.00869402 Eh      5.46 kcal/mol|
|  sn= 9 | S(rot)=       0.00858281 Eh      5.39 kcal/mol|
|  sn=10 | S(rot)=       0.00848333 Eh      5.32 kcal/mol|
|  sn=11 | S(rot)=       0.00839334 Eh      5.27 kcal/mol|
|  sn=12 | S(rot)=       0.00831118 Eh      5.22 kcal/mol|
 --------------------------------------------------------


-------------------
GIBBS FREE ENERGY
-------------------

The Gibbs free energy is G = H - T*S

Total enthalpy                    ...   -118.14315013 Eh 
Total entropy correction          ...     -0.03051426 Eh    -19.15 kcal/mol
-----------------------------------------------------------------------
Final Gibbs free energy         ...   -118.17366439 Eh

For completeness - the Gibbs free energy minus the electronic energy
G-E(el)                           ...      0.06266213 Eh     39.32 kcal/mol

[1597914190.040878] [comp0810:26563:0]            sys.c:618  UCX  ERROR shmget(size=2097152 flags=0xfb0) for mm_recv_desc failed: Operation not permitted, please check shared memory limits by 'ipcs -l'
[1597914190.045950] [comp0810:26565:0]            sys.c:618  UCX  ERROR shmget(size=2097152 flags=0xfb0) for mm_recv_desc failed: Operation not permitted, please check shared memory limits by 'ipcs -l'
[1597914190.061171] [comp0810:26564:0]            sys.c:618  UCX  ERROR shmget(size=2097152 flags=0xfb0) for mm_recv_desc failed: Operation not permitted, please check shared memory limits by 'ipcs -l'
[1597914190.065770] [comp0810:26566:0]            sys.c:618  UCX  ERROR shmget(size=2097152 flags=0xfb0) for mm_recv_desc failed: Operation not permitted, please check shared memory limits by 'ipcs -l'
[1597914190.085129] [comp0810:26564:0]            sys.c:618  UCX  ERROR shmget(size=2097152 flags=0xb80) for ucp_am_bufs failed: Operation not permitted, please check shared memory limits by 'ipcs -l'
[1597914190.085565] [comp0810:26563:0]            sys.c:618  UCX  ERROR shmget(size=2097152 flags=0xb80) for ucp_am_bufs failed: Operation not permitted, please check shared memory limits by 'ipcs -l'
[1597914190.091064] [comp0810:26566:0]            sys.c:618  UCX  ERROR shmget(size=2097152 flags=0xb80) for ucp_am_bufs failed: Operation not permitted, please check shared memory limits by 'ipcs -l'
[1597914190.085624] [comp0810:26565:0]            sys.c:618  UCX  ERROR shmget(size=2097152 flags=0xb80) for ucp_am_bufs failed: Operation not permitted, please check shared memory limits by 'ipcs -l'

Timings for individual modules:

Sum of individual times         ...       32.219 sec (=   0.537 min)
GTO integral calculation        ...        0.965 sec (=   0.016 min)   3.0 %
SCF iterations                  ...        5.881 sec (=   0.098 min)  18.3 %
Analytical frequency calculation...       25.373 sec (=   0.423 min)  78.8 %
                             ****ORCA TERMINATED NORMALLY****
TOTAL RUN TIME: 0 days 0 hours 0 minutes 33 seconds 310 msec
