
                                 *****************
                                 * O   R   C   A *
                                 *****************

           --- An Ab Initio, DFT and Semiempirical electronic structure package ---

                  #######################################################
                  #                        -***-                        #
                  #          Department of theory and spectroscopy      #
                  #               Directorship: Frank Neese             #
                  #        Max Planck Institute fuer Kohlenforschung    #
                  #                Kaiser Wilhelm Platz 1               #
                  #                 D-45470 Muelheim/Ruhr               #
                  #                      Germany                        #
                  #                                                     #
                  #                  All rights reserved                #
                  #                        -***-                        #
                  #######################################################


                         Program Version 4.1.1  - RELEASE  -


 With contributions from (in alphabetic order):
   Daniel Aravena         : Magnetic Properties
   Michael Atanasov       : Ab Initio Ligand Field Theory
   Alexander A. Auer      : GIAO ZORA
   Ute Becker             : Parallelization
   Giovanni Bistoni       : ED, Open-shell LED
   Martin Brehm           : Molecular dynamics
   Dmytro Bykov           : SCF Hessian
   Vijay G. Chilkuri      : MRCI spin determinant printing
   Dipayan Datta          : RHF DLPNO-CCSD density
   Achintya Kumar Dutta   : EOM-CC, STEOM-CC
   Dmitry Ganyushin       : Spin-Orbit,Spin-Spin,Magnetic field MRCI
   Miquel Garcia          : C-PCM Hessian
   Yang Guo               : DLPNO-NEVPT2, CIM, IAO-localization
   Andreas Hansen         : Spin unrestricted coupled pair/coupled cluster methods
   Benjamin Helmich-Paris : CASSCF linear response (MC-RPA)
   Lee Huntington         : MR-EOM, pCC
   Robert Izsak           : Overlap fitted RIJCOSX, COSX-SCS-MP3, EOM
   Christian Kollmar      : KDIIS, OOCD, Brueckner-CCSD(T), CCSD density
   Simone Kossmann        : Meta GGA functionals, TD-DFT gradient, OOMP2, MP2 Hessian
   Martin Krupicka        : AUTO-CI
   Lucas Lang             : DCDCAS
   Dagmar Lenk            : GEPOL surface, SMD
   Dimitrios Liakos       : Extrapolation schemes; parallel MDCI
   Dimitrios Manganas     : ROCIS; embedding schemes
   Dimitrios Pantazis     : SARC Basis sets
   Taras Petrenko         : DFT Hessian,TD-DFT gradient, ASA, ECA, R-Raman, ABS, FL, XAS/XES, NRVS
   Peter Pinski           : DLPNO-MP2, DLPNO-MP2 Gradient
   Christoph Reimann      : Effective Core Potentials
   Marius Retegan         : Local ZFS, SOC
   Christoph Riplinger    : Optimizer, TS searches, QM/MM, DLPNO-CCSD(T), (RO)-DLPNO pert. Triples
   Tobias Risthaus        : Range-separated hybrids, TD-DFT gradient, RPA, STAB
   Michael Roemelt        : Restricted open shell CIS
   Masaaki Saitow         : Open-shell DLPNO
   Barbara Sandhoefer     : DKH picture change effects
   Avijit Sen             : IP-ROCIS
   Kantharuban Sivalingam : CASSCF convergence, NEVPT2, FIC-MRCI
   Bernardo de Souza      : ESD, SOC TD-DFT
   Georgi Stoychev        : AutoAux, RI-MP2 NMR
   Willem Van den Heuvel  : Paramagnetic NMR
   Boris Wezisla          : Elementary symmetry handling
   Frank Wennmohs         : Technical directorship


 We gratefully acknowledge several colleagues who have allowed us to
 interface, adapt or use parts of their codes:
   Stefan Grimme, W. Hujo, H. Kruse,             : VdW corrections, initial TS optimization,
                  C. Bannwarth                     DFT functionals, gCP, sTDA/sTD-DF
   Ed Valeev                                     : LibInt (2-el integral package), F12 methods
   Garnet Chan, S. Sharma, J. Yang, R. Olivares  : DMRG
   Ulf Ekstrom                                   : XCFun DFT Library
   Mihaly Kallay                                 : mrcc  (arbitrary order and MRCC methods)
   Andreas Klamt, Michael Diedenhofen            : otool_cosmo (COSMO solvation model)
   Jiri Pittner, Ondrej Demel                    : Mk-CCSD
   Frank Weinhold                                : gennbo (NPA and NBO analysis)
   Christopher J. Cramer and Donald G. Truhlar   : smd solvation model
   Lars Goerigk                                  : TD-DFT with DH, B97 family of functionals
   V. Asgeirsson, H. Jonsson                     : NEB implementation
   FAccTs GmbH                                   : IRC, NEB, NEB-TS, Multilevel


 Your calculation uses the libint2 library for the computation of 2-el integrals
 For citations please refer to: http://libint.valeyev.net

 This ORCA versions uses:
   CBLAS   interface :  Fast vector & matrix operations
   LAPACKE interface :  Fast linear algebra routines
   SCALAPACK package :  Parallel linear algebra routines


Your calculation utilizes the atom-pairwise dispersion correction
with the Becke-Johnson damping scheme (D3BJ)
Cite in your paper:
S.Grimme, S.Ehrlich, L.Goerigk, J Comput Chem, (2011), 32, 1456–1465 
S.Grimme, J.Antony, S.Ehrlich and H.Krieg, J.Chem.Phys., 132, (2010), 154104 
   

----- Orbital basis set information -----
Your calculation utilizes the basis: def2-SVP
   F. Weigend and R. Ahlrichs, Phys. Chem. Chem. Phys. 7, 3297 (2005).

----- AuxJ basis set information -----
Your calculation utilizes the auxiliary basis: def2/J
   F. Weigend, Phys. Chem. Chem. Phys. 8, 1057 (2006).

================================================================================
                                        WARNINGS
                       Please study these warnings very carefully!
================================================================================


WARNING: Geometry Optimization
  ===> : Switching off AutoStart
         For restart on a previous wavefunction, please use MOREAD

INFO   : the flag for use of LIBINT has been found!

================================================================================
                                       INPUT FILE
================================================================================
NAME = xtb1d_06_24_orca_opt.inp
|  1> ! OptTS Freq PBE0 RIJCOSX D3BJ def2-SVP def2/J PAL8
|  2> %geom
|  3> Calc_Hess true
|  4> Recalc_Hess 40
|  5> Trust 0.2
|  6> MaxIter 100
|  7> end
|  8> %geom
|  9> modify_internal
| 10> { B 0 6 A } end
| 11> end
| 12> %geom
| 13> modify_internal
| 14> { B 0 6 A } end
| 15> end
| 16> %geom MaxIter 100 end
| 17> %scf 
| 18> maxiter 250 
| 19> end
| 20> % maxcore 4000
| 21> *xyz 0 1
| 22> C   0.68570534  0.67595464 -0.88822454 
| 23> C   1.30751647 -0.26547679 -0.02369097 
| 24> C   0.76585503 -0.36332497  1.29554829 
| 25> O   0.61672220  0.83510387  2.02041993 
| 26> C  -0.85373665 -0.87835656  1.11903127 
| 27> C  -1.46863742  0.08401440  0.26816732 
| 28> C  -0.96253059  0.18225301 -1.05321307 
| 29> H   0.58509796  1.67366234 -0.47130870 
| 30> H   1.07712533  0.70807034 -1.89978992 
| 31> H   1.70814265 -1.17419724 -0.45017658 
| 32> H   1.23877047 -1.13383024  1.91925336 
| 33> H   1.46338880  1.29297337  2.02638077 
| 34> H  -0.75369317 -1.87467782  0.69678991 
| 35> H  -1.23935736 -0.91052748  2.13223392 
| 36> H  -1.87864762  0.97111904  0.72821381 
| 37> H  -1.42169793  0.94029240 -1.67916290 
| 38> H  -0.87002351 -0.76295230 -1.58067191 
| 39> *
| 40> 
| 41>                          ****END OF INPUT****
================================================================================

                       *****************************
                       * Geometry Optimization Run *
                       *****************************

Geometry optimization settings:
Update method            Update   .... Bofill
Choice of coordinates    CoordSys .... Z-matrix Internals
Initial Hessian          InHess   .... Almoef's Model

Convergence Tolerances:
Energy Change            TolE     ....  5.0000e-06 Eh
Max. Gradient            TolMAXG  ....  3.0000e-04 Eh/bohr
RMS Gradient             TolRMSG  ....  1.0000e-04 Eh/bohr
Max. Displacement        TolMAXD  ....  4.0000e-03 bohr
RMS Displacement         TolRMSD  ....  2.0000e-03 bohr

------------------------------------------------------------------------------
                        ORCA OPTIMIZATION COORDINATE SETUP
------------------------------------------------------------------------------

The optimization will be done in new redundant internal coordinates
Making redundant internal coordinates   ...  (new redundants) Bond   6,  0 is already included
Bond   6,  0 is already included
done
Following TS mode number                ...     0
Evaluating the initial hessian          ...  (Is done on the fly) done
Evaluating the coordinates              ...  done
Calculating the B-matrix                .... done
Calculating the G-matrix                .... done
Diagonalizing the G-matrix              .... done
The first mode is                       ....   48
The number of degrees of freedom        ....   45

    -----------------------------------------------------------------
                    Redundant Internal Coordinates


    -----------------------------------------------------------------
         Definition                    Initial Value    d2E/dq (diagonal element)
    -----------------------------------------------------------------
      1. B(C   1,C   0)                  1.4214         0.000000   
      2. B(C   2,C   1)                  1.4295         0.000000   
      3. B(O   3,C   2)                  1.4085         0.000000   
      4. B(C   4,C   2)                  1.7087         0.000000   
      5. B(C   5,C   4)                  1.4242         0.000000   
      6. B(C   6,C   5)                  1.4184         0.000000   
      7. B(C   6,C   0)                  1.7285         0.000000   
      8. B(H   7,C   0)                  1.0860         0.000000   
      9. B(H   8,C   0)                  1.0851         0.000000   
     10. B(H   9,C   1)                  1.0808         0.000000   
     11. B(H  10,C   2)                  1.0983         0.000000   
     12. B(H  11,O   3)                  0.9626         0.000000   
     13. B(H  12,C   4)                  1.0867         0.000000   
     14. B(H  13,C   4)                  1.0846         0.000000   
     15. B(H  14,C   5)                  1.0801         0.000000   
     16. B(H  15,C   6)                  1.0850         0.000000   
     17. B(H  16,C   6)                  1.0864         0.000000   
     18. A(C   6,C   0,H   8)          105.2742         0.000000   
     19. A(C   1,C   0,H   7)          114.5518         0.000000   
     20. A(H   7,C   0,H   8)          111.3526         0.000000   
     21. A(C   6,C   0,H   7)          102.1642         0.000000   
     22. A(C   1,C   0,C   6)          106.6207         0.000000   
     23. A(C   1,C   0,H   8)          115.3914         0.000000   
     24. A(C   0,C   1,H   9)          118.6214         0.000000   
     25. A(C   0,C   1,C   2)          116.1613         0.000000   
     26. A(C   2,C   1,H   9)          116.5561         0.000000   
     27. A(C   1,C   2,C   4)          106.5270         0.000000   
     28. A(C   4,C   2,H  10)          104.7938         0.000000   
     29. A(C   1,C   2,O   3)          117.1829         0.000000   
     30. A(C   1,C   2,H  10)          114.1384         0.000000   
     31. A(O   3,C   2,C   4)          102.0797         0.000000   
     32. A(O   3,C   2,H  10)          110.5016         0.000000   
     33. A(C   2,O   3,H  11)          108.3478         0.000000   
     34. A(H  12,C   4,H  13)          111.6240         0.000000   
     35. A(C   2,C   4,H  13)          104.4448         0.000000   
     36. A(C   5,C   4,H  12)          115.2866         0.000000   
     37. A(C   2,C   4,H  12)          103.2518         0.000000   
     38. A(C   2,C   4,C   5)          105.5032         0.000000   
     39. A(C   5,C   4,H  13)          115.1292         0.000000   
     40. A(C   4,C   5,C   6)          116.7006         0.000000   
     41. A(C   6,C   5,H  14)          118.3817         0.000000   
     42. A(C   4,C   5,H  14)          117.6722         0.000000   
     43. A(C   5,C   6,H  16)          114.9889         0.000000   
     44. A(C   0,C   6,H  16)          102.3369         0.000000   
     45. A(C   5,C   6,H  15)          115.7745         0.000000   
     46. A(C   0,C   6,H  15)          105.0141         0.000000   
     47. A(H  15,C   6,H  16)          111.3335         0.000000   
     48. A(C   0,C   6,C   5)          105.7303         0.000000   
     49. D(C   2,C   1,C   0,H   7)     51.3655         0.000000   
     50. D(H   9,C   1,C   0,C   6)     85.8161         0.000000   
     51. D(H   9,C   1,C   0,H   8)    -30.6718         0.000000   
     52. D(C   2,C   1,C   0,C   6)    -60.8519         0.000000   
     53. D(H   9,C   1,C   0,H   7)   -161.9664         0.000000   
     54. D(C   2,C   1,C   0,H   8)   -177.3398         0.000000   
     55. D(O   3,C   2,C   1,H   9)    161.2444         0.000000   
     56. D(O   3,C   2,C   1,C   0)    -51.3872         0.000000   
     57. D(C   4,C   2,C   1,C   0)     62.0522         0.000000   
     58. D(H  10,C   2,C   1,C   0)    177.1924         0.000000   
     59. D(H  10,C   2,C   1,H   9)     29.8240         0.000000   
     60. D(C   4,C   2,C   1,H   9)    -85.3162         0.000000   
     61. D(H  11,O   3,C   2,C   4)   -169.2626         0.000000   
     62. D(H  11,O   3,C   2,H  10)     79.7108         0.000000   
     63. D(H  11,O   3,C   2,C   1)    -53.3542         0.000000   
     64. D(H  13,C   4,C   2,H  10)     60.4399         0.000000   
     65. D(H  13,C   4,C   2,O   3)    -54.8351         0.000000   
     66. D(H  12,C   4,C   2,O   3)   -171.6825         0.000000   
     67. D(H  12,C   4,C   2,C   1)     64.8947         0.000000   
     68. D(C   5,C   4,C   2,H  10)   -177.7886         0.000000   
     69. D(H  13,C   4,C   2,C   1)   -178.2578         0.000000   
     70. D(C   5,C   4,C   2,O   3)     66.9365         0.000000   
     71. D(C   5,C   4,C   2,C   1)    -56.4863         0.000000   
     72. D(H  12,C   4,C   2,H  10)    -56.4076         0.000000   
     73. D(H  14,C   5,C   4,H  13)     28.3396         0.000000   
     74. D(H  14,C   5,C   4,H  12)    160.5428         0.000000   
     75. D(H  14,C   5,C   4,C   2)    -86.2452         0.000000   
     76. D(C   6,C   5,C   4,H  13)    178.1709         0.000000   
     77. D(C   6,C   5,C   4,H  12)    -49.6259         0.000000   
     78. D(C   6,C   5,C   4,C   2)     63.5862         0.000000   
     79. D(C   5,C   6,C   0,C   1)     54.6256         0.000000   
     80. D(H  16,C   6,C   5,H  14)   -160.7556         0.000000   
     81. D(H  16,C   6,C   5,C   4)     49.6336         0.000000   
     82. D(H  15,C   6,C   5,C   4)   -178.2404         0.000000   
     83. D(C   0,C   6,C   5,H  14)     87.1477         0.000000   
     84. D(C   0,C   6,C   5,C   4)    -62.4631         0.000000   
     85. D(H  16,C   6,C   0,H   8)     56.9568         0.000000   
     86. D(H  16,C   6,C   0,H   7)    173.3784         0.000000   
     87. D(H  16,C   6,C   0,C   1)    -66.0951         0.000000   
     88. D(H  15,C   6,C   0,H   8)    -59.4165         0.000000   
     89. D(H  15,C   6,C   0,H   7)     57.0050         0.000000   
     90. D(H  15,C   6,C   5,H  14)    -28.6296         0.000000   
     91. D(H  15,C   6,C   0,C   1)    177.5315         0.000000   
     92. D(C   5,C   6,C   0,H   8)    177.6776         0.000000   
     93. D(C   5,C   6,C   0,H   7)    -65.9009         0.000000   
    -----------------------------------------------------------------

Number of atoms                         .... 17
Number of degrees of freedom            .... 93

         *************************************************************
         *                GEOMETRY OPTIMIZATION CYCLE   1            *
         *************************************************************
---------------------------------
CARTESIAN COORDINATES (ANGSTROEM)
---------------------------------
  C      0.685705    0.675955   -0.888225
  C      1.307516   -0.265477   -0.023691
  C      0.765855   -0.363325    1.295548
  O      0.616722    0.835104    2.020420
  C     -0.853737   -0.878357    1.119031
  C     -1.468637    0.084014    0.268167
  C     -0.962531    0.182253   -1.053213
  H      0.585098    1.673662   -0.471309
  H      1.077125    0.708070   -1.899790
  H      1.708143   -1.174197   -0.450177
  H      1.238770   -1.133830    1.919253
  H      1.463389    1.292973    2.026381
  H     -0.753693   -1.874678    0.696790
  H     -1.239357   -0.910527    2.132234
  H     -1.878648    0.971119    0.728214
  H     -1.421698    0.940292   -1.679163
  H     -0.870024   -0.762952   -1.580672

----------------------------
CARTESIAN COORDINATES (A.U.)
----------------------------
  NO LB      ZA    FRAG     MASS         X           Y           Z
   0 C     6.0000    0    12.011    1.295795    1.277369   -1.678501
   1 C     6.0000    0    12.011    2.470848   -0.501678   -0.044769
   2 C     6.0000    0    12.011    1.447256   -0.686585    2.448231
   3 O     8.0000    0    15.999    1.165436    1.578118    3.818040
   4 C     6.0000    0    12.011   -1.613328   -1.659853    2.114663
   5 C     6.0000    0    12.011   -2.775323    0.158764    0.506763
   6 C     6.0000    0    12.011   -1.818919    0.344408   -1.990284
   7 H     1.0000    0     1.008    1.105675    3.162763   -0.890644
   8 H     1.0000    0     1.008    2.035472    1.338059   -3.590083
   9 H     1.0000    0     1.008    3.227922   -2.218911   -0.850710
  10 H     1.0000    0     1.008    2.340937   -2.142629    3.626863
  11 H     1.0000    0     1.008    2.765404    2.443366    3.829305
  12 H     1.0000    0     1.008   -1.424274   -3.542628    1.316742
  13 H     1.0000    0     1.008   -2.342046   -1.720648    4.029338
  14 H     1.0000    0     1.008   -3.550130    1.835149    1.376125
  15 H     1.0000    0     1.008   -2.686620    1.776895   -3.173158
  16 H     1.0000    0     1.008   -1.644106   -1.441771   -2.987037

--------------------------------
INTERNAL COORDINATES (ANGSTROEM)
--------------------------------
 C      0   0   0     0.000000000000     0.00000000     0.00000000
 C      1   0   0     1.421393862531     0.00000000     0.00000000
 C      2   1   0     1.429462698722   116.16129483     0.00000000
 O      3   2   1     1.408513819600   117.18289577   308.61283716
 C      3   2   1     1.708652395010   106.52697351    62.05216729
 C      5   3   2     1.424159500550   105.50323894   303.51370922
 C      6   5   3     1.418393839152   116.70058743    63.58617061
 H      1   2   3     1.085984031739   114.55178922    51.36554269
 H      1   2   3     1.085129275604   115.39135552   182.66021771
 H      2   1   3     1.080816435796   118.62135744   146.66801236
 H      3   2   1     1.098333009079   114.13835402   177.19239486
 H      4   3   2     0.962561344642   108.34781548   306.64576525
 H      5   3   2     1.086716392217   103.25177911    64.89471669
 H      5   3   2     1.084581905640   104.44482471   181.74215895
 H      6   5   3     1.080141555249   117.67218405   273.75484665
 H      7   6   5     1.085021452595   115.77451004   181.75959049
 H      7   6   5     1.086362492816   114.98885660    49.63362127

---------------------------
INTERNAL COORDINATES (A.U.)
---------------------------
 C      0   0   0     0.000000000000     0.00000000     0.00000000
 C      1   0   0     2.686045128620     0.00000000     0.00000000
 C      2   1   0     2.701293019241   116.16129483     0.00000000
 O      3   2   1     2.661705374887   117.18289577   308.61283716
 C      3   2   1     3.228885084637   106.52697351    62.05216729
 C      5   3   2     2.691271427062   105.50323894   303.51370922
 C      6   5   3     2.680375906038   116.70058743    63.58617061
 H      1   2   3     2.052212405799   114.55178922    51.36554269
 H      1   2   3     2.050597150792   115.39135552   182.66021771
 H      2   1   3     2.042447064695   118.62135744   146.66801236
 H      3   2   1     2.075548591004   114.13835402   177.19239486
 H      4   3   2     1.818977328473   108.34781548   306.64576525
 H      5   3   2     2.053596366533   103.25177911    64.89471669
 H      5   3   2     2.049562771466   104.44482471   181.74215895
 H      6   5   3     2.041171725288   117.67218405   273.75484665
 H      7   6   5     2.050393394834   115.77451004   181.75959049
 H      7   6   5     2.052927593585   114.98885660    49.63362127

---------------------
BASIS SET INFORMATION
---------------------
There are 3 groups of distinct atoms

 Group   1 Type C   : 7s4p1d contracted to 3s2p1d pattern {511/31/1}
 Group   2 Type O   : 7s4p1d contracted to 3s2p1d pattern {511/31/1}
 Group   3 Type H   : 4s1p contracted to 2s1p pattern {31/1}

Atom   0C    basis set group =>   1
Atom   1C    basis set group =>   1
Atom   2C    basis set group =>   1
Atom   3O    basis set group =>   2
Atom   4C    basis set group =>   1
Atom   5C    basis set group =>   1
Atom   6C    basis set group =>   1
Atom   7H    basis set group =>   3
Atom   8H    basis set group =>   3
Atom   9H    basis set group =>   3
Atom  10H    basis set group =>   3
Atom  11H    basis set group =>   3
Atom  12H    basis set group =>   3
Atom  13H    basis set group =>   3
Atom  14H    basis set group =>   3
Atom  15H    basis set group =>   3
Atom  16H    basis set group =>   3
-------------------------------
AUXILIARY BASIS SET INFORMATION
-------------------------------
There are 3 groups of distinct atoms

 Group   1 Type C   : 12s5p4d2f1g contracted to 6s4p3d1f1g pattern {711111/2111/211/2/1}
 Group   2 Type O   : 12s5p4d2f1g contracted to 6s4p3d1f1g pattern {711111/2111/211/2/1}
 Group   3 Type H   : 5s2p1d contracted to 3s1p1d pattern {311/2/1}

Atom   0C    basis set group =>   1
Atom   1C    basis set group =>   1
Atom   2C    basis set group =>   1
Atom   3O    basis set group =>   2
Atom   4C    basis set group =>   1
Atom   5C    basis set group =>   1
Atom   6C    basis set group =>   1
Atom   7H    basis set group =>   3
Atom   8H    basis set group =>   3
Atom   9H    basis set group =>   3
Atom  10H    basis set group =>   3
Atom  11H    basis set group =>   3
Atom  12H    basis set group =>   3
Atom  13H    basis set group =>   3
Atom  14H    basis set group =>   3
Atom  15H    basis set group =>   3
Atom  16H    basis set group =>   3


           ************************************************************
           *        Program running with 8 parallel MPI-processes     *
           *              working on a common directory               *
           ************************************************************
------------------------------------------------------------------------------
                           ORCA GTO INTEGRAL CALCULATION
                           -- RI-GTO INTEGRALS CHOSEN --
------------------------------------------------------------------------------

                         BASIS SET STATISTICS AND STARTUP INFO

Gaussian basis set:
 # of primitive gaussian shells          ...  134
 # of primitive gaussian functions       ...  238
 # of contracted shells                  ...   72
 # of contracted basis functions         ...  148
 Highest angular momentum                ...    2
 Maximum contraction depth               ...    5
Auxiliary gaussian basis set:
 # of primitive gaussian shells          ...  248
 # of primitive gaussian functions       ...  650
 # of contracted shells                  ...  155
 # of contracted aux-basis functions     ...  453
 Highest angular momentum                ...    4
 Maximum contraction depth               ...    7
Ratio of auxiliary to basis functions    ...  3.06
Integral package used                  ... LIBINT
 One Electron integrals                  ... done
 Ordering auxiliary basis shells         ... done
 Integral threshhold             Thresh  ...  2.500e-11
 Primitive cut-off               TCut    ...  2.500e-12
 Pre-screening matrix                    ... done
 Shell pair data                         ... 
 Ordering of the shell pairs             ... done (   0.000 sec) 2594 of 2628 pairs
 Determination of significant pairs      ... done (   0.000 sec)
 Creation of shell pair data             ... done (   0.000 sec)
 Storage of shell pair data              ... done (   0.042 sec)
 Shell pair data done in (   0.043 sec)
 Computing two index integrals           ... done
 Cholesky decomposition of the V-matrix  ... done


Timings:
 Total evaluation time                   ...   0.203 sec (  0.003 min)
 One electron matrix time                ...   0.011 sec (  0.000 min) =  5.4%
 Schwartz matrix evaluation time         ...   0.114 sec (  0.002 min) = 55.9%
 Two index repulsion integral time       ...   0.005 sec (  0.000 min) =  2.6%
 Cholesky decomposition of V             ...   0.004 sec (  0.000 min) =  2.2%
 Three index repulsion integral time     ...   0.000 sec (  0.000 min) =  0.0%



           ************************************************************
           *        Program running with 8 parallel MPI-processes     *
           *              working on a common directory               *
           ************************************************************
-------------------------------------------------------------------------------
                                 ORCA SCF
-------------------------------------------------------------------------------

------------
SCF SETTINGS
------------
Hamiltonian:
 Density Functional     Method          .... DFT(GTOs)
 Exchange Functional    Exchange        .... PBE
   PBE kappa parameter   XKappa         ....  0.804000
   PBE mue parameter    XMuePBE         ....  0.219520
 Correlation Functional Correlation     .... PBE
   PBE beta parameter  CBetaPBE         ....  0.066725
 LDA part of GGA corr.  LDAOpt          .... PW91-LDA
 Gradients option       PostSCFGGA      .... off
 Hybrid DFT is turned on
   Fraction HF Exchange ScalHFX         ....  0.250000
   Scaling of DF-GGA-X  ScalDFX         ....  0.750000
   Scaling of DF-GGA-C  ScalDFC         ....  1.000000
   Scaling of DF-LDA-C  ScalLDAC        ....  1.000000
   Perturbative correction              ....  0.000000
   Density functional embedding theory  .... OFF
   NL short-range parameter             ....  6.900000
 RI-approximation to the Coulomb term is turned on
   Number of auxiliary basis functions  .... 453
   RIJ-COSX (HFX calculated with COS-X)).... on


General Settings:
 Integral files         IntName         .... xtb1d_06_24_orca_opt
 Hartree-Fock type      HFTyp           .... RHF
 Total Charge           Charge          ....    0
 Multiplicity           Mult            ....    1
 Number of Electrons    NEL             ....   54
 Basis Dimension        Dim             ....  148
 Nuclear Repulsion      ENuc            ....    315.4886617576 Eh

Convergence Acceleration:
 DIIS                   CNVDIIS         .... on
   Start iteration      DIISMaxIt       ....    12
   Startup error        DIISStart       ....  0.200000
   # of expansion vecs  DIISMaxEq       ....     5
   Bias factor          DIISBfac        ....   1.050
   Max. coefficient     DIISMaxC        ....  10.000
 Newton-Raphson         CNVNR           .... off
 SOSCF                  CNVSOSCF        .... on
   Start iteration      SOSCFMaxIt      ....   150
   Startup grad/error   SOSCFStart      ....  0.003300
 Level Shifting         CNVShift        .... on
   Level shift para.    LevelShift      ....    0.2500
   Turn off err/grad.   ShiftErr        ....    0.0010
 Zerner damping         CNVZerner       .... off
 Static damping         CNVDamp         .... on
   Fraction old density DampFac         ....    0.7000
   Max. Damping (<1)    DampMax         ....    0.9800
   Min. Damping (>=0)   DampMin         ....    0.0000
   Turn off err/grad.   DampErr         ....    0.1000
 Fernandez-Rico         CNVRico         .... off

SCF Procedure:
 Maximum # iterations   MaxIter         ....   250
 SCF integral mode      SCFMode         .... Direct
   Integral package                     .... LIBINT
 Reset frequency        DirectResetFreq ....    20
 Integral Threshold     Thresh          ....  2.500e-11 Eh
 Primitive CutOff       TCut            ....  2.500e-12 Eh

Convergence Tolerance:
 Convergence Check Mode ConvCheckMode   .... Total+1el-Energy
 Convergence forced     ConvForced      .... 0
 Energy Change          TolE            ....  1.000e-08 Eh
 1-El. energy change                    ....  1.000e-05 Eh
 Orbital Gradient       TolG            ....  1.000e-05
 Orbital Rotation angle TolX            ....  1.000e-05
 DIIS Error             TolErr          ....  5.000e-07


Diagonalization of the overlap matrix:
Smallest eigenvalue                        ... 1.141e-03
Time for diagonalization                   ...    0.007 sec
Threshold for overlap eigenvalues          ... 1.000e-08
Number of eigenvalues below threshold      ... 0
Time for construction of square roots      ...    0.003 sec
Total time needed                          ...    0.010 sec

-------------------
DFT GRID GENERATION
-------------------

General Integration Accuracy     IntAcc      ...  4.340
Radial Grid Type                 RadialGrid  ... Gauss-Chebyshev
Angular Grid (max. acc.)         AngularGrid ... Lebedev-110
Angular grid pruning method      GridPruning ... 3 (G Style)
Weight generation scheme         WeightScheme... Becke
Basis function cutoff            BFCut       ...    1.0000e-11
Integration weight cutoff        WCut        ...    1.0000e-14
Grids for H and He will be reduced by one unit

# of grid points (after initial pruning)     ...  19592 (   0.0 sec)
# of grid points (after weights+screening)   ...  17981 (   0.0 sec)
nearest neighbour list constructed           ...    0.0 sec
Grid point re-assignment to atoms done       ...    0.0 sec
Grid point division into batches done        ...    0.0 sec
Reduced shell lists constructed in    0.0 sec

Total number of grid points                  ...    17981
Total number of batches                      ...      290
Average number of points per batch           ...       62
Average number of grid points per atom       ...     1058
Average number of shells per batch           ...    64.74 (89.91%)
Average number of basis functions per batch  ...   135.74 (91.71%)
Average number of large shells per batch     ...    56.00 (86.50%)
Average number of large basis fcns per batch ...   114.32 (84.22%)
Maximum spatial batch extension              ...   8.30,  3.23,  3.27 au
Average spatial batch extension              ...   0.25,  0.21,  0.22 au

Time for grid setup =    0.058 sec

------------------------------
INITIAL GUESS: MODEL POTENTIAL
------------------------------
Loading Hartree-Fock densities                     ... done
Calculating cut-offs                               ... done
Setting up the integral package                    ... done
Initializing the effective Hamiltonian             ... done
Starting the Coulomb interaction                   ... done (   0.0 sec)
Reading the grid                                   ... done
Mapping shells                                     ... done
Starting the XC term evaluation                    ... done (   0.0 sec)
  promolecular density results
     # of electrons  =     54.003233716
     EX              =    -41.787667589
     EC              =     -1.782454432
     EX+EC           =    -43.570122022
Transforming the Hamiltonian                       ... done (   0.0 sec)
Diagonalizing the Hamiltonian                      ... done (   0.0 sec)
Back transforming the eigenvectors                 ... done (   0.0 sec)
Now organizing SCF variables                       ... done
                      ------------------
                      INITIAL GUESS DONE (   0.2 sec)
                      ------------------
--------------------
COSX GRID GENERATION
--------------------

General Integration Accuracy     IntAcc      ...  3.340
Radial Grid Type                 RadialGrid  ... Gauss-Chebyshev
Angular Grid (max. acc.)         AngularGrid ... Lebedev-50
Angular grid pruning method      GridPruning ... 3 (G Style)
Weight generation scheme         WeightScheme... Becke
Basis function cutoff            BFCut       ...    1.0000e-11
Integration weight cutoff        WCut        ...    1.0000e-14
Grids for H and He will be reduced by one unit

# of grid points (after initial pruning)     ...   7260 (   0.0 sec)
# of grid points (after weights+screening)   ...   6705 (   0.0 sec)
nearest neighbour list constructed           ...    0.0 sec
Grid point re-assignment to atoms done       ...    0.0 sec
Grid point division into batches done        ...    0.0 sec
Reduced shell lists constructed in    0.0 sec

Total number of grid points                  ...     6705
Total number of batches                      ...      115
Average number of points per batch           ...       58
Average number of grid points per atom       ...      394
Average number of shells per batch           ...    63.06 (87.59%)
Average number of basis functions per batch  ...   132.69 (89.65%)
Average number of large shells per batch     ...    54.38 (86.22%)
Average number of large basis fcns per batch ...   111.38 (83.94%)
Maximum spatial batch extension              ...   9.62,  4.06,  3.69 au
Average spatial batch extension              ...   0.33,  0.29,  0.26 au

Overlap Fitting                  UseSFitting ... on
Constructing numerical overlap ... done (      0.0 sec)
Inverting numerical overlap    ... done (      0.0 sec)
Obtaining analytic overlap     ... done (      0.0 sec)
Final contraction and storage  ... done (      0.0 sec)


General Integration Accuracy     IntAcc      ...  3.670
Radial Grid Type                 RadialGrid  ... Gauss-Chebyshev
Angular Grid (max. acc.)         AngularGrid ... Lebedev-50
Angular grid pruning method      GridPruning ... 3 (G Style)
Weight generation scheme         WeightScheme... Becke
Basis function cutoff            BFCut       ...    1.0000e-11
Integration weight cutoff        WCut        ...    1.0000e-14
Grids for H and He will be reduced by one unit

# of grid points (after initial pruning)     ...   9326 (   0.0 sec)
# of grid points (after weights+screening)   ...   8602 (   0.0 sec)
nearest neighbour list constructed           ...    0.0 sec
Grid point re-assignment to atoms done       ...    0.0 sec
Grid point division into batches done        ...    0.0 sec
Reduced shell lists constructed in    0.0 sec

Total number of grid points                  ...     8602
Total number of batches                      ...      144
Average number of points per batch           ...       59
Average number of grid points per atom       ...      506
Average number of shells per batch           ...    63.74 (88.52%)
Average number of basis functions per batch  ...   133.95 (90.50%)
Average number of large shells per batch     ...    55.21 (86.62%)
Average number of large basis fcns per batch ...   113.00 (84.36%)
Maximum spatial batch extension              ...   6.94,  4.00,  3.55 au
Average spatial batch extension              ...   0.26,  0.25,  0.26 au

Overlap Fitting                  UseSFitting ... on
Constructing numerical overlap ... done (      0.0 sec)
Inverting numerical overlap    ... done (      0.0 sec)
Obtaining analytic overlap     ... done (      0.0 sec)
Final contraction and storage  ... done (      0.0 sec)


General Integration Accuracy     IntAcc      ...  4.010
Radial Grid Type                 RadialGrid  ... Gauss-Chebyshev
Angular Grid (max. acc.)         AngularGrid ... Lebedev-110
Angular grid pruning method      GridPruning ... 3 (G Style)
Weight generation scheme         WeightScheme... Becke
Basis function cutoff            BFCut       ...    1.0000e-11
Integration weight cutoff        WCut        ...    1.0000e-14
Grids for H and He will be reduced by one unit

# of grid points (after initial pruning)     ...  16910 (   0.0 sec)
# of grid points (after weights+screening)   ...  15560 (   0.0 sec)
nearest neighbour list constructed           ...    0.0 sec
Grid point re-assignment to atoms done       ...    0.0 sec
Grid point division into batches done        ...    0.0 sec
Reduced shell lists constructed in    0.0 sec

Total number of grid points                  ...    15560
Total number of batches                      ...      253
Average number of points per batch           ...       61
Average number of grid points per atom       ...      915
Average number of shells per batch           ...    64.48 (89.56%)
Average number of basis functions per batch  ...   135.33 (91.44%)
Average number of large shells per batch     ...    55.30 (85.76%)
Average number of large basis fcns per batch ...   112.70 (83.27%)
Maximum spatial batch extension              ...   7.29,  3.48,  3.50 au
Average spatial batch extension              ...   0.24,  0.20,  0.22 au

Overlap Fitting                  UseSFitting ... on
Constructing numerical overlap ... done (      0.0 sec)
Inverting numerical overlap    ... done (      0.0 sec)
Obtaining analytic overlap     ... done (      0.0 sec)
Final contraction and storage  ... done (      0.0 sec)

Time for X-Grid setup             =    0.176 sec
--------------
SCF ITERATIONS
--------------
ITER       Energy         Delta-E        Max-DP      RMS-DP      [F,P]     Damp
               ***  Starting incremental Fock matrix formation  ***
  0   -308.9944011603   0.000000000000 0.06376247  0.00252354  0.2231155 0.7000
  1   -309.0772773133  -0.082876152924 0.03935179  0.00178196  0.1015566 0.7000
                               ***Turning on DIIS***
  2   -309.1121714080  -0.034894094753 0.06563627  0.00302803  0.0321849 0.0000
  3   -309.1643208268  -0.052149418768 0.02614634  0.00124443  0.0503696 0.0000
  4   -309.1768040749  -0.012483248154 0.00678011  0.00027639  0.0070099 0.0000
  5   -309.1771903544  -0.000386279421 0.00277651  0.00010693  0.0045379 0.0000
                      *** Initiating the SOSCF procedure ***
                           *** Shutting down DIIS ***
                      *** Re-Reading the Fockian *** 
                      *** Removing any level shift *** 
ITER      Energy       Delta-E        Grad      Rot      Max-DP    RMS-DP
  6   -309.17722890  -0.0000385498  0.000140  0.000140  0.001162  0.000054
               *** Restarting incremental Fock matrix formation ***
  7   -309.17723108  -0.0000021795  0.000236  0.001657  0.001004  0.000027
  8   -309.17722853   0.0000025492  0.000707  0.001296  0.000767  0.000020
  9   -309.17723156  -0.0000030233  0.000025  0.000072  0.000180  0.000006
 10   -309.17723149   0.0000000723  0.000036  0.000050  0.000112  0.000003
                  ***Gradient check signals convergence***
              ***Rediagonalizing the Fockian in SOSCF/NRSCF***

               *****************************************************
               *                     SUCCESS                       *
               *           SCF CONVERGED AFTER  11 CYCLES          *
               *****************************************************

Setting up the final grid:

General Integration Accuracy     IntAcc      ...  4.670
Radial Grid Type                 RadialGrid  ... Gauss-Chebyshev
Angular Grid (max. acc.)         AngularGrid ... Lebedev-302
Angular grid pruning method      GridPruning ... 3 (G Style)
Weight generation scheme         WeightScheme... Becke
Basis function cutoff            BFCut       ...    1.0000e-11
Integration weight cutoff        WCut        ...    1.0000e-14
Grids for H and He will be reduced by one unit

# of grid points (after initial pruning)     ...  77424 (   0.0 sec)
# of grid points (after weights+screening)   ...  69737 (   0.0 sec)
nearest neighbour list constructed           ...    0.0 sec
Grid point re-assignment to atoms done       ...    0.0 sec
Grid point division into batches done        ...    0.2 sec
Reduced shell lists constructed in    0.2 sec

Total number of grid points                  ...    69737
Total number of batches                      ...     1098
Average number of points per batch           ...       63
Average number of grid points per atom       ...     4102
Average number of shells per batch           ...    64.52 (89.61%)
Average number of basis functions per batch  ...   134.63 (90.97%)
Average number of large shells per batch     ...    54.04 (83.76%)
Average number of large basis fcns per batch ...   109.34 (81.21%)
Maximum spatial batch extension              ...   5.46,  3.07,  3.33 au
Average spatial batch extension              ...   0.14,  0.14,  0.14 au

Final grid set up in    0.3 sec
Final integration                            ... done (   0.1 sec)
Change in XC energy                          ...     0.000763194
Integrated number of electrons               ...    54.000052164
Previous integrated no of electrons          ...    54.005138404
Old exchange energy                            =    -10.696428756 Eh
New exchange energy                            =    -10.696855743 Eh
Exchange energy change after final integration =     -0.000426987 Eh
Total energy after final integration           =   -309.176895373 Eh
Final COS-X integration done in                =     0.691 sec

----------------
TOTAL SCF ENERGY
----------------

Total Energy       :         -309.17689537 Eh           -8413.13104 eV

Components:
Nuclear Repulsion  :          315.48866176 Eh            8584.88293 eV
Electronic Energy  :         -624.66555713 Eh          -16998.01397 eV
One Electron Energy:        -1043.52757088 Eh          -28395.82882 eV
Two Electron Energy:          418.86201375 Eh           11397.81485 eV

Virial components:
Potential Energy   :         -615.43395058 Eh          -16746.80919 eV
Kinetic Energy     :          306.25705521 Eh            8333.67815 eV
Virial Ratio       :            2.00953395


DFT components:
N(Alpha)           :       27.000026081889 electrons
N(Beta)            :       27.000026081889 electrons
N(Total)           :       54.000052163779 electrons
E(X)               :      -31.988614710038 Eh       
E(C)               :       -1.796108949620 Eh       
E(XC)              :      -33.784723659658 Eh       
DFET-embed. en.    :        0.000000000000 Eh       

---------------
SCF CONVERGENCE
---------------

  Last Energy change         ...   -9.3725e-08  Tolerance :   1.0000e-08
  Last MAX-Density change    ...    1.7764e-15  Tolerance :   1.0000e-07
  Last RMS-Density change    ...    3.4775e-17  Tolerance :   5.0000e-09
  Last Orbital Gradient      ...    2.2325e-06  Tolerance :   1.0000e-05
  Last Orbital Rotation      ...    7.7280e-06  Tolerance :   1.0000e-05

             **** THE GBW FILE WAS UPDATED (xtb1d_06_24_orca_opt.gbw) ****
             **** DENSITY FILE WAS UPDATED (xtb1d_06_24_orca_opt.scfp.tmp) ****
             **** ENERGY FILE WAS UPDATED (xtb1d_06_24_orca_opt.en.tmp) ****
----------------
ORBITAL ENERGIES
----------------

  NO   OCC          E(Eh)            E(eV) 
   0   2.0000     -19.202297      -522.5211 
   1   2.0000     -10.287359      -279.9333 
   2   2.0000     -10.241063      -278.6735 
   3   2.0000     -10.240403      -278.6555 
   4   2.0000     -10.233552      -278.4691 
   5   2.0000     -10.224116      -278.2123 
   6   2.0000     -10.212572      -277.8982 
   7   2.0000      -1.037543       -28.2330 
   8   2.0000      -0.847221       -23.0540 
   9   2.0000      -0.761234       -20.7142 
  10   2.0000      -0.740998       -20.1636 
  11   2.0000      -0.636665       -17.3245 
  12   2.0000      -0.593977       -16.1629 
  13   2.0000      -0.567704       -15.4480 
  14   2.0000      -0.509403       -13.8616 
  15   2.0000      -0.498927       -13.5765 
  16   2.0000      -0.467299       -12.7158 
  17   2.0000      -0.437176       -11.8962 
  18   2.0000      -0.425435       -11.5767 
  19   2.0000      -0.410547       -11.1716 
  20   2.0000      -0.386167       -10.5081 
  21   2.0000      -0.371877       -10.1193 
  22   2.0000      -0.356881        -9.7112 
  23   2.0000      -0.352438        -9.5903 
  24   2.0000      -0.320733        -8.7276 
  25   2.0000      -0.283790        -7.7223 
  26   2.0000      -0.192185        -5.2296 
  27   0.0000      -0.049846        -1.3564 
  28   0.0000       0.070915         1.9297 
  29   0.0000       0.086613         2.3569 
  30   0.0000       0.102005         2.7757 
  31   0.0000       0.110737         3.0133 
  32   0.0000       0.126597         3.4449 
  33   0.0000       0.131013         3.5650 
  34   0.0000       0.155661         4.2357 
  35   0.0000       0.162909         4.4330 
  36   0.0000       0.170369         4.6360 
  37   0.0000       0.174019         4.7353 
  38   0.0000       0.185063         5.0358 
  39   0.0000       0.207164         5.6372 
  40   0.0000       0.239844         6.5265 
  41   0.0000       0.284618         7.7449 
  42   0.0000       0.301507         8.2044 
  43   0.0000       0.325442         8.8557 
  44   0.0000       0.332025         9.0349 
  45   0.0000       0.428450        11.6587 
  46   0.0000       0.439209        11.9515 
  47   0.0000       0.453637        12.3441 
  48   0.0000       0.482674        13.1342 
  49   0.0000       0.503764        13.7081 
  50   0.0000       0.524661        14.2768 
  51   0.0000       0.531015        14.4496 
  52   0.0000       0.539740        14.6871 
  53   0.0000       0.558363        15.1938 
  54   0.0000       0.583459        15.8767 
  55   0.0000       0.616076        16.7643 
  56   0.0000       0.635506        17.2930 
  57   0.0000       0.651409        17.7257 
  58   0.0000       0.668111        18.1802 
  59   0.0000       0.674704        18.3596 
  60   0.0000       0.683559        18.6006 
  61   0.0000       0.690640        18.7933 
  62   0.0000       0.696140        18.9429 
  63   0.0000       0.705339        19.1932 
  64   0.0000       0.712529        19.3889 
  65   0.0000       0.728042        19.8110 
  66   0.0000       0.735963        20.0266 
  67   0.0000       0.740645        20.1540 
  68   0.0000       0.760066        20.6824 
  69   0.0000       0.765986        20.8435 
  70   0.0000       0.781558        21.2673 
  71   0.0000       0.790446        21.5091 
  72   0.0000       0.883477        24.0406 
  73   0.0000       0.920133        25.0381 
  74   0.0000       0.943336        25.6695 
  75   0.0000       1.002704        27.2850 
  76   0.0000       1.027166        27.9506 
  77   0.0000       1.050682        28.5905 
  78   0.0000       1.097077        29.8530 
  79   0.0000       1.160772        31.5862 
  80   0.0000       1.200477        32.6666 
  81   0.0000       1.240006        33.7423 
  82   0.0000       1.277159        34.7533 
  83   0.0000       1.318127        35.8681 
  84   0.0000       1.343946        36.5706 
  85   0.0000       1.349854        36.7314 
  86   0.0000       1.377150        37.4742 
  87   0.0000       1.438969        39.1563 
  88   0.0000       1.492698        40.6184 
  89   0.0000       1.515341        41.2345 
  90   0.0000       1.569522        42.7089 
  91   0.0000       1.626800        44.2675 
  92   0.0000       1.641594        44.6700 
  93   0.0000       1.655676        45.0532 
  94   0.0000       1.694737        46.1161 
  95   0.0000       1.714468        46.6530 
  96   0.0000       1.746451        47.5234 
  97   0.0000       1.755671        47.7742 
  98   0.0000       1.784880        48.5691 
  99   0.0000       1.807490        49.1843 
 100   0.0000       1.839018        50.0422 
 101   0.0000       1.844710        50.1971 
 102   0.0000       1.850021        50.3416 
 103   0.0000       1.861289        50.6482 
 104   0.0000       1.883618        51.2558 
 105   0.0000       1.901288        51.7367 
 106   0.0000       1.919926        52.2438 
 107   0.0000       1.935324        52.6628 
 108   0.0000       1.966505        53.5113 
 109   0.0000       1.976703        53.7888 
 110   0.0000       1.988998        54.1234 
 111   0.0000       2.028779        55.2059 
 112   0.0000       2.037084        55.4319 
 113   0.0000       2.058750        56.0214 
 114   0.0000       2.074329        56.4454 
 115   0.0000       2.109740        57.4089 
 116   0.0000       2.152342        58.5682 
 117   0.0000       2.216441        60.3124 
 118   0.0000       2.218005        60.3550 
 119   0.0000       2.254327        61.3434 
 120   0.0000       2.271296        61.8051 
 121   0.0000       2.283592        62.1397 
 122   0.0000       2.306123        62.7528 
 123   0.0000       2.375756        64.6476 
 124   0.0000       2.395923        65.1964 
 125   0.0000       2.437579        66.3299 
 126   0.0000       2.455995        66.8310 
 127   0.0000       2.552658        69.4614 
 128   0.0000       2.582920        70.2848 
 129   0.0000       2.627136        71.4880 
 130   0.0000       2.663873        72.4877 
 131   0.0000       2.734617        74.4127 
 132   0.0000       2.739930        74.5573 
 133   0.0000       2.819940        76.7345 
 134   0.0000       2.859780        77.8186 
 135   0.0000       2.885855        78.5281 
 136   0.0000       2.899942        78.9114 
 137   0.0000       2.939850        79.9974 
 138   0.0000       2.979214        81.0685 
 139   0.0000       3.006691        81.8162 
 140   0.0000       3.024054        82.2887 
 141   0.0000       3.074251        83.6546 
 142   0.0000       3.103874        84.4607 
 143   0.0000       3.135147        85.3117 
 144   0.0000       3.212100        87.4057 
 145   0.0000       3.251574        88.4798 
 146   0.0000       3.446212        93.7762 
 147   0.0000       3.797524       103.3359 

                    ********************************
                    * MULLIKEN POPULATION ANALYSIS *
                    ********************************

-----------------------
MULLIKEN ATOMIC CHARGES
-----------------------
   0 C :   -0.028907
   1 C :   -0.111873
   2 C :    0.035914
   3 O :   -0.312392
   4 C :    0.009134
   5 C :   -0.083060
   6 C :   -0.057440
   7 H :    0.044844
   8 H :    0.047791
   9 H :    0.019401
  10 H :    0.032013
  11 H :    0.173518
  12 H :    0.037829
  13 H :    0.053782
  14 H :    0.040971
  15 H :    0.052491
  16 H :    0.045983
Sum of atomic charges:    0.0000000

--------------------------------
MULLIKEN REDUCED ORBITAL CHARGES
--------------------------------
  0 C s       :     3.046320  s :     3.046320
      pz      :     0.986622  p :     2.947178
      px      :     0.916319
      py      :     1.044238
      dz2     :     0.007978  d :     0.035408
      dxz     :     0.005564
      dyz     :     0.006339
      dx2y2   :     0.010620
      dxy     :     0.004907
  1 C s       :     3.143614  s :     3.143614
      pz      :     0.944723  p :     2.935615
      px      :     1.020460
      py      :     0.970432
      dz2     :     0.008650  d :     0.032644
      dxz     :     0.007897
      dyz     :     0.007785
      dx2y2   :     0.004659
      dxy     :     0.003652
  2 C s       :     3.090756  s :     3.090756
      pz      :     0.962070  p :     2.799732
      px      :     0.993829
      py      :     0.843833
      dz2     :     0.015139  d :     0.073598
      dxz     :     0.010066
      dyz     :     0.022237
      dx2y2   :     0.014669
      dxy     :     0.011487
  3 O s       :     3.726002  s :     3.726002
      pz      :     1.764122  p :     4.573514
      px      :     1.444612
      py      :     1.364780
      dz2     :     0.002154  d :     0.012877
      dxz     :     0.001318
      dyz     :     0.002773
      dx2y2   :     0.003537
      dxy     :     0.003095
  4 C s       :     3.025828  s :     3.025828
      pz      :     0.996760  p :     2.930846
      px      :     0.932260
      py      :     1.001827
      dz2     :     0.007820  d :     0.034192
      dxz     :     0.005075
      dyz     :     0.006272
      dx2y2   :     0.010441
      dxy     :     0.004584
  5 C s       :     3.141739  s :     3.141739
      pz      :     0.967201  p :     2.906075
      px      :     0.961692
      py      :     0.977183
      dz2     :     0.008691  d :     0.035246
      dxz     :     0.007881
      dyz     :     0.010300
      dx2y2   :     0.004392
      dxy     :     0.003982
  6 C s       :     3.045232  s :     3.045232
      pz      :     1.031365  p :     2.977450
      px      :     0.942448
      py      :     1.003637
      dz2     :     0.007478  d :     0.034758
      dxz     :     0.006861
      dyz     :     0.010545
      dx2y2   :     0.006306
      dxy     :     0.003567
  7 H s       :     0.931566  s :     0.931566
      pz      :     0.006470  p :     0.023590
      px      :     0.004133
      py      :     0.012986
  8 H s       :     0.929062  s :     0.929062
      pz      :     0.013336  p :     0.023147
      px      :     0.005479
      py      :     0.004331
  9 H s       :     0.956238  s :     0.956238
      pz      :     0.005301  p :     0.024361
      px      :     0.007353
      py      :     0.011707
 10 H s       :     0.947592  s :     0.947592
      pz      :     0.006604  p :     0.020395
      px      :     0.005897
      py      :     0.007894
 11 H s       :     0.756153  s :     0.756153
      pz      :     0.017927  p :     0.070329
      px      :     0.031299
      py      :     0.021102
 12 H s       :     0.939072  s :     0.939072
      pz      :     0.005889  p :     0.023099
      px      :     0.004178
      py      :     0.013032
 13 H s       :     0.922897  s :     0.922897
      pz      :     0.013659  p :     0.023322
      px      :     0.005420
      py      :     0.004243
 14 H s       :     0.934870  s :     0.934870
      pz      :     0.005804  p :     0.024159
      px      :     0.006712
      py      :     0.011643
 15 H s       :     0.924330  s :     0.924330
      pz      :     0.007580  p :     0.023179
      px      :     0.006167
      py      :     0.009432
 16 H s       :     0.930754  s :     0.930754
      pz      :     0.006689  p :     0.023263
      px      :     0.004207
      py      :     0.012367


                     *******************************
                     * LOEWDIN POPULATION ANALYSIS *
                     *******************************

----------------------
LOEWDIN ATOMIC CHARGES
----------------------
   0 C :   -0.019909
   1 C :   -0.125246
   2 C :    0.060343
   3 O :   -0.136662
   4 C :   -0.033723
   5 C :   -0.048648
   6 C :   -0.027058
   7 H :    0.028736
   8 H :    0.034069
   9 H :    0.018509
  10 H :    0.016887
  11 H :    0.076059
  12 H :    0.026799
  13 H :    0.038604
  14 H :    0.024165
  15 H :    0.035250
  16 H :    0.031827

-------------------------------
LOEWDIN REDUCED ORBITAL CHARGES
-------------------------------
  0 C s       :     2.860035  s :     2.860035
      pz      :     1.060467  p :     3.071970
      px      :     0.942252
      py      :     1.069251
      dz2     :     0.020091  d :     0.087904
      dxz     :     0.013342
      dyz     :     0.016934
      dx2y2   :     0.026653
      dxy     :     0.010884
  1 C s       :     2.884157  s :     2.884157
      pz      :     1.045994  p :     3.155735
      px      :     1.057983
      py      :     1.051758
      dz2     :     0.022966  d :     0.085353
      dxz     :     0.021015
      dyz     :     0.022411
      dx2y2   :     0.009143
      dxy     :     0.009818
  2 C s       :     2.859667  s :     2.859667
      pz      :     1.034390  p :     2.915893
      px      :     0.977619
      py      :     0.903884
      dz2     :     0.035714  d :     0.164097
      dxz     :     0.022114
      dyz     :     0.049048
      dx2y2   :     0.033389
      dxy     :     0.023831
  3 O s       :     3.444524  s :     3.444524
      pz      :     1.740341  p :     4.667571
      px      :     1.516016
      py      :     1.411215
      dz2     :     0.003948  d :     0.024567
      dxz     :     0.001240
      dyz     :     0.005435
      dx2y2   :     0.007056
      dxy     :     0.006889
  4 C s       :     2.860341  s :     2.860341
      pz      :     1.063202  p :     3.086433
      px      :     0.967092
      py      :     1.056138
      dz2     :     0.019926  d :     0.086949
      dxz     :     0.012442
      dyz     :     0.016920
      dx2y2   :     0.026715
      dxy     :     0.010945
  5 C s       :     2.877731  s :     2.877731
      pz      :     1.045892  p :     3.082621
      px      :     0.995666
      py      :     1.041064
      dz2     :     0.022294  d :     0.088296
      dxz     :     0.020453
      dyz     :     0.026576
      dx2y2   :     0.008432
      dxy     :     0.010541
  6 C s       :     2.859521  s :     2.859521
      pz      :     1.065976  p :     3.080978
      px      :     0.957245
      py      :     1.057757
      dz2     :     0.020031  d :     0.086558
      dxz     :     0.015668
      dyz     :     0.026757
      dx2y2   :     0.015999
      dxy     :     0.008103
  7 H s       :     0.900544  s :     0.900544
      pz      :     0.018853  p :     0.070720
      px      :     0.013722
      py      :     0.038146
  8 H s       :     0.896549  s :     0.896549
      pz      :     0.038186  p :     0.069382
      px      :     0.017646
      py      :     0.013550
  9 H s       :     0.905711  s :     0.905711
      pz      :     0.017602  p :     0.075780
      px      :     0.023533
      py      :     0.034645
 10 H s       :     0.915611  s :     0.915611
      pz      :     0.020793  p :     0.067502
      px      :     0.019586
      py      :     0.027122
 11 H s       :     0.739992  s :     0.739992
      pz      :     0.047637  p :     0.183948
      px      :     0.087007
      py      :     0.049304
 12 H s       :     0.904161  s :     0.904161
      pz      :     0.017507  p :     0.069040
      px      :     0.014062
      py      :     0.037471
 13 H s       :     0.891004  s :     0.891004
      pz      :     0.039193  p :     0.070391
      px      :     0.018523
      py      :     0.012675
 14 H s       :     0.901303  s :     0.901303
      pz      :     0.018413  p :     0.074531
      px      :     0.021133
      py      :     0.034985
 15 H s       :     0.895315  s :     0.895315
      pz      :     0.022310  p :     0.069435
      px      :     0.019735
      py      :     0.027389
 16 H s       :     0.898729  s :     0.898729
      pz      :     0.019254  p :     0.069444
      px      :     0.014078
      py      :     0.036111


                      *****************************
                      * MAYER POPULATION ANALYSIS *
                      *****************************

  NA   - Mulliken gross atomic population
  ZA   - Total nuclear charge
  QA   - Mulliken gross atomic charge
  VA   - Mayer's total valence
  BVA  - Mayer's bonded valence
  FA   - Mayer's free valence

  ATOM       NA         ZA         QA         VA         BVA        FA
  0 C      6.0289     6.0000    -0.0289     3.9883     3.9883     0.0000
  1 C      6.1119     6.0000    -0.1119     3.9398     3.9398     0.0000
  2 C      5.9641     6.0000     0.0359     4.0913     4.0913     0.0000
  3 O      8.3124     8.0000    -0.3124     2.0485     2.0485     0.0000
  4 C      5.9909     6.0000     0.0091     3.9547     3.9547     0.0000
  5 C      6.0831     6.0000    -0.0831     4.0346     4.0346     0.0000
  6 C      6.0574     6.0000    -0.0574     4.0323     4.0323    -0.0000
  7 H      0.9552     1.0000     0.0448     0.9955     0.9955     0.0000
  8 H      0.9522     1.0000     0.0478     0.9751     0.9751     0.0000
  9 H      0.9806     1.0000     0.0194     0.9905     0.9905     0.0000
 10 H      0.9680     1.0000     0.0320     0.9763     0.9763    -0.0000
 11 H      0.8265     1.0000     0.1735     1.0210     1.0210     0.0000
 12 H      0.9622     1.0000     0.0378     0.9784     0.9784    -0.0000
 13 H      0.9462     1.0000     0.0538     0.9850     0.9850     0.0000
 14 H      0.9590     1.0000     0.0410     0.9936     0.9936    -0.0000
 15 H      0.9475     1.0000     0.0525     0.9746     0.9746    -0.0000
 16 H      0.9540     1.0000     0.0460     0.9769     0.9769    -0.0000

  Mayer bond orders larger than 0.1
B(  0-C ,  1-C ) :   1.3283 B(  0-C ,  6-C ) :   0.7651 B(  0-C ,  7-H ) :   0.9325 
B(  0-C ,  8-H ) :   0.9398 B(  1-C ,  2-C ) :   1.3019 B(  1-C ,  5-C ) :   0.2794 
B(  1-C ,  9-H ) :   0.9590 B(  2-C ,  3-O ) :   1.0004 B(  2-C ,  4-C ) :   0.7798 
B(  2-C , 10-H ) :   0.9344 B(  3-O , 11-H ) :   0.9714 B(  4-C ,  5-C ) :   1.3029 
B(  4-C , 12-H ) :   0.9384 B(  4-C , 13-H ) :   0.9290 B(  5-C ,  6-C ) :   1.3669 
B(  5-C , 14-H ) :   0.9605 B(  6-C , 15-H ) :   0.9379 B(  6-C , 16-H ) :   0.9329 


-------
TIMINGS
-------

Total SCF time: 0 days 0 hours 0 min 7 sec 

Total time                  ....       7.714 sec
Sum of individual times     ....       7.563 sec  ( 98.0%)

Fock matrix formation       ....       6.831 sec  ( 88.5%)
  Split-RI-J                ....       1.770 sec  ( 25.9% of F)
  Chain of spheres X        ....       4.437 sec  ( 65.0% of F)
  XC integration            ....       0.566 sec  (  8.3% of F)
    Basis function eval.    ....       0.122 sec  ( 21.5% of XC)
    Density eval.           ....       0.061 sec  ( 10.7% of XC)
    XC-Functional eval.     ....       0.022 sec  (  3.8% of XC)
    XC-Potential eval.      ....       0.098 sec  ( 17.2% of XC)
Diagonalization             ....       0.016 sec  (  0.2%)
Density matrix formation    ....       0.007 sec  (  0.1%)
Population analysis         ....       0.004 sec  (  0.1%)
Initial guess               ....       0.147 sec  (  1.9%)
Orbital Transformation      ....       0.000 sec  (  0.0%)
Orbital Orthonormalization  ....       0.000 sec  (  0.0%)
DIIS solution               ....       0.007 sec  (  0.1%)
SOSCF solution              ....       0.008 sec  (  0.1%)
Grid generation             ....       0.543 sec  (  7.0%)


-------------------------------------------------------------------------------
                          DFT DISPERSION CORRECTION                            
                                                                               
                              DFTD3 V3.1  Rev 1                                
                          USING Becke-Johnson damping                          
-------------------------------------------------------------------------------
The PBE0 functional is recognized
Active option DFTDOPT                   ...         4   

molecular C6(AA) [au] = 2287.972028 


            DFT-D V3
 parameters
 s6 scaling factor         :     1.0000 
 a1 scaling factor         :     0.4145 
 s8 scaling factor         :     1.2177 
 a2 scaling factor         :     4.8593 
 ad hoc parameters k1-k3   :    16.0000     1.3333    -4.0000 

 Edisp/kcal,au: -8.604022610407  -0.013711381339 
 E6   /kcal   :  -5.503754947 
 E8   /kcal   :  -3.100267664 
 % E8         :  36.032769833 

-------------------------   ----------------
Dispersion correction           -0.013711381
-------------------------   ----------------


-------------------------   --------------------
FINAL SINGLE POINT ENERGY      -309.190606753989
-------------------------   --------------------



           ************************************************************
           *        Program running with 8 parallel MPI-processes     *
           *              working on a common directory               *
           ************************************************************
------------------------------------------------------------------------------
                         ORCA SCF GRADIENT CALCULATION
------------------------------------------------------------------------------

Gradient of the Kohn-Sham DFT energy:
Kohn-Sham wavefunction type      ... RKS
Hartree-Fock exchange scaling    ...    0.250
Number of operators              ...    1
Number of atoms                  ...   17
Basis set dimensions             ...  148
Integral neglect threshold       ... 2.5e-11
Integral primitive cutoff        ... 2.5e-12

Nuclear repulsion gradient       ... done
One Electron Gradient            ... done
Pre-screening matrix             ... done
RI-J gradient                    ... done
COSX-gradient                    ... done
Exchange-correlation gradient    ... done
Dispersion correction            ... done

------------------
CARTESIAN GRADIENT
------------------

   1   C   :   -0.008208423    0.003076643   -0.005078078
   2   C   :    0.003761706   -0.005262642   -0.006049597
   3   C   :   -0.010487185   -0.007086746   -0.001882578
   4   O   :    0.005984878   -0.004069679    0.000642455
   5   C   :    0.003561415   -0.002589462    0.005320801
   6   C   :   -0.004055226    0.004753419    0.002146072
   7   C   :    0.008245824    0.000990164   -0.006825745
   8   H   :    0.001018580   -0.006900019   -0.001729107
   9   H   :   -0.002520358   -0.000702677    0.008491802
  10   H   :   -0.005053689    0.008059920    0.003887927
  11   H   :   -0.000002112    0.005257767   -0.000805749
  12   H   :   -0.001359758    0.002598067    0.001916615
  13   H   :   -0.000186712    0.007323131    0.001921264
  14   H   :    0.002282850    0.000749266   -0.008869747
  15   H   :    0.004779390   -0.008059767   -0.004352710
  16   H   :    0.003440137   -0.005752028    0.005674799
  17   H   :   -0.000787466    0.005921747    0.004906163

Difference to translation invariance:
           :    0.0004138486   -0.0016928959   -0.0006854119

Norm of the cartesian gradient     ...    0.0355911895
RMS gradient                       ...    0.0049837634
MAX gradient                       ...    0.0104871853

-------
TIMINGS
-------

Total SCF gradient time            ...        1.681 sec

One electron gradient       ....       0.021 sec  (  1.3%)
Prescreening matrices       ....       0.019 sec  (  1.1%)
RI-J Coulomb gradient       ....       0.250 sec  ( 14.9%)
COSX gradient               ....       0.652 sec  ( 38.8%)
XC gradient                 ....       0.351 sec  ( 20.9%)


           ************************************************************
           *        Program running with 8 parallel MPI-processes     *
           *              working on a common directory               *
           ************************************************************

-------------------------------------------------------------------------------
                               ORCA SCF HESSIAN
-------------------------------------------------------------------------------

Hessian of the Kohn-Sham DFT energy:
Kohn-Sham wavefunction type                      ... RKS
Hartree-Fock exchange scaling                    ...    0.250
Number of operators                              ...    1
Number of atoms                                  ...   17
Basis set dimensions                             ...  148
Integral neglect threshold                       ... 2.5e-11
Integral primitive cutoff                        ... 2.5e-12

Setting up DFT Hessian calculations              ... 
Electron density on the grid                     ... found on disk
Electron density on the final grid               ... found on disk
Building xc-kernel on the grid                   ... done   (      0.0 sec)
Building xc-kernel on the final grid             ... done   (      0.0 sec)
                                                     done   (      0.1 sec)

Nuclear repulsion Hessian                        ... done   (      0.0 sec)

----------------------------------------------
Forming right-hand sides of CP-SCF equations     ...
----------------------------------------------
One electron integral derivatives                ... done   (      0.1 sec)
Transforming the overlap derivative matrices     ... done   (      0.0 sec)
Making the Q(x) pseudodensities                  ... done   (      0.0 sec)
Adding the E*S(x)*S(y) terms to the Hessian      ... done   (      0.0 sec)
Calculating energy weighted overlap derivatives  ... done   (      0.0 sec)
Two electron integral derivatives (RI)           ... done   (      1.8 sec)
Exchange-correlation integral derivatives        ... done   (      4.8 sec)
tr(F(y)Q(x)) contribution to the Hessian         ... done   (      0.0 sec)
Response fock operator R(S(x)) (RIJCOSX)         ... done   (      3.0 sec)
XC Response fock operator R(S(x))                ... done   (      1.7 sec)
tr(F(y)S(x)) contribution to the Hessian         ... done   (      0.0 sec)
Transforming and finalizing RHSs                 ... done   (      0.0 sec)

----------------------------------------------
Solving the CP-SCF equations (RIJCOSX)           ...
----------------------------------------------
     CP-SCF ITERATION   0: 
     CP-SCF ITERATION   1:      0.006883067124
     CP-SCF ITERATION   2:      0.000614300945
     CP-SCF ITERATION   3:      0.000092152768
     CP-SCF ITERATION   4:      0.000010738037
     CP-SCF ITERATION   5:      0.000000334618
     CP-SCF ITERATION   6:      0.000000047710
     CP-SCF ITERATION   7:      0.000000009450

                                                 ... done   (     14.7 sec)
Forming perturbed density Hessian contributions  ... done   (      0.0 sec)
2nd integral derivative contribs (RI)            ... done   (      8.4 sec)
Exchange-correlation Hessian                     ... done   (      4.2 sec)
Dispersion correction in the Hessian             ... done   (      1.5 sec)
Dipol derivatives                                ... done   (      0.3 sec)

Total SCF Hessian time: 0 days 0 hours 0 min 40 sec 

Writing the Hessian file to the disk             ... done


Maximum memory used throughout the entire calculation: 130.3 MB

-----------------------
VIBRATIONAL FREQUENCIES
-----------------------

Scaling factor for frequencies =  1.000000000  (already applied!)

   0:         0.00 cm**-1
   1:         0.00 cm**-1
   2:         0.00 cm**-1
   3:         0.00 cm**-1
   4:         0.00 cm**-1
   5:         0.00 cm**-1
   6:      -185.97 cm**-1 ***imaginary mode***
   7:       106.22 cm**-1
   8:       211.23 cm**-1
   9:       238.21 cm**-1
  10:       293.29 cm**-1
  11:       376.49 cm**-1
  12:       431.04 cm**-1
  13:       481.49 cm**-1
  14:       511.70 cm**-1
  15:       534.49 cm**-1
  16:       653.98 cm**-1
  17:       709.45 cm**-1
  18:       753.75 cm**-1
  19:       848.00 cm**-1
  20:       912.41 cm**-1
  21:       948.39 cm**-1
  22:       965.00 cm**-1
  23:       997.00 cm**-1
  24:      1018.70 cm**-1
  25:      1031.77 cm**-1
  26:      1070.04 cm**-1
  27:      1148.25 cm**-1
  28:      1172.86 cm**-1
  29:      1194.96 cm**-1
  30:      1207.85 cm**-1
  31:      1224.06 cm**-1
  32:      1250.73 cm**-1
  33:      1255.85 cm**-1
  34:      1304.84 cm**-1
  35:      1372.01 cm**-1
  36:      1400.09 cm**-1
  37:      1446.95 cm**-1
  38:      1479.19 cm**-1
  39:      1494.94 cm**-1
  40:      1555.36 cm**-1
  41:      3117.50 cm**-1
  42:      3209.77 cm**-1
  43:      3212.32 cm**-1
  44:      3218.30 cm**-1
  45:      3298.73 cm**-1
  46:      3301.78 cm**-1
  47:      3306.00 cm**-1
  48:      3321.69 cm**-1
  49:      3333.99 cm**-1
  50:      3885.24 cm**-1


------------
NORMAL MODES
------------

These modes are the Cartesian displacements weighted by the diagonal matrix
M(i,i)=1/sqrt(m[i]) where m[i] is the mass of the displaced atom
Thus, these vectors are normalized but *not* orthogonal

                  0          1          2          3          4          5    
      0       0.000000   0.000000   0.000000   0.000000   0.000000   0.000000
      1       0.000000   0.000000   0.000000   0.000000   0.000000   0.000000
      2       0.000000   0.000000   0.000000   0.000000   0.000000   0.000000
      3       0.000000   0.000000   0.000000   0.000000   0.000000   0.000000
      4       0.000000   0.000000   0.000000   0.000000   0.000000   0.000000
      5       0.000000   0.000000   0.000000   0.000000   0.000000   0.000000
      6       0.000000   0.000000   0.000000   0.000000   0.000000   0.000000
      7       0.000000   0.000000   0.000000   0.000000   0.000000   0.000000
      8       0.000000   0.000000   0.000000   0.000000   0.000000   0.000000
      9       0.000000   0.000000   0.000000   0.000000   0.000000   0.000000
     10       0.000000   0.000000   0.000000   0.000000   0.000000   0.000000
     11       0.000000   0.000000   0.000000   0.000000   0.000000   0.000000
     12       0.000000   0.000000   0.000000   0.000000   0.000000   0.000000
     13       0.000000   0.000000   0.000000   0.000000   0.000000   0.000000
     14       0.000000   0.000000   0.000000   0.000000   0.000000   0.000000
     15       0.000000   0.000000   0.000000   0.000000   0.000000   0.000000
     16       0.000000   0.000000   0.000000   0.000000   0.000000   0.000000
     17       0.000000   0.000000   0.000000   0.000000   0.000000   0.000000
     18       0.000000   0.000000   0.000000   0.000000   0.000000   0.000000
     19       0.000000   0.000000   0.000000   0.000000   0.000000   0.000000
     20       0.000000   0.000000   0.000000   0.000000   0.000000   0.000000
     21       0.000000   0.000000   0.000000   0.000000   0.000000   0.000000
     22       0.000000   0.000000   0.000000   0.000000   0.000000   0.000000
     23       0.000000   0.000000   0.000000   0.000000   0.000000   0.000000
     24       0.000000   0.000000   0.000000   0.000000   0.000000   0.000000
     25       0.000000   0.000000   0.000000   0.000000   0.000000   0.000000
     26       0.000000   0.000000   0.000000   0.000000   0.000000   0.000000
     27       0.000000   0.000000   0.000000   0.000000   0.000000   0.000000
     28       0.000000   0.000000   0.000000   0.000000   0.000000   0.000000
     29       0.000000   0.000000   0.000000   0.000000   0.000000   0.000000
     30       0.000000   0.000000   0.000000   0.000000   0.000000   0.000000
     31       0.000000   0.000000   0.000000   0.000000   0.000000   0.000000
     32       0.000000   0.000000   0.000000   0.000000   0.000000   0.000000
     33       0.000000   0.000000   0.000000   0.000000   0.000000   0.000000
     34       0.000000   0.000000   0.000000   0.000000   0.000000   0.000000
     35       0.000000   0.000000   0.000000   0.000000   0.000000   0.000000
     36       0.000000   0.000000   0.000000   0.000000   0.000000   0.000000
     37       0.000000   0.000000   0.000000   0.000000   0.000000   0.000000
     38       0.000000   0.000000   0.000000   0.000000   0.000000   0.000000
     39       0.000000   0.000000   0.000000   0.000000   0.000000   0.000000
     40       0.000000   0.000000   0.000000   0.000000   0.000000   0.000000
     41       0.000000   0.000000   0.000000   0.000000   0.000000   0.000000
     42       0.000000   0.000000   0.000000   0.000000   0.000000   0.000000
     43       0.000000   0.000000   0.000000   0.000000   0.000000   0.000000
     44       0.000000   0.000000   0.000000   0.000000   0.000000   0.000000
     45       0.000000   0.000000   0.000000   0.000000   0.000000   0.000000
     46       0.000000   0.000000   0.000000   0.000000   0.000000   0.000000
     47       0.000000   0.000000   0.000000   0.000000   0.000000   0.000000
     48       0.000000   0.000000   0.000000   0.000000   0.000000   0.000000
     49       0.000000   0.000000   0.000000   0.000000   0.000000   0.000000
     50       0.000000   0.000000   0.000000   0.000000   0.000000   0.000000
                  6          7          8          9         10         11    
      0      -0.435313  -0.061156   0.003250   0.028880  -0.020451   0.049595
      1      -0.071863   0.097437  -0.103799   0.020986  -0.054618   0.019097
      2      -0.072285   0.025130  -0.170465   0.059841  -0.021222  -0.089667
      3      -0.015089  -0.029279   0.010548  -0.020619  -0.053011  -0.009856
      4      -0.008337   0.082216   0.078891  -0.032079  -0.025049   0.014934
      5       0.037317  -0.020625   0.026014   0.028897   0.032151  -0.047178
      6       0.375426  -0.006836  -0.003830  -0.024976   0.022820  -0.019680
      7       0.110093  -0.018072   0.036551  -0.003875   0.076119  -0.021523
      8      -0.011378  -0.013044   0.023549   0.025436   0.070272  -0.043634
      9       0.015635   0.147557  -0.022627   0.073755   0.126930  -0.063205
     10      -0.013988  -0.098116  -0.071672   0.022554   0.068014  -0.053218
     11       0.025267   0.153007   0.196095  -0.009628   0.090056   0.008011
     12      -0.411342  -0.051775   0.044726  -0.014172   0.030615  -0.003507
     13      -0.092317   0.133338   0.002040  -0.035726  -0.009996   0.029804
     14      -0.048032   0.051169  -0.054810  -0.012120  -0.050451   0.172795
     15       0.020240  -0.036339   0.033367  -0.033724  -0.074391   0.020900
     16      -0.024354   0.006177   0.061910  -0.055290  -0.108307  -0.107626
     17       0.052309  -0.112589   0.019136  -0.026125  -0.088810  -0.018880
     18       0.464977   0.011952  -0.064796  -0.005179  -0.051682   0.059188
     19       0.098241  -0.179029   0.014481   0.042550   0.072035   0.091840
     20       0.009233  -0.100704  -0.016192  -0.003530  -0.072619  -0.002153
     21       0.111134  -0.226156   0.041155   0.020032   0.068887   0.131733
     22       0.021404   0.052054   0.037503   0.009422  -0.026680   0.061937
     23      -0.118139   0.091196  -0.493760   0.084563  -0.064785  -0.167834
     24      -0.126096  -0.023928   0.011206   0.037037  -0.012825   0.052411
     25      -0.043025   0.228448  -0.416024   0.058913  -0.150513  -0.087502
     26       0.036587   0.043791  -0.179345   0.064954  -0.020938  -0.092938
     27      -0.142614  -0.023937   0.190158  -0.088007  -0.245754   0.055020
     28      -0.058455   0.118792   0.099842  -0.050415  -0.135053   0.036156
     29       0.023803  -0.094011   0.152044   0.006984   0.078819  -0.030397
     30       0.062254  -0.031259   0.036740  -0.056759  -0.025211   0.061348
     31      -0.026355  -0.125049  -0.006091  -0.003096   0.034705  -0.007231
     32       0.035204  -0.126969  -0.057852   0.049779   0.055627  -0.085406
     33      -0.142671   0.105030  -0.215751  -0.126719   0.286553  -0.099305
     34       0.282234  -0.019135   0.289565   0.401059  -0.232358   0.013915
     35      -0.059487  -0.121811  -0.342858  -0.830779   0.480125  -0.003331
     36       0.018905  -0.141188   0.045898   0.045312   0.228737  -0.093578
     37      -0.025985   0.045241   0.045145  -0.034440   0.003126  -0.129389
     38      -0.066449   0.234979  -0.156050  -0.001659  -0.033972   0.526134
     39      -0.109699  -0.044368   0.045916  -0.069264  -0.082082   0.005312
     40      -0.026424   0.355288  -0.104980  -0.061618  -0.090937   0.428504
     41       0.057281   0.061460  -0.057673  -0.032520  -0.095025   0.190572
     42       0.032443  -0.081527   0.151502  -0.145727  -0.367783  -0.266288
     43      -0.005079   0.074573   0.087517  -0.112443  -0.243865  -0.204534
     44       0.027392  -0.282246   0.075061  -0.015818  -0.089045  -0.089697
     45       0.140884  -0.019495  -0.043046   0.004965  -0.064683  -0.044183
     46      -0.055249  -0.360302   0.041379   0.095401   0.184079   0.198289
     47       0.041435  -0.296125   0.001441   0.052699   0.070341   0.198482
     48      -0.079602   0.211369  -0.181852   0.040063  -0.059587   0.049218
     49       0.022359  -0.267126  -0.009590   0.095085   0.171578   0.218462
     50       0.012590   0.094770   0.005200  -0.088078  -0.253382  -0.230550
[...]
      3       0.017075  -0.062198   0.005461   0.018473   0.003719   0.000976
      4      -0.023240   0.028626   0.000505  -0.083010  -0.098794  -0.006659
      5      -0.012337   0.100292  -0.001232   0.174735   0.230064   0.000493
      6       0.005395   0.042714  -0.003908  -0.007385   0.055760  -0.028785
      7       0.046415  -0.063548  -0.002414   0.001981   0.017815   0.058217
      8       0.059206  -0.158392   0.003852  -0.087765  -0.138904  -0.055140
      9      -0.010849   0.003648   0.000024   0.004737  -0.005727  -0.000453
     10      -0.003158   0.011937  -0.000352   0.000106   0.002199   0.000744
     11      -0.008882   0.020690  -0.000375   0.008508   0.013444   0.001128
     12      -0.005242   0.014782  -0.028154   0.004465   0.057408  -0.000700
     13       0.031230   0.019472   0.087184   0.068290  -0.125437  -0.005539
     14       0.005490  -0.004684  -0.050577  -0.058108   0.132895   0.002819
     15       0.000327  -0.008034   0.049603   0.008326  -0.018577   0.000320
     16       0.049329  -0.000491  -0.033077  -0.058534   0.153926  -0.000365
     17      -0.103374   0.010955  -0.020841   0.103155  -0.281101  -0.000342
     18      -0.005635  -0.005542  -0.017683  -0.017447  -0.036775  -0.000185
     19      -0.025967   0.000476   0.005914   0.010960  -0.042028   0.000289
     20      -0.013926  -0.023788   0.108978  -0.073029   0.172621   0.000104
     21       0.089651   0.144630   0.011614  -0.150563   0.016294  -0.000412
     22       0.065608   0.117102   0.007520  -0.128627  -0.041819  -0.001955
     23      -0.135667  -0.430694  -0.010513   0.435844   0.241612   0.000916
     24       0.040581  -0.158277   0.027503  -0.023037   0.045981   0.002200
     25       0.139973   0.593090   0.020233  -0.388205  -0.107246   0.000707
     26       0.020891  -0.035551   0.008273  -0.108637  -0.085485  -0.007402
     27       0.026935  -0.066121  -0.004109  -0.015966  -0.021915  -0.033847
     28      -0.002243   0.115747  -0.005551   0.110322   0.121746   0.076044
     29      -0.058834  -0.053238   0.003296  -0.296092  -0.279914   0.029115
     30       0.025553  -0.092033   0.027789   0.085721  -0.074377   0.366922
     31      -0.202511   0.334312   0.012334   0.124724   0.096871  -0.695372
     32      -0.234305   0.355739   0.001246  -0.025732  -0.001789   0.599045
     33       0.035052  -0.004899  -0.000705  -0.015410   0.021430   0.003494
     34      -0.079981   0.026252  -0.000075   0.036475  -0.036017   0.003258
     35      -0.047245   0.037837   0.001756   0.015738  -0.026081  -0.000157
     36      -0.144476  -0.027143  -0.121190  -0.101270   0.033224  -0.013091
     37      -0.144665  -0.056603  -0.139940  -0.109942   0.075183   0.055369
     38       0.303268   0.136362   0.398411   0.291163  -0.339514   0.026794
     39       0.146073  -0.047382   0.120230  -0.015792  -0.054434   0.018076
     40      -0.443843  -0.151594  -0.474700  -0.257299   0.188498   0.002007
     41       0.038687  -0.035420  -0.034889  -0.088023   0.130320  -0.058333
     42       0.007773   0.006383   0.019495  -0.003754   0.011127  -0.002536
     43      -0.183794   0.025430  -0.057632   0.105527  -0.199134   0.005462
     44       0.317045  -0.021632  -0.031382  -0.201396   0.377874   0.003674
     45      -0.050661  -0.025780   0.078339   0.057441   0.032543   0.001889
     46       0.229382   0.066116  -0.332802   0.207397  -0.208575  -0.002819
     47       0.382930   0.080675  -0.418009   0.135263  -0.074743   0.002297
     48       0.143931   0.057191  -0.182121   0.140820  -0.057345   0.000304
     49      -0.170477  -0.056076   0.272062  -0.150648   0.226895  -0.001829
     50       0.273516   0.081793  -0.364298   0.220171  -0.252276  -0.001284
                 42         43         44         45         46         47    
      0       0.003019   0.000118  -0.010189   0.008049  -0.000485   0.006845
      1       0.012355   0.000664  -0.054290  -0.020822  -0.000079  -0.012505
      2      -0.010802  -0.000500   0.036264  -0.018197   0.003189  -0.019881
      3      -0.000031  -0.000695  -0.000062  -0.034422  -0.003409   0.004448
      4       0.000169   0.002144  -0.001208   0.067712   0.007302  -0.008395
      5       0.000793   0.000443  -0.004399   0.031315   0.003347  -0.003703
      6      -0.000099   0.002352   0.000968  -0.001309   0.000095   0.000232
      7       0.000093  -0.004643  -0.000934   0.005531   0.001373  -0.000553
      8      -0.000052   0.004838   0.000175  -0.007844  -0.001485   0.000672
      9       0.000037   0.000251  -0.000217  -0.000029   0.000080   0.000053
     10      -0.000026   0.000090   0.000150  -0.000277  -0.000081   0.000107
     11       0.000041  -0.000109  -0.000112  -0.000075   0.000108   0.000059
     12      -0.000533  -0.003915  -0.000414   0.000779   0.009464   0.013797
     13      -0.002413  -0.063280  -0.001092   0.000848  -0.016232  -0.021872
     14       0.000579   0.025702   0.000776  -0.001087  -0.023937  -0.038537
     15       0.000780  -0.001427   0.000320   0.002428  -0.026744  -0.013959
     16       0.002621   0.001259   0.000739  -0.004029   0.051984   0.026330
     17      -0.003254  -0.004149  -0.001055  -0.002184   0.028845   0.015347
     18       0.011874  -0.000185   0.002246  -0.001932   0.017162  -0.022302
     19       0.013302  -0.000254   0.005829   0.006949  -0.051697   0.069113
     20       0.064174  -0.002763   0.015749  -0.000747   0.001261  -0.008445
     21       0.017266   0.001293  -0.082298  -0.026880   0.000362  -0.021007
     22      -0.143146  -0.006568   0.621541   0.223776  -0.001983   0.150105
     23      -0.060108  -0.002881   0.255885   0.087982   0.000346   0.057558
     24      -0.058244  -0.002913   0.223968  -0.055830   0.010370  -0.061511
     25       0.003698   0.000077  -0.014739   0.000600  -0.000328  -0.000394
     26       0.176112   0.008101  -0.651009   0.152881  -0.032335   0.176792
     27       0.006723   0.008774  -0.022408   0.373273   0.037001  -0.044997
     28      -0.011363  -0.020664   0.046954  -0.790525  -0.080367   0.095043
     29      -0.005281  -0.009065   0.022042  -0.355599  -0.036383   0.042531
     30       0.000461  -0.032721  -0.005901   0.028075   0.004674  -0.002355
     31      -0.000048   0.057502   0.007468  -0.057358  -0.011419   0.004138
     32      -0.000222  -0.050827  -0.005176   0.052927   0.010027  -0.003611
     33      -0.000146  -0.000498   0.002694   0.001335   0.000585   0.000602
     34      -0.000389   0.000103   0.001153   0.000789  -0.000189   0.000599
     35       0.000028   0.000137   0.000016  -0.001143  -0.000179   0.000724
     36      -0.002607  -0.125009  -0.001466  -0.000422  -0.033246  -0.045241
     37       0.026951   0.681798   0.012039  -0.008538   0.190592   0.272346
     38       0.014407   0.326889   0.006093  -0.003426   0.086250   0.126149
     39       0.006257   0.197175   0.005378  -0.006215  -0.072232  -0.114252
     40      -0.000776   0.022967   0.000441  -0.001759  -0.013084  -0.021597
     41      -0.018927  -0.598547  -0.015887   0.016842   0.213542   0.339908
     42       0.010527  -0.011180   0.000585  -0.023973   0.296269   0.148044
     43      -0.022890   0.024787  -0.003093   0.049111  -0.610862  -0.304843
     44      -0.011422   0.015054  -0.001489   0.027647  -0.342120  -0.172733
     45      -0.239342   0.010950  -0.054843   0.022301  -0.162581   0.225483
     46       0.468803  -0.020393   0.103044  -0.043840   0.305759  -0.429362
     47      -0.332852   0.016433  -0.072401   0.032288  -0.228240   0.322738
     48       0.079677  -0.005154   0.022709   0.003439  -0.035786   0.044727
     49      -0.631724   0.022866  -0.170005  -0.037399   0.310743  -0.388749
     50      -0.375305   0.015596  -0.102386  -0.024174   0.193686  -0.241022
                  48         49         50    
      0      -0.021853  -0.007124   0.000172
      1       0.047025   0.016578  -0.000257
      2       0.068198   0.023170   0.000045
      3      -0.009468  -0.003862  -0.000091
      4       0.018158   0.007629  -0.000472
      5       0.007783   0.003350  -0.000192
      6      -0.000299   0.000412   0.001479
      7       0.001486   0.000763  -0.000280
      8      -0.001738  -0.000369  -0.000752
      9       0.000127  -0.000038   0.053286
     10      -0.000174  -0.000387   0.032140
     11       0.000125  -0.000056   0.001219
     12       0.010596  -0.019650   0.000148
     13      -0.015679   0.029606  -0.000098
     14      -0.032300   0.062285   0.000199
     15       0.004396  -0.019302  -0.000097
     16      -0.008179   0.036032   0.000380
     17      -0.004265   0.020155  -0.000191
     18      -0.003832  -0.008577  -0.000096
     19       0.013558   0.029692   0.000101
     20       0.000218  -0.004953   0.000094
     21       0.067552   0.022306  -0.000975
     22      -0.569326  -0.201796   0.002529
     23      -0.220153  -0.077667   0.002415
     24       0.199874   0.066542   0.000255
     25      -0.000383  -0.000414  -0.000279
     26      -0.580404  -0.194407  -0.000764
     27       0.096959   0.043615  -0.000214
     28      -0.205773  -0.089982  -0.000708
     29      -0.090930  -0.039739  -0.001351
     30       0.006399   0.000670   0.002527
     31      -0.011049  -0.002758  -0.005278
     32       0.011349   0.001263   0.000496
     33      -0.001700   0.000547  -0.865332
     34      -0.000280  -0.000878  -0.497153
     35      -0.000431  -0.001376  -0.010502
     36      -0.036184   0.069856   0.000360
     37       0.209516  -0.404076  -0.000473
     38       0.096649  -0.183766   0.000101
     39      -0.092928   0.176072  -0.000364
     40      -0.018461   0.034824  -0.000299
     41       0.282198  -0.540080  -0.000136
     42      -0.043116   0.200831  -0.000260
     43       0.089565  -0.412261  -0.000556
     44       0.048978  -0.230359  -0.000272
     45       0.038358   0.093799  -0.000249
     46      -0.072464  -0.183427  -0.000054
     47       0.053588   0.137606   0.000144
     48       0.006572   0.018709   0.000444
     49      -0.090266  -0.166562  -0.000393
     50      -0.054387  -0.105508   0.000009


-----------
IR SPECTRUM
-----------

 Mode    freq (cm**-1)   T**2         TX         TY         TZ
-------------------------------------------------------------------
   7:       165.63    8.058031  (  0.819277  -0.486321   2.674006)
   8:       216.43   81.932440  (  2.457728  -2.760165   8.262778)
   9:       265.43    4.255946  ( -1.017806   0.764114  -1.623622)
  10:       299.22   27.249495  (  2.950716  -1.242387   4.123014)
  11:       343.88    6.439594  (  1.518919   1.730189   1.067204)
  12:       417.04    1.034634  (  0.739152   0.692428  -0.093981)
  13:       457.24    4.638860  ( -0.554398  -2.064526  -0.263131)
  14:       529.60   12.174961  ( -2.821020  -1.774294  -1.033774)
  15:       549.33    8.604523  (  1.735362   2.362154  -0.115182)
  16:       675.26    3.086408  (  0.078959   0.283070   1.732064)
  17:       768.72    4.747436  ( -1.592019   0.771290   1.272015)
  18:       799.93  272.900469  (-16.481241  -1.040738  -0.431322)
  19:       878.40    3.386259  ( -0.152024  -1.763313   0.503858)
  20:       919.53   30.994626  (  0.693525   0.027050   5.523850)
  21:       969.08    0.312386  ( -0.448569  -0.285377  -0.172428)
  22:       984.36    1.170242  ( -0.283260   0.854565  -0.599771)
  23:      1011.58   18.841582  (  0.803544   4.225889   0.581169)
  24:      1029.49    3.619516  (  0.576269   1.677662   0.687664)
  25:      1042.65    9.306251  (  1.027658   2.346296   1.656824)
  26:      1072.12    3.340464  (  1.064131   1.192823   0.886150)
  27:      1124.06   10.322357  ( -0.981325  -2.078549  -2.244770)
  28:      1161.62    5.055956  ( -0.185328   1.779851   1.361521)
  29:      1179.88   20.452190  ( -0.319073   3.600271   2.718166)
  30:      1212.64   14.896027  (  0.643428   2.901720   2.462123)
  31:      1234.42   19.986287  ( -0.432352  -2.959677  -3.322600)
  32:      1260.68   15.897280  (  0.760179  -3.233906  -2.204827)
  33:      1267.99   10.599844  ( -0.062647  -2.325647  -2.277561)
  34:      1296.41   23.538194  ( -1.738193   3.818748   2.435989)
  35:      1388.78    6.837754  ( -0.003178   2.549083   0.583025)
  36:      1413.68    3.527423  (  0.370489   0.749406   1.681830)
  37:      1475.04   14.063551  ( -0.941404  -1.362649  -3.364595)
  38:      1499.14    5.101638  (  0.923064  -1.886818  -0.830367)
  39:      1517.93    4.709246  ( -0.538821  -1.556854  -1.412488)
  40:      1589.27    8.625621  ( -0.371348  -0.707737  -2.826098)
  41:      3088.53   30.650688  ( -2.469643   4.254882  -2.539198)
  42:      3119.88   11.685052  (  1.941844   0.869567   2.675471)
  43:      3124.85   14.934639  ( -1.094174  -3.473835   1.292244)
  44:      3128.87   16.422085  ( -0.864106  -2.360380   3.178681)
  45:      3189.07    5.884658  ( -1.087464   2.162787  -0.156308)
  46:      3191.57    0.628275  ( -0.535833  -0.507928   0.288388)
  47:      3206.96    2.239591  ( -0.367804   0.989616  -1.060647)
  48:      3213.82    2.505975  ( -0.387715   1.259413   0.877230)
  49:      3215.94   13.967831  ( -0.771846   3.205136   1.760452)
  50:      3871.32   42.419770  ( -4.796253  -4.174684  -1.409871)

The first frequency considered to be a vibration is 7
The total number of vibrations considered is 44


--------------------------
THERMOCHEMISTRY AT 298.15K
--------------------------

Temperature         ... 298.15 K
Pressure            ... 1.00 atm
Total Mass          ... 98.14 AMU

Throughout the following assumptions are being made:
  (1) The electronic state is orbitally nondegenerate
  (2) There are no thermally accessible electronically excited states
  (3) Hindered rotations indicated by low frequency modes are not
      treated as such but are treated as vibrations and this may
      cause some error
  (4) All equations used are the standard statistical mechanics
      equations for an ideal gas
  (5) All vibrations are strictly harmonic

freq.     165.63  E(vib)   ...       0.39 
freq.     216.43  E(vib)   ...       0.34 
freq.     265.43  E(vib)   ...       0.29 
freq.     299.22  E(vib)   ...       0.26 
freq.     343.88  E(vib)   ...       0.23 
freq.     417.04  E(vib)   ...       0.18 
freq.     457.24  E(vib)   ...       0.16 
freq.     529.60  E(vib)   ...       0.13 
freq.     549.33  E(vib)   ...       0.12 
freq.     675.26  E(vib)   ...       0.08 
freq.     768.72  E(vib)   ...       0.06 
freq.     799.93  E(vib)   ...       0.05 
freq.     878.40  E(vib)   ...       0.04 
freq.     919.53  E(vib)   ...       0.03 
freq.     969.08  E(vib)   ...       0.03 
freq.     984.36  E(vib)   ...       0.02 
freq.    1011.58  E(vib)   ...       0.02 
freq.    1029.49  E(vib)   ...       0.02 
freq.    1042.65  E(vib)   ...       0.02 
freq.    1072.12  E(vib)   ...       0.02 
freq.    1124.06  E(vib)   ...       0.01 
freq.    1161.62  E(vib)   ...       0.01 
freq.    1179.88  E(vib)   ...       0.01 
freq.    1212.64  E(vib)   ...       0.01 
freq.    1234.42  E(vib)   ...       0.01 
freq.    1260.68  E(vib)   ...       0.01 
freq.    1267.99  E(vib)   ...       0.01 
freq.    1296.41  E(vib)   ...       0.01 
freq.    1388.78  E(vib)   ...       0.00 
freq.    1413.68  E(vib)   ...       0.00 
freq.    1475.04  E(vib)   ...       0.00 
freq.    1499.14  E(vib)   ...       0.00 
freq.    1517.93  E(vib)   ...       0.00 
freq.    1589.27  E(vib)   ...       0.00 
freq.    3088.53  E(vib)   ...       0.00 
freq.    3119.88  E(vib)   ...       0.00 
freq.    3124.85  E(vib)   ...       0.00 
freq.    3128.87  E(vib)   ...       0.00 
freq.    3189.07  E(vib)   ...       0.00 
freq.    3191.57  E(vib)   ...       0.00 
freq.    3206.96  E(vib)   ...       0.00 
freq.    3213.82  E(vib)   ...       0.00 
freq.    3215.94  E(vib)   ...       0.00 
freq.    3871.32  E(vib)   ...       0.00 

------------
INNER ENERGY
------------

The inner energy is: U= E(el) + E(ZPE) + E(vib) + E(rot) + E(trans)
    E(el)   - is the total energy from the electronic structure calculation
              = E(kin-el) + E(nuc-el) + E(el-el) + E(nuc-nuc)
    E(ZPE)  - the the zero temperature vibrational energy from the frequency calculation
    E(vib)  - the the finite temperature correction to E(ZPE) due to population
              of excited vibrational states
    E(rot)  - is the rotational thermal energy
    E(trans)- is the translational thermal energy

Summary of contributions to the inner energy U:
Electronic energy                ...   -309.19347135 Eh
Zero point energy                ...      0.14663944 Eh      92.02 kcal/mol
Thermal vibrational correction   ...      0.00411790 Eh       2.58 kcal/mol
Thermal rotational correction    ...      0.00141627 Eh       0.89 kcal/mol
Thermal translational correction ...      0.00141627 Eh       0.89 kcal/mol
-----------------------------------------------------------------------
Total thermal energy                   -309.03988147 Eh


Summary of corrections to the electronic energy:
(perhaps to be used in another calculation)
Total thermal correction                  0.00695044 Eh       4.36 kcal/mol
Non-thermal (ZPE) correction              0.14663944 Eh      92.02 kcal/mol
-----------------------------------------------------------------------
Total correction                          0.15358989 Eh      96.38 kcal/mol


--------
ENTHALPY
--------

The enthalpy is H = U + kB*T
                kB is Boltzmann's constant
Total free energy                 ...   -309.03988147 Eh 
Thermal Enthalpy correction       ...      0.00094421 Eh       0.59 kcal/mol
-----------------------------------------------------------------------
Total Enthalpy                    ...   -309.03893726 Eh


Note: Rotational entropy computed according to Herzberg 
Infrared and Raman Spectra, Chapter V,1, Van Nostrand Reinhold, 1945 
Point Group:  C1, Symmetry Number:   1  
Rotational constants in cm-1:     0.119675     0.094188     0.071238 

Vibrational entropy computed according to the QRRHO of S. Grimme
Chem.Eur.J. 2012 18 9955


-------
ENTROPY
-------

The entropy contributions are T*S = T*(S(el)+S(vib)+S(rot)+S(trans))
     S(el)   - electronic entropy
     S(vib)  - vibrational entropy
     S(rot)  - rotational entropy
     S(trans)- translational entropy
The entropies will be listed as mutliplied by the temperature to get
units of energy

Electronic entropy                ...      0.00000000 Eh      0.00 kcal/mol
Vibrational entropy               ...      0.00642092 Eh      4.03 kcal/mol
Rotational entropy                ...      0.01287547 Eh      8.08 kcal/mol
Translational entropy             ...      0.01884472 Eh     11.83 kcal/mol
-----------------------------------------------------------------------
Final entropy term                ...      0.03814112 Eh     23.93 kcal/mol


-------------------
GIBBS FREE ENTHALPY
-------------------

The Gibbs free enthalpy is G = H - T*S

Total enthalpy                    ...   -309.03893726 Eh 
Total entropy correction          ...     -0.03814112 Eh    -23.93 kcal/mol
-----------------------------------------------------------------------
Final Gibbs free enthalpy         ...   -309.07707837 Eh

For completeness - the Gibbs free enthalpy minus the electronic energy
G-E(el)                           ...      0.11639298 Eh     73.04 kcal/mol


Timings for individual modules:

Sum of individual times         ...      164.689 sec (=   2.745 min)
GTO integral calculation        ...        7.103 sec (=   0.118 min)   4.3 %
SCF iterations                  ...       52.512 sec (=   0.875 min)  31.9 %
SCF Gradient evaluation         ...       16.541 sec (=   0.276 min)  10.0 %
Geometry relaxation             ...        0.698 sec (=   0.012 min)   0.4 %
Analytical frequency calculation...       87.834 sec (=   1.464 min)  53.3 %
                             ****ORCA TERMINATED NORMALLY****
TOTAL RUN TIME: 0 days 0 hours 2 minutes 47 seconds 596 msec
