
                                 *****************
                                 * O   R   C   A *
                                 *****************

           --- An Ab Initio, DFT and Semiempirical electronic structure package ---

                  #######################################################
                  #                        -***-                        #
                  #          Department of theory and spectroscopy      #
                  #               Directorship: Frank Neese             #
                  #        Max Planck Institute fuer Kohlenforschung    #
                  #                Kaiser Wilhelm Platz 1               #
                  #                 D-45470 Muelheim/Ruhr               #
                  #                      Germany                        #
                  #                                                     #
                  #                  All rights reserved                #
                  #                        -***-                        #
                  #######################################################


                         Program Version 4.1.1  - RELEASE  -


 With contributions from (in alphabetic order):
   Daniel Aravena         : Magnetic Properties
   Michael Atanasov       : Ab Initio Ligand Field Theory
   Alexander A. Auer      : GIAO ZORA
   Ute Becker             : Parallelization
   Giovanni Bistoni       : ED, Open-shell LED
   Martin Brehm           : Molecular dynamics
   Dmytro Bykov           : SCF Hessian
   Vijay G. Chilkuri      : MRCI spin determinant printing
   Dipayan Datta          : RHF DLPNO-CCSD density
   Achintya Kumar Dutta   : EOM-CC, STEOM-CC
   Dmitry Ganyushin       : Spin-Orbit,Spin-Spin,Magnetic field MRCI
   Miquel Garcia          : C-PCM Hessian
   Yang Guo               : DLPNO-NEVPT2, CIM, IAO-localization
   Andreas Hansen         : Spin unrestricted coupled pair/coupled cluster methods
   Benjamin Helmich-Paris : CASSCF linear response (MC-RPA)
   Lee Huntington         : MR-EOM, pCC
   Robert Izsak           : Overlap fitted RIJCOSX, COSX-SCS-MP3, EOM
   Christian Kollmar      : KDIIS, OOCD, Brueckner-CCSD(T), CCSD density
   Simone Kossmann        : Meta GGA functionals, TD-DFT gradient, OOMP2, MP2 Hessian
   Martin Krupicka        : AUTO-CI
   Lucas Lang             : DCDCAS
   Dagmar Lenk            : GEPOL surface, SMD
   Dimitrios Liakos       : Extrapolation schemes; parallel MDCI
   Dimitrios Manganas     : ROCIS; embedding schemes
   Dimitrios Pantazis     : SARC Basis sets
   Taras Petrenko         : DFT Hessian,TD-DFT gradient, ASA, ECA, R-Raman, ABS, FL, XAS/XES, NRVS
   Peter Pinski           : DLPNO-MP2, DLPNO-MP2 Gradient
   Christoph Reimann      : Effective Core Potentials
   Marius Retegan         : Local ZFS, SOC
   Christoph Riplinger    : Optimizer, TS searches, QM/MM, DLPNO-CCSD(T), (RO)-DLPNO pert. Triples
   Tobias Risthaus        : Range-separated hybrids, TD-DFT gradient, RPA, STAB
   Michael Roemelt        : Restricted open shell CIS
   Masaaki Saitow         : Open-shell DLPNO
   Barbara Sandhoefer     : DKH picture change effects
   Avijit Sen             : IP-ROCIS
   Kantharuban Sivalingam : CASSCF convergence, NEVPT2, FIC-MRCI
   Bernardo de Souza      : ESD, SOC TD-DFT
   Georgi Stoychev        : AutoAux, RI-MP2 NMR
   Willem Van den Heuvel  : Paramagnetic NMR
   Boris Wezisla          : Elementary symmetry handling
   Frank Wennmohs         : Technical directorship


 We gratefully acknowledge several colleagues who have allowed us to
 interface, adapt or use parts of their codes:
   Stefan Grimme, W. Hujo, H. Kruse,             : VdW corrections, initial TS optimization,
                  C. Bannwarth                     DFT functionals, gCP, sTDA/sTD-DF
   Ed Valeev                                     : LibInt (2-el integral package), F12 methods
   Garnet Chan, S. Sharma, J. Yang, R. Olivares  : DMRG
   Ulf Ekstrom                                   : XCFun DFT Library
   Mihaly Kallay                                 : mrcc  (arbitrary order and MRCC methods)
   Andreas Klamt, Michael Diedenhofen            : otool_cosmo (COSMO solvation model)
   Jiri Pittner, Ondrej Demel                    : Mk-CCSD
   Frank Weinhold                                : gennbo (NPA and NBO analysis)
   Christopher J. Cramer and Donald G. Truhlar   : smd solvation model
   Lars Goerigk                                  : TD-DFT with DH, B97 family of functionals
   V. Asgeirsson, H. Jonsson                     : NEB implementation
   FAccTs GmbH                                   : IRC, NEB, NEB-TS, Multilevel


 Your calculation uses the libint2 library for the computation of 2-el integrals
 For citations please refer to: http://libint.valeyev.net

 This ORCA versions uses:
   CBLAS   interface :  Fast vector & matrix operations
   LAPACKE interface :  Fast linear algebra routines
   SCALAPACK package :  Parallel linear algebra routines


Your calculation utilizes the atom-pairwise dispersion correction
with the Becke-Johnson damping scheme (D3BJ)
Cite in your paper:
S.Grimme, S.Ehrlich, L.Goerigk, J Comput Chem, (2011), 32, 1456–1465 
S.Grimme, J.Antony, S.Ehrlich and H.Krieg, J.Chem.Phys., 132, (2010), 154104 
   

----- Orbital basis set information -----
Your calculation utilizes the basis: def2-SVP
   F. Weigend and R. Ahlrichs, Phys. Chem. Chem. Phys. 7, 3297 (2005).

----- AuxJ basis set information -----
Your calculation utilizes the auxiliary basis: def2/J
   F. Weigend, Phys. Chem. Chem. Phys. 8, 1057 (2006).

================================================================================
                                        WARNINGS
                       Please study these warnings very carefully!
================================================================================


WARNING: Geometry Optimization
  ===> : Switching off AutoStart
         For restart on a previous wavefunction, please use MOREAD

INFO   : the flag for use of LIBINT has been found!

================================================================================
                                       INPUT FILE
================================================================================
NAME = xtb1d_04_24_orca_opt.inp
|  1> ! OptTS Freq PBE0 RIJCOSX D3BJ def2-SVP def2/J PAL8
|  2> %geom
|  3> Calc_Hess true
|  4> Recalc_Hess 40
|  5> Trust 0.2
|  6> MaxIter 100
|  7> end
|  8> %geom
|  9> modify_internal
| 10> { B 0 4 A } end
| 11> end
| 12> %geom
| 13> modify_internal
| 14> { B 0 4 A } end
| 15> end
| 16> %geom MaxIter 100 end
| 17> %scf 
| 18> maxiter 250 
| 19> end
| 20> % maxcore 4000
| 21> *xyz 0 1
| 22> C   1.53388073  0.77961672 -0.66786717 
| 23> C   1.72896647  0.05981624  0.41542360 
| 24> C   0.61557441 -0.80729387  0.92255622 
| 25> O   0.17249517 -1.76389592 -0.01928925 
| 26> C  -0.54629810  0.13795502  1.26846996 
| 27> C  -1.26347745  0.76057963  0.10921481 
| 28> C  -2.14897240  0.11615134 -0.62933440 
| 29> H   2.28538559  1.45204284 -1.05135125 
| 30> H   0.63898077  0.67693353 -1.25469802 
| 31> H   2.62863274  0.13255412  1.00845747 
| 32> H   0.92735977 -1.32476346  1.84605851 
| 33> H   0.94111512 -2.15605344 -0.44577271 
| 34> H  -0.15406436  0.91245161  1.92991724 
| 35> H  -1.27727377 -0.44941115  1.83364831 
| 36> H  -1.04668320  1.80330934 -0.08278991 
| 37> H  -2.37660027 -0.92091161 -0.45143494 
| 38> H  -2.65902122  0.59091905 -1.45110847 
| 39> *
| 40> 
| 41>                          ****END OF INPUT****
================================================================================

                       *****************************
                       * Geometry Optimization Run *
                       *****************************

Geometry optimization settings:
Update method            Update   .... Bofill
Choice of coordinates    CoordSys .... Z-matrix Internals
Initial Hessian          InHess   .... Almoef's Model

Convergence Tolerances:
Energy Change            TolE     ....  5.0000e-06 Eh
Max. Gradient            TolMAXG  ....  3.0000e-04 Eh/bohr
RMS Gradient             TolRMSG  ....  1.0000e-04 Eh/bohr
Max. Displacement        TolMAXD  ....  4.0000e-03 bohr
RMS Displacement         TolRMSD  ....  2.0000e-03 bohr

------------------------------------------------------------------------------
                        ORCA OPTIMIZATION COORDINATE SETUP
------------------------------------------------------------------------------

The optimization will be done in new redundant internal coordinates
Making redundant internal coordinates   ...  (new redundants) Bond   4,  0 is already included
done
Following TS mode number                ...     0
Evaluating the initial hessian          ...  (Is done on the fly) done
Evaluating the coordinates              ...  done
Calculating the B-matrix                .... done
Calculating the G-matrix                .... done
Diagonalizing the G-matrix              .... done
Small eigenvalue found = 2.820e-02
The first mode is                       ....   29
The number of degrees of freedom        ....   45

    -----------------------------------------------------------------
                    Redundant Internal Coordinates


    -----------------------------------------------------------------
         Definition                    Initial Value    d2E/dq (diagonal element)
    -----------------------------------------------------------------
      1. B(C   1,C   0)                  1.3152         0.000000   
      2. B(C   2,C   1)                  1.4996         0.000000   
      3. B(O   3,C   2)                  1.4137         0.000000   
      4. B(C   4,C   2)                  1.5372         0.000000   
      5. B(C   4,C   0)                  2.9135         0.000000   
      6. B(C   5,C   4)                  1.4986         0.000000   
      7. B(C   6,C   5)                  1.3209         0.000000   
      8. B(H   7,C   0)                  1.0789         0.000000   
      9. B(H   8,C   0)                  1.0751         0.000000   
     10. B(H   9,C   1)                  1.0800         0.000000   
     11. B(H  10,C   2)                  1.1036         0.000000   
     12. B(H  11,O   3)                  0.9625         0.000000   
     13. B(H  12,C   4)                  1.0914         0.000000   
     14. B(H  13,C   4)                  1.0949         0.000000   
     15. B(H  14,C   5)                  1.0822         0.000000   
     16. B(H  15,C   6)                  1.0766         0.000000   
     17. B(H  16,C   6)                  1.0774         0.000000   
     18. A(C   1,C   0,H   8)          121.3869         0.000000   
     19. A(C   1,C   0,H   7)          122.0438         0.000000   
     20. A(H   7,C   0,H   8)          116.4449         0.000000   
     21. A(C   0,C   1,H   9)          122.6156         0.000000   
     22. A(C   2,C   1,H   9)          118.1479         0.000000   
     23. A(C   0,C   1,C   2)          119.0057         0.000000   
     24. A(C   4,C   2,H  10)          108.2742         0.000000   
     25. A(C   1,C   2,C   4)          106.3626         0.000000   
     26. A(C   1,C   2,H  10)          110.1440         0.000000   
     27. A(C   1,C   2,O   3)          113.4956         0.000000   
     28. A(O   3,C   2,C   4)          109.2152         0.000000   
     29. A(O   3,C   2,H  10)          109.1951         0.000000   
     30. A(C   2,O   3,H  11)          108.7002         0.000000   
     31. A(C   2,C   4,C   5)          116.3023         0.000000   
     32. A(H  12,C   4,H  13)          107.9256         0.000000   
     33. A(C   5,C   4,H  13)          107.6192         0.000000   
     34. A(C   2,C   4,H  13)          106.9114         0.000000   
     35. A(C   5,C   4,H  12)          110.2405         0.000000   
     36. A(C   2,C   4,H  12)          107.5234         0.000000   
     37. A(C   4,C   5,C   6)          123.4094         0.000000   
     38. A(C   6,C   5,H  14)          120.3421         0.000000   
     39. A(C   4,C   5,H  14)          116.2115         0.000000   
     40. A(H  15,C   6,H  16)          116.7710         0.000000   
     41. A(C   5,C   6,H  16)          121.9253         0.000000   
     42. A(C   5,C   6,H  15)          121.2863         0.000000   
     43. D(C   2,C   1,C   0,H   8)     -6.8805         0.000000   
     44. D(H   9,C   1,C   0,H   8)    178.7462         0.000000   
     45. D(C   2,C   1,C   0,H   7)    177.3195         0.000000   
     46. D(H   9,C   1,C   0,H   7)      2.9462         0.000000   
     47. D(C   4,C   2,C   1,C   0)    -61.5390         0.000000   
     48. D(O   3,C   2,C   1,H   9)   -126.8036         0.000000   
     49. D(H  10,C   2,C   1,H   9)     -4.0293         0.000000   
     50. D(H  10,C   2,C   1,C   0)   -178.6550         0.000000   
     51. D(C   4,C   2,C   1,H   9)    113.0867         0.000000   
     52. D(O   3,C   2,C   1,C   0)     58.5707         0.000000   
     53. D(H  11,O   3,C   2,H  10)    -80.2640         0.000000   
     54. D(H  11,O   3,C   2,C   4)    161.5100         0.000000   
     55. D(H  11,O   3,C   2,C   1)     43.0320         0.000000   
     56. D(C   5,C   4,C   2,O   3)    -51.2330         0.000000   
     57. D(C   5,C   4,C   2,C   1)     71.6110         0.000000   
     58. D(H  13,C   4,C   2,H  10)    -49.8228         0.000000   
     59. D(H  13,C   4,C   2,O   3)     68.9781         0.000000   
     60. D(H  13,C   4,C   2,C   1)   -168.1779         0.000000   
     61. D(H  12,C   4,C   2,H  10)     65.8574         0.000000   
     62. D(H  12,C   4,C   2,O   3)   -175.3417         0.000000   
     63. D(H  12,C   4,C   2,C   1)    -52.4977         0.000000   
     64. D(C   5,C   4,C   2,H  10)   -170.0339         0.000000   
     65. D(H  14,C   5,C   4,H  13)    135.3714         0.000000   
     66. D(H  14,C   5,C   4,H  12)     17.9011         0.000000   
     67. D(H  14,C   5,C   4,C   2)   -104.7982         0.000000   
     68. D(C   6,C   5,C   4,H  13)    -42.4201         0.000000   
     69. D(C   6,C   5,C   4,H  12)   -159.8904         0.000000   
     70. D(C   6,C   5,C   4,C   2)     77.4103         0.000000   
     71. D(H  16,C   6,C   5,C   4)    179.2951         0.000000   
     72. D(H  15,C   6,C   5,H  14)   -179.9747         0.000000   
     73. D(H  15,C   6,C   5,C   4)     -2.2706         0.000000   
     74. D(H  16,C   6,C   5,H  14)      1.5910         0.000000   
    -----------------------------------------------------------------

Number of atoms                         .... 17
Number of degrees of freedom            .... 74

         *************************************************************
         *                GEOMETRY OPTIMIZATION CYCLE   1            *
         *************************************************************
---------------------------------
CARTESIAN COORDINATES (ANGSTROEM)
---------------------------------
  C      1.533881    0.779617   -0.667867
  C      1.728966    0.059816    0.415424
  C      0.615574   -0.807294    0.922556
  O      0.172495   -1.763896   -0.019289
  C     -0.546298    0.137955    1.268470
  C     -1.263477    0.760580    0.109215
  C     -2.148972    0.116151   -0.629334
  H      2.285386    1.452043   -1.051351
  H      0.638981    0.676934   -1.254698
  H      2.628633    0.132554    1.008457
  H      0.927360   -1.324763    1.846059
  H      0.941115   -2.156053   -0.445773
  H     -0.154064    0.912452    1.929917
  H     -1.277274   -0.449411    1.833648
  H     -1.046683    1.803309   -0.082790
  H     -2.376600   -0.920912   -0.451435
  H     -2.659021    0.590919   -1.451108

----------------------------
CARTESIAN COORDINATES (A.U.)
----------------------------
  NO LB      ZA    FRAG     MASS         X           Y           Z
   0 C     6.0000    0    12.011    2.898615    1.473262   -1.262086
   1 C     6.0000    0    12.011    3.267273    0.113036    0.785037
   2 C     6.0000    0    12.011    1.163267   -1.525564    1.743379
   3 O     8.0000    0    15.999    0.325969   -3.333280   -0.036451
   4 C     6.0000    0    12.011   -1.032354    0.260697    2.397061
   5 C     6.0000    0    12.011   -2.387626    1.437287    0.206386
   6 C     6.0000    0    12.011   -4.060969    0.219494   -1.189270
   7 H     1.0000    0     1.008    4.318753    2.743963   -1.986766
   8 H     1.0000    0     1.008    1.207499    1.279219   -2.371036
   9 H     1.0000    0     1.008    4.967396    0.250491    1.905708
  10 H     1.0000    0     1.008    1.752456   -2.503440    3.488545
  11 H     1.0000    0     1.008    1.778450   -4.074351   -0.842388
  12 H     1.0000    0     1.008   -0.291139    1.724284    3.647015
  13 H     1.0000    0     1.008   -2.413698   -0.849264    3.465093
  14 H     1.0000    0     1.008   -1.977945    3.407761   -0.156450
  15 H     1.0000    0     1.008   -4.491124   -1.740271   -0.853088
  16 H     1.0000    0     1.008   -5.024822    1.116675   -2.742198

--------------------------------
INTERNAL COORDINATES (ANGSTROEM)
--------------------------------
 C      0   0   0     0.000000000000     0.00000000     0.00000000
 C      1   0   0     1.315176820556     0.00000000     0.00000000
 C      2   1   0     1.499568376702   119.00568319     0.00000000
 O      3   2   1     1.413675912061   113.49558023    58.57068763
 C      3   2   1     1.537237622835   106.36262616   298.46103366
 C      5   3   2     1.498626080063   116.30225096    71.61098174
 C      6   5   3     1.320925457026   123.40942214    77.41033152
 H      1   2   3     1.078877417075   122.04378604   177.31950580
 H      1   2   3     1.075062892313   121.38693948   353.11954831
 H      2   1   3     1.079990447888   122.61556444   185.62664441
 H      3   2   1     1.103558501811   110.14398001   181.34501664
 H      4   3   2     0.962523916422   108.70015846    43.03198065
 H      5   3   2     1.091423281287   107.52337963   307.50233443
 H      5   3   2     1.094874885592   106.91139946   191.82209716
 H      6   5   3     1.082197212828   116.21154213   255.20183613
 H      7   6   5     1.076551079760   121.28630903   357.72937726
 H      7   6   5     1.077435287786   121.92527256   179.29507698

---------------------------
INTERNAL COORDINATES (A.U.)
---------------------------
 C      0   0   0     0.000000000000     0.00000000     0.00000000
 C      1   0   0     2.485324008531     0.00000000     0.00000000
 C      2   1   0     2.833773551055   119.00568319     0.00000000
 O      3   2   1     2.671460315917   113.49558023    58.57068763
 C      3   2   1     2.904958109919   106.36262616   298.46103366
 C      5   3   2     2.831992868471   116.30225096    71.61098174
 C      6   5   3     2.496187357104   123.40942214    77.41033152
 H      1   2   3     2.038782850345   122.04378604   177.31950580
 H      1   2   3     2.031574443213   121.38693948   353.11954831
 H      2   1   3     2.040886173760   122.61556444   185.62664441
 H      3   2   1     2.085423341184   110.14398001   181.34501664
 H      4   3   2     1.818906599387   108.70015846    43.03198065
 H      5   3   2     2.062491097818   107.52337963   307.50233443
 H      5   3   2     2.069013684678   106.91139946   191.82209716
 H      6   5   3     2.045056355137   116.21154213   255.20183613
 H      7   6   5     2.034386709923   121.28630903   357.72937726
 H      7   6   5     2.036057620938   121.92527256   179.29507698

---------------------
BASIS SET INFORMATION
---------------------
There are 3 groups of distinct atoms

 Group   1 Type C   : 7s4p1d contracted to 3s2p1d pattern {511/31/1}
 Group   2 Type O   : 7s4p1d contracted to 3s2p1d pattern {511/31/1}
 Group   3 Type H   : 4s1p contracted to 2s1p pattern {31/1}

Atom   0C    basis set group =>   1
Atom   1C    basis set group =>   1
Atom   2C    basis set group =>   1
Atom   3O    basis set group =>   2
Atom   4C    basis set group =>   1
Atom   5C    basis set group =>   1
Atom   6C    basis set group =>   1
Atom   7H    basis set group =>   3
Atom   8H    basis set group =>   3
Atom   9H    basis set group =>   3
Atom  10H    basis set group =>   3
Atom  11H    basis set group =>   3
Atom  12H    basis set group =>   3
Atom  13H    basis set group =>   3
Atom  14H    basis set group =>   3
Atom  15H    basis set group =>   3
Atom  16H    basis set group =>   3
-------------------------------
AUXILIARY BASIS SET INFORMATION
-------------------------------
There are 3 groups of distinct atoms

 Group   1 Type C   : 12s5p4d2f1g contracted to 6s4p3d1f1g pattern {711111/2111/211/2/1}
 Group   2 Type O   : 12s5p4d2f1g contracted to 6s4p3d1f1g pattern {711111/2111/211/2/1}
 Group   3 Type H   : 5s2p1d contracted to 3s1p1d pattern {311/2/1}

Atom   0C    basis set group =>   1
Atom   1C    basis set group =>   1
Atom   2C    basis set group =>   1
Atom   3O    basis set group =>   2
Atom   4C    basis set group =>   1
Atom   5C    basis set group =>   1
Atom   6C    basis set group =>   1
Atom   7H    basis set group =>   3
Atom   8H    basis set group =>   3
Atom   9H    basis set group =>   3
Atom  10H    basis set group =>   3
Atom  11H    basis set group =>   3
Atom  12H    basis set group =>   3
Atom  13H    basis set group =>   3
Atom  14H    basis set group =>   3
Atom  15H    basis set group =>   3
Atom  16H    basis set group =>   3


           ************************************************************
           *        Program running with 8 parallel MPI-processes     *
           *              working on a common directory               *
           ************************************************************
------------------------------------------------------------------------------
                           ORCA GTO INTEGRAL CALCULATION
                           -- RI-GTO INTEGRALS CHOSEN --
------------------------------------------------------------------------------

                         BASIS SET STATISTICS AND STARTUP INFO

Gaussian basis set:
 # of primitive gaussian shells          ...  134
 # of primitive gaussian functions       ...  238
 # of contracted shells                  ...   72
 # of contracted basis functions         ...  148
 Highest angular momentum                ...    2
 Maximum contraction depth               ...    5
Auxiliary gaussian basis set:
 # of primitive gaussian shells          ...  248
 # of primitive gaussian functions       ...  650
 # of contracted shells                  ...  155
 # of contracted aux-basis functions     ...  453
 Highest angular momentum                ...    4
 Maximum contraction depth               ...    7
Ratio of auxiliary to basis functions    ...  3.06
Integral package used                  ... LIBINT
 One Electron integrals                  ... done
 Ordering auxiliary basis shells         ... done
 Integral threshhold             Thresh  ...  2.500e-11
 Primitive cut-off               TCut    ...  2.500e-12
 Pre-screening matrix                    ... done
 Shell pair data                         ... 
 Ordering of the shell pairs             ... done (   0.000 sec) 2578 of 2628 pairs
 Determination of significant pairs      ... done (   0.000 sec)
 Creation of shell pair data             ... done (   0.000 sec)
 Storage of shell pair data              ... done (   0.001 sec)
 Shell pair data done in (   0.001 sec)
 Computing two index integrals           ... done
 Cholesky decomposition of the V-matrix  ... done


Timings:
 Total evaluation time                   ...   0.208 sec (  0.003 min)
 One electron matrix time                ...   0.022 sec (  0.000 min) = 10.6%
 Schwartz matrix evaluation time         ...   0.159 sec (  0.003 min) = 76.4%
 Two index repulsion integral time       ...   0.005 sec (  0.000 min) =  2.5%
 Cholesky decomposition of V             ...   0.004 sec (  0.000 min) =  2.1%
 Three index repulsion integral time     ...   0.000 sec (  0.000 min) =  0.0%



           ************************************************************
           *        Program running with 8 parallel MPI-processes     *
           *              working on a common directory               *
           ************************************************************
-------------------------------------------------------------------------------
                                 ORCA SCF
-------------------------------------------------------------------------------

------------
SCF SETTINGS
------------
Hamiltonian:
 Density Functional     Method          .... DFT(GTOs)
 Exchange Functional    Exchange        .... PBE
   PBE kappa parameter   XKappa         ....  0.804000
   PBE mue parameter    XMuePBE         ....  0.219520
 Correlation Functional Correlation     .... PBE
   PBE beta parameter  CBetaPBE         ....  0.066725
 LDA part of GGA corr.  LDAOpt          .... PW91-LDA
 Gradients option       PostSCFGGA      .... off
 Hybrid DFT is turned on
   Fraction HF Exchange ScalHFX         ....  0.250000
   Scaling of DF-GGA-X  ScalDFX         ....  0.750000
   Scaling of DF-GGA-C  ScalDFC         ....  1.000000
   Scaling of DF-LDA-C  ScalLDAC        ....  1.000000
   Perturbative correction              ....  0.000000
   Density functional embedding theory  .... OFF
   NL short-range parameter             ....  6.900000
 RI-approximation to the Coulomb term is turned on
   Number of auxiliary basis functions  .... 453
   RIJ-COSX (HFX calculated with COS-X)).... on


General Settings:
 Integral files         IntName         .... xtb1d_04_24_orca_opt
 Hartree-Fock type      HFTyp           .... RHF
 Total Charge           Charge          ....    0
 Multiplicity           Mult            ....    1
 Number of Electrons    NEL             ....   54
 Basis Dimension        Dim             ....  148
 Nuclear Repulsion      ENuc            ....    304.0210139603 Eh

Convergence Acceleration:
 DIIS                   CNVDIIS         .... on
   Start iteration      DIISMaxIt       ....    12
   Startup error        DIISStart       ....  0.200000
   # of expansion vecs  DIISMaxEq       ....     5
   Bias factor          DIISBfac        ....   1.050
   Max. coefficient     DIISMaxC        ....  10.000
 Newton-Raphson         CNVNR           .... off
 SOSCF                  CNVSOSCF        .... on
   Start iteration      SOSCFMaxIt      ....   150
   Startup grad/error   SOSCFStart      ....  0.003300
 Level Shifting         CNVShift        .... on
   Level shift para.    LevelShift      ....    0.2500
   Turn off err/grad.   ShiftErr        ....    0.0010
 Zerner damping         CNVZerner       .... off
 Static damping         CNVDamp         .... on
   Fraction old density DampFac         ....    0.7000
   Max. Damping (<1)    DampMax         ....    0.9800
   Min. Damping (>=0)   DampMin         ....    0.0000
   Turn off err/grad.   DampErr         ....    0.1000
 Fernandez-Rico         CNVRico         .... off

SCF Procedure:
 Maximum # iterations   MaxIter         ....   250
 SCF integral mode      SCFMode         .... Direct
   Integral package                     .... LIBINT
 Reset frequency        DirectResetFreq ....    20
 Integral Threshold     Thresh          ....  2.500e-11 Eh
 Primitive CutOff       TCut            ....  2.500e-12 Eh

Convergence Tolerance:
 Convergence Check Mode ConvCheckMode   .... Total+1el-Energy
 Convergence forced     ConvForced      .... 0
 Energy Change          TolE            ....  1.000e-08 Eh
 1-El. energy change                    ....  1.000e-05 Eh
 Orbital Gradient       TolG            ....  1.000e-05
 Orbital Rotation angle TolX            ....  1.000e-05
 DIIS Error             TolErr          ....  5.000e-07


Diagonalization of the overlap matrix:
Smallest eigenvalue                        ... 1.640e-03
Time for diagonalization                   ...    0.006 sec
Threshold for overlap eigenvalues          ... 1.000e-08
Number of eigenvalues below threshold      ... 0
Time for construction of square roots      ...    0.002 sec
Total time needed                          ...    0.009 sec

-------------------
DFT GRID GENERATION
-------------------

General Integration Accuracy     IntAcc      ...  4.340
Radial Grid Type                 RadialGrid  ... Gauss-Chebyshev
Angular Grid (max. acc.)         AngularGrid ... Lebedev-110
Angular grid pruning method      GridPruning ... 3 (G Style)
Weight generation scheme         WeightScheme... Becke
Basis function cutoff            BFCut       ...    1.0000e-11
Integration weight cutoff        WCut        ...    1.0000e-14
Grids for H and He will be reduced by one unit

# of grid points (after initial pruning)     ...  19592 (   0.0 sec)
# of grid points (after weights+screening)   ...  18085 (   0.0 sec)
nearest neighbour list constructed           ...    0.0 sec
Grid point re-assignment to atoms done       ...    0.0 sec
Grid point division into batches done        ...    0.0 sec
Reduced shell lists constructed in    0.0 sec

Total number of grid points                  ...    18085
Total number of batches                      ...      292
Average number of points per batch           ...       61
Average number of grid points per atom       ...     1064
Average number of shells per batch           ...    62.08 (86.22%)
Average number of basis functions per batch  ...   128.24 (86.65%)
Average number of large shells per batch     ...    51.39 (82.79%)
Average number of large basis fcns per batch ...   102.76 (80.14%)
Maximum spatial batch extension              ...   3.22,  3.03,  3.41 au
Average spatial batch extension              ...   0.23,  0.22,  0.23 au

Time for grid setup =    0.054 sec

------------------------------
INITIAL GUESS: MODEL POTENTIAL
------------------------------
Loading Hartree-Fock densities                     ... done
Calculating cut-offs                               ... done
Setting up the integral package                    ... done
Initializing the effective Hamiltonian             ... done
Starting the Coulomb interaction                   ... done (   0.0 sec)
Reading the grid                                   ... done
Mapping shells                                     ... done
Starting the XC term evaluation                    ... done (   0.0 sec)
  promolecular density results
     # of electrons  =     53.998005925
     EX              =    -41.768422203
     EC              =     -1.762778322
     EX+EC           =    -43.531200525
Transforming the Hamiltonian                       ... done (   0.0 sec)
Diagonalizing the Hamiltonian                      ... done (   0.0 sec)
Back transforming the eigenvectors                 ... done (   0.0 sec)
Now organizing SCF variables                       ... done
                      ------------------
                      INITIAL GUESS DONE (   0.2 sec)
                      ------------------
--------------------
COSX GRID GENERATION
--------------------

General Integration Accuracy     IntAcc      ...  3.340
Radial Grid Type                 RadialGrid  ... Gauss-Chebyshev
Angular Grid (max. acc.)         AngularGrid ... Lebedev-50
Angular grid pruning method      GridPruning ... 3 (G Style)
Weight generation scheme         WeightScheme... Becke
Basis function cutoff            BFCut       ...    1.0000e-11
Integration weight cutoff        WCut        ...    1.0000e-14
Grids for H and He will be reduced by one unit

# of grid points (after initial pruning)     ...   7260 (   0.0 sec)
# of grid points (after weights+screening)   ...   6719 (   0.0 sec)
nearest neighbour list constructed           ...    0.0 sec
Grid point re-assignment to atoms done       ...    0.0 sec
Grid point division into batches done        ...    0.0 sec
Reduced shell lists constructed in    0.0 sec

Total number of grid points                  ...     6719
Total number of batches                      ...      113
Average number of points per batch           ...       59
Average number of grid points per atom       ...      395
Average number of shells per batch           ...    61.38 (85.24%)
Average number of basis functions per batch  ...   128.00 (86.49%)
Average number of large shells per batch     ...    51.75 (84.32%)
Average number of large basis fcns per batch ...   104.62 (81.74%)
Maximum spatial batch extension              ...   3.15,  3.80,  3.19 au
Average spatial batch extension              ...   0.29,  0.33,  0.28 au

Overlap Fitting                  UseSFitting ... on
Constructing numerical overlap ... done (      0.0 sec)
Inverting numerical overlap    ... done (      0.0 sec)
Obtaining analytic overlap     ... done (      0.0 sec)
Final contraction and storage  ... done (      0.0 sec)


General Integration Accuracy     IntAcc      ...  3.670
Radial Grid Type                 RadialGrid  ... Gauss-Chebyshev
Angular Grid (max. acc.)         AngularGrid ... Lebedev-50
Angular grid pruning method      GridPruning ... 3 (G Style)
Weight generation scheme         WeightScheme... Becke
Basis function cutoff            BFCut       ...    1.0000e-11
Integration weight cutoff        WCut        ...    1.0000e-14
Grids for H and He will be reduced by one unit

# of grid points (after initial pruning)     ...   9326 (   0.0 sec)
# of grid points (after weights+screening)   ...   8616 (   0.0 sec)
nearest neighbour list constructed           ...    0.0 sec
Grid point re-assignment to atoms done       ...    0.0 sec
Grid point division into batches done        ...    0.0 sec
Reduced shell lists constructed in    0.0 sec

Total number of grid points                  ...     8616
Total number of batches                      ...      144
Average number of points per batch           ...       59
Average number of grid points per atom       ...      507
Average number of shells per batch           ...    61.53 (85.45%)
Average number of basis functions per batch  ...   127.53 (86.17%)
Average number of large shells per batch     ...    51.11 (83.06%)
Average number of large basis fcns per batch ...   102.37 (80.27%)
Maximum spatial batch extension              ...   3.27,  3.47,  3.31 au
Average spatial batch extension              ...   0.24,  0.27,  0.24 au

Overlap Fitting                  UseSFitting ... on
Constructing numerical overlap ... done (      0.0 sec)
Inverting numerical overlap    ... done (      0.0 sec)
Obtaining analytic overlap     ... done (      0.0 sec)
Final contraction and storage  ... done (      0.0 sec)


General Integration Accuracy     IntAcc      ...  4.010
Radial Grid Type                 RadialGrid  ... Gauss-Chebyshev
Angular Grid (max. acc.)         AngularGrid ... Lebedev-110
Angular grid pruning method      GridPruning ... 3 (G Style)
Weight generation scheme         WeightScheme... Becke
Basis function cutoff            BFCut       ...    1.0000e-11
Integration weight cutoff        WCut        ...    1.0000e-14
Grids for H and He will be reduced by one unit

# of grid points (after initial pruning)     ...  16910 (   0.0 sec)
# of grid points (after weights+screening)   ...  15629 (   0.0 sec)
nearest neighbour list constructed           ...    0.0 sec
Grid point re-assignment to atoms done       ...    0.0 sec
Grid point division into batches done        ...    0.0 sec
Reduced shell lists constructed in    0.0 sec

Total number of grid points                  ...    15629
Total number of batches                      ...      253
Average number of points per batch           ...       61
Average number of grid points per atom       ...      919
Average number of shells per batch           ...    61.61 (85.56%)
Average number of basis functions per batch  ...   127.36 (86.06%)
Average number of large shells per batch     ...    50.70 (82.29%)
Average number of large basis fcns per batch ...   101.24 (79.49%)
Maximum spatial batch extension              ...   2.81,  3.07,  3.31 au
Average spatial batch extension              ...   0.22,  0.23,  0.21 au

Overlap Fitting                  UseSFitting ... on
Constructing numerical overlap ... done (      0.0 sec)
Inverting numerical overlap    ... done (      0.0 sec)
Obtaining analytic overlap     ... done (      0.0 sec)
Final contraction and storage  ... done (      0.0 sec)

Time for X-Grid setup             =    0.166 sec
--------------
SCF ITERATIONS
--------------
ITER       Energy         Delta-E        Max-DP      RMS-DP      [F,P]     Damp
               ***  Starting incremental Fock matrix formation  ***
  0   -309.0153237937   0.000000000000 0.06283615  0.00240172  0.2203496 0.7000
  1   -309.1051562846  -0.089832490960 0.03906989  0.00168878  0.0993065 0.7000
                               ***Turning on DIIS***
  2   -309.1439738891  -0.038817604425 0.06055572  0.00281184  0.0344934 0.0000
  3   -309.2009442272  -0.056970338099 0.02871056  0.00122205  0.0494074 0.0000
  4   -309.2146354917  -0.013691264511 0.00643562  0.00028395  0.0085915 0.0000
  5   -309.2151571461  -0.000521654446 0.00314388  0.00011443  0.0056596 0.0000
                      *** Initiating the SOSCF procedure ***
                           *** Shutting down DIIS ***
                      *** Re-Reading the Fockian *** 
                      *** Removing any level shift *** 
ITER      Energy       Delta-E        Grad      Rot      Max-DP    RMS-DP
  6   -309.21521127  -0.0000541240  0.000138  0.000138  0.001243  0.000051
               *** Restarting incremental Fock matrix formation ***
  7   -309.21520149   0.0000097786  0.000095  0.000324  0.000455  0.000015
  8   -309.21520124   0.0000002477  0.000186  0.000250  0.000232  0.000008
  9   -309.21520175  -0.0000005053  0.000019  0.000049  0.000066  0.000003
 10   -309.21520174   0.0000000100  0.000018  0.000024  0.000043  0.000001
                  ***Gradient check signals convergence***
              ***Rediagonalizing the Fockian in SOSCF/NRSCF***

               *****************************************************
               *                     SUCCESS                       *
               *           SCF CONVERGED AFTER  11 CYCLES          *
               *****************************************************

Setting up the final grid:

General Integration Accuracy     IntAcc      ...  4.670
Radial Grid Type                 RadialGrid  ... Gauss-Chebyshev
Angular Grid (max. acc.)         AngularGrid ... Lebedev-302
Angular grid pruning method      GridPruning ... 3 (G Style)
Weight generation scheme         WeightScheme... Becke
Basis function cutoff            BFCut       ...    1.0000e-11
Integration weight cutoff        WCut        ...    1.0000e-14
Grids for H and He will be reduced by one unit

# of grid points (after initial pruning)     ...  77424 (   0.0 sec)
# of grid points (after weights+screening)   ...  70264 (   0.0 sec)
nearest neighbour list constructed           ...    0.0 sec
Grid point re-assignment to atoms done       ...    0.0 sec
Grid point division into batches done        ...    0.2 sec
Reduced shell lists constructed in    0.2 sec

Total number of grid points                  ...    70264
Total number of batches                      ...     1106
Average number of points per batch           ...       63
Average number of grid points per atom       ...     4133
Average number of shells per batch           ...    61.44 (85.34%)
Average number of basis functions per batch  ...   126.21 (85.28%)
Average number of large shells per batch     ...    50.15 (81.62%)
Average number of large basis fcns per batch ...    99.39 (78.75%)
Maximum spatial batch extension              ...   2.73,  2.52,  3.39 au
Average spatial batch extension              ...   0.13,  0.14,  0.14 au

Final grid set up in    0.3 sec
Final integration                            ... done (   0.1 sec)
Change in XC energy                          ...     0.000134385
Integrated number of electrons               ...    53.999997209
Previous integrated no of electrons          ...    54.000877677
Old exchange energy                            =    -10.712011307 Eh
New exchange energy                            =    -10.711736180 Eh
Exchange energy change after final integration =      0.000275127 Eh
Total energy after final integration           =   -309.214792242 Eh
Final COS-X integration done in                =     0.404 sec

----------------
TOTAL SCF ENERGY
----------------

Total Energy       :         -309.21479224 Eh           -8414.16226 eV

Components:
Nuclear Repulsion  :          304.02101396 Eh            8272.83237 eV
Electronic Energy  :         -613.23580620 Eh          -16686.99464 eV
One Electron Energy:        -1020.72015016 Eh          -27775.20735 eV
Two Electron Energy:          407.48434396 Eh           11088.21271 eV

Virial components:
Potential Energy   :         -615.59125788 Eh          -16751.08974 eV
Kinetic Energy     :          306.37646563 Eh            8336.92747 eV
Virial Ratio       :            2.00926418


DFT components:
N(Alpha)           :       26.999998604269 electrons
N(Beta)            :       26.999998604269 electrons
N(Total)           :       53.999997208539 electrons
E(X)               :      -32.003485925772 Eh       
E(C)               :       -1.780441953049 Eh       
E(XC)              :      -33.783927878822 Eh       
DFET-embed. en.    :        0.000000000000 Eh       

---------------
SCF CONVERGENCE
---------------

  Last Energy change         ...   -1.5262e-08  Tolerance :   1.0000e-08
  Last MAX-Density change    ...    1.7764e-15  Tolerance :   1.0000e-07
  Last RMS-Density change    ...    3.5681e-17  Tolerance :   5.0000e-09
  Last Orbital Gradient      ...    7.4877e-07  Tolerance :   1.0000e-05
  Last Orbital Rotation      ...    1.1617e-06  Tolerance :   1.0000e-05

             **** THE GBW FILE WAS UPDATED (xtb1d_04_24_orca_opt.gbw) ****
             **** DENSITY FILE WAS UPDATED (xtb1d_04_24_orca_opt.scfp.tmp) ****
             **** ENERGY FILE WAS UPDATED (xtb1d_04_24_orca_opt.en.tmp) ****
----------------
ORBITAL ENERGIES
----------------

  NO   OCC          E(Eh)            E(eV) 
   0   2.0000     -19.202013      -522.5133 
   1   2.0000     -10.281692      -279.7791 
   2   2.0000     -10.231600      -278.4160 
   3   2.0000     -10.228365      -278.3279 
   4   2.0000     -10.227003      -278.2909 
   5   2.0000     -10.224399      -278.2200 
   6   2.0000     -10.214285      -277.9448 
   7   2.0000      -1.035855       -28.1870 
   8   2.0000      -0.828389       -22.5416 
   9   2.0000      -0.784494       -21.3472 
  10   2.0000      -0.725515       -19.7423 
  11   2.0000      -0.646658       -17.5964 
  12   2.0000      -0.582580       -15.8528 
  13   2.0000      -0.554935       -15.1005 
  14   2.0000      -0.515604       -14.0303 
  15   2.0000      -0.509147       -13.8546 
  16   2.0000      -0.468248       -12.7417 
  17   2.0000      -0.434948       -11.8355 
  18   2.0000      -0.433012       -11.7829 
  19   2.0000      -0.405501       -11.0343 
  20   2.0000      -0.399652       -10.8751 
  21   2.0000      -0.376868       -10.2551 
  22   2.0000      -0.346486        -9.4284 
  23   2.0000      -0.331539        -9.0216 
  24   2.0000      -0.296088        -8.0570 
  25   2.0000      -0.268529        -7.3071 
  26   2.0000      -0.259478        -7.0608 
  27   0.0000      -0.002335        -0.0635 
  28   0.0000       0.032882         0.8948 
  29   0.0000       0.072413         1.9705 
  30   0.0000       0.095741         2.6052 
  31   0.0000       0.104921         2.8550 
  32   0.0000       0.121238         3.2991 
  33   0.0000       0.131306         3.5730 
  34   0.0000       0.145493         3.9591 
  35   0.0000       0.155427         4.2294 
  36   0.0000       0.175297         4.7701 
  37   0.0000       0.179122         4.8742 
  38   0.0000       0.181349         4.9348 
  39   0.0000       0.233031         6.3411 
  40   0.0000       0.251602         6.8464 
  41   0.0000       0.283479         7.7139 
  42   0.0000       0.305723         8.3191 
  43   0.0000       0.338447         9.2096 
  44   0.0000       0.369722        10.0607 
  45   0.0000       0.392099        10.6695 
  46   0.0000       0.449980        12.2446 
  47   0.0000       0.466246        12.6872 
  48   0.0000       0.471128        12.8200 
  49   0.0000       0.495628        13.4867 
  50   0.0000       0.511298        13.9131 
  51   0.0000       0.531356        14.4589 
  52   0.0000       0.537951        14.6384 
  53   0.0000       0.563693        15.3389 
  54   0.0000       0.582413        15.8483 
  55   0.0000       0.594501        16.1772 
  56   0.0000       0.613046        16.6818 
  57   0.0000       0.630027        17.1439 
  58   0.0000       0.637071        17.3356 
  59   0.0000       0.652977        17.7684 
  60   0.0000       0.669139        18.2082 
  61   0.0000       0.681433        18.5427 
  62   0.0000       0.694869        18.9083 
  63   0.0000       0.696547        18.9540 
  64   0.0000       0.712564        19.3898 
  65   0.0000       0.720529        19.6066 
  66   0.0000       0.725847        19.7513 
  67   0.0000       0.727235        19.7891 
  68   0.0000       0.736405        20.0386 
  69   0.0000       0.745070        20.2744 
  70   0.0000       0.819368        22.2961 
  71   0.0000       0.846314        23.0294 
  72   0.0000       0.863028        23.4842 
  73   0.0000       0.899524        24.4773 
  74   0.0000       0.910874        24.7862 
  75   0.0000       0.949027        25.8243 
  76   0.0000       0.964138        26.2355 
  77   0.0000       1.039521        28.2868 
  78   0.0000       1.098894        29.9024 
  79   0.0000       1.133439        30.8425 
  80   0.0000       1.173429        31.9306 
  81   0.0000       1.229393        33.4535 
  82   0.0000       1.261238        34.3200 
  83   0.0000       1.282863        34.9085 
  84   0.0000       1.301757        35.4226 
  85   0.0000       1.330994        36.2182 
  86   0.0000       1.425883        38.8003 
  87   0.0000       1.429698        38.9041 
  88   0.0000       1.464350        39.8470 
  89   0.0000       1.500400        40.8279 
  90   0.0000       1.552223        42.2381 
  91   0.0000       1.580960        43.0201 
  92   0.0000       1.637465        44.5577 
  93   0.0000       1.648041        44.8455 
  94   0.0000       1.675382        45.5895 
  95   0.0000       1.695522        46.1375 
  96   0.0000       1.704164        46.3727 
  97   0.0000       1.733156        47.1616 
  98   0.0000       1.757550        47.8254 
  99   0.0000       1.785053        48.5737 
 100   0.0000       1.798868        48.9497 
 101   0.0000       1.814375        49.3717 
 102   0.0000       1.826823        49.7104 
 103   0.0000       1.848412        50.2978 
 104   0.0000       1.864245        50.7287 
 105   0.0000       1.867697        50.8226 
 106   0.0000       1.892873        51.5077 
 107   0.0000       1.915381        52.1202 
 108   0.0000       1.925392        52.3926 
 109   0.0000       1.959663        53.3251 
 110   0.0000       1.993184        54.2373 
 111   0.0000       2.032859        55.3169 
 112   0.0000       2.043195        55.5982 
 113   0.0000       2.049539        55.7708 
 114   0.0000       2.063865        56.1606 
 115   0.0000       2.110324        57.4248 
 116   0.0000       2.173900        59.1548 
 117   0.0000       2.215897        60.2976 
 118   0.0000       2.233970        60.7894 
 119   0.0000       2.255146        61.3656 
 120   0.0000       2.266952        61.6869 
 121   0.0000       2.309080        62.8332 
 122   0.0000       2.331655        63.4475 
 123   0.0000       2.410364        65.5893 
 124   0.0000       2.428343        66.0786 
 125   0.0000       2.458633        66.9028 
 126   0.0000       2.505996        68.1916 
 127   0.0000       2.537183        69.0403 
 128   0.0000       2.545531        69.2674 
 129   0.0000       2.575299        70.0775 
 130   0.0000       2.605663        70.9037 
 131   0.0000       2.711325        73.7789 
 132   0.0000       2.803329        76.2825 
 133   0.0000       2.812779        76.5396 
 134   0.0000       2.872198        78.1565 
 135   0.0000       2.889797        78.6354 
 136   0.0000       2.910128        79.1886 
 137   0.0000       2.925590        79.6094 
 138   0.0000       2.982097        81.1470 
 139   0.0000       3.002878        81.7125 
 140   0.0000       3.057743        83.2054 
 141   0.0000       3.099729        84.3479 
 142   0.0000       3.122554        84.9690 
 143   0.0000       3.168687        86.2244 
 144   0.0000       3.337337        90.8136 
 145   0.0000       3.378212        91.9258 
 146   0.0000       3.442730        93.6814 
 147   0.0000       3.800481       103.4164 

                    ********************************
                    * MULLIKEN POPULATION ANALYSIS *
                    ********************************

-----------------------
MULLIKEN ATOMIC CHARGES
-----------------------
   0 C :   -0.042821
   1 C :   -0.153350
   2 C :    0.157922
   3 O :   -0.305238
   4 C :    0.004959
   5 C :   -0.154564
   6 C :   -0.024811
   7 H :    0.042053
   8 H :    0.071167
   9 H :    0.025632
  10 H :    0.008150
  11 H :    0.171590
  12 H :    0.035961
  13 H :    0.049214
  14 H :    0.034866
  15 H :    0.042440
  16 H :    0.036832
Sum of atomic charges:   -0.0000000

--------------------------------
MULLIKEN REDUCED ORBITAL CHARGES
--------------------------------
  0 C s       :     3.104815  s :     3.104815
      pz      :     0.987665  p :     2.910486
      px      :     0.963541
      py      :     0.959280
      dz2     :     0.006579  d :     0.027521
      dxz     :     0.007886
      dyz     :     0.005102
      dx2y2   :     0.003596
      dxy     :     0.004358
  1 C s       :     3.193799  s :     3.193799
      pz      :     0.983340  p :     2.924011
      px      :     0.939293
      py      :     1.001378
      dz2     :     0.007081  d :     0.035541
      dxz     :     0.009546
      dyz     :     0.006586
      dx2y2   :     0.006601
      dxy     :     0.005727
  2 C s       :     3.024807  s :     3.024807
      pz      :     0.884549  p :     2.743568
      px      :     0.973515
      py      :     0.885504
      dz2     :     0.015109  d :     0.073703
      dxz     :     0.012037
      dyz     :     0.018800
      dx2y2   :     0.011483
      dxy     :     0.016274
  3 O s       :     3.722245  s :     3.722245
      pz      :     1.539218  p :     4.570221
      px      :     1.473237
      py      :     1.557767
      dz2     :     0.001655  d :     0.012772
      dxz     :     0.003297
      dyz     :     0.002034
      dx2y2   :     0.002526
      dxy     :     0.003260
  4 C s       :     3.010464  s :     3.010464
      pz      :     1.009506  p :     2.949460
      px      :     0.967572
      py      :     0.972383
      dz2     :     0.004913  d :     0.035117
      dxz     :     0.008285
      dyz     :     0.008490
      dx2y2   :     0.003990
      dxy     :     0.009440
  5 C s       :     3.172549  s :     3.172549
      pz      :     0.984755  p :     2.945082
      px      :     0.979846
      py      :     0.980481
      dz2     :     0.008361  d :     0.036934
      dxz     :     0.007012
      dyz     :     0.007143
      dx2y2   :     0.008705
      dxy     :     0.005712
  6 C s       :     3.096250  s :     3.096250
      pz      :     0.960907  p :     2.901568
      px      :     0.977930
      py      :     0.962731
      dz2     :     0.005470  d :     0.026993
      dxz     :     0.004417
      dyz     :     0.005333
      dx2y2   :     0.006702
      dxy     :     0.005071
  7 H s       :     0.932955  s :     0.932955
      pz      :     0.005987  p :     0.024992
      px      :     0.010040
      py      :     0.008966
  8 H s       :     0.902198  s :     0.902198
      pz      :     0.007822  p :     0.026636
      px      :     0.014035
      py      :     0.004779
  9 H s       :     0.950425  s :     0.950425
      pz      :     0.007542  p :     0.023943
      px      :     0.012095
      py      :     0.004305
 10 H s       :     0.971660  s :     0.971660
      pz      :     0.010502  p :     0.020190
      px      :     0.004519
      py      :     0.005169
 11 H s       :     0.757797  s :     0.757797
      pz      :     0.022280  p :     0.070612
      px      :     0.027904
      py      :     0.020428
 12 H s       :     0.940947  s :     0.940947
      pz      :     0.007842  p :     0.023092
      px      :     0.005664
      py      :     0.009586
 13 H s       :     0.927244  s :     0.927244
      pz      :     0.007030  p :     0.023542
      px      :     0.009002
      py      :     0.007510
 14 H s       :     0.941544  s :     0.941544
      pz      :     0.004340  p :     0.023590
      px      :     0.004750
      py      :     0.014500
 15 H s       :     0.932316  s :     0.932316
      pz      :     0.004772  p :     0.025244
      px      :     0.005046
      py      :     0.015426
 16 H s       :     0.937992  s :     0.937992
      pz      :     0.011094  p :     0.025176
      px      :     0.007391
      py      :     0.006691


                     *******************************
                     * LOEWDIN POPULATION ANALYSIS *
                     *******************************

----------------------
LOEWDIN ATOMIC CHARGES
----------------------
   0 C :   -0.042980
   1 C :   -0.060533
   2 C :    0.055856
   3 O :   -0.130428
   4 C :   -0.045777
   5 C :   -0.038983
   6 C :   -0.052515
   7 H :    0.025150
   8 H :    0.032138
   9 H :    0.025976
  10 H :    0.010428
  11 H :    0.075656
  12 H :    0.035899
  13 H :    0.036428
  14 H :    0.025195
  15 H :    0.025433
  16 H :    0.023058

-------------------------------
LOEWDIN REDUCED ORBITAL CHARGES
-------------------------------
  0 C s       :     2.875191  s :     2.875191
      pz      :     1.051762  p :     3.094370
      px      :     1.036415
      py      :     1.006193
      dz2     :     0.015423  d :     0.073420
      dxz     :     0.021966
      dyz     :     0.015088
      dx2y2   :     0.009332
      dxy     :     0.011610
  1 C s       :     2.879858  s :     2.879858
      pz      :     1.056987  p :     3.089013
      px      :     1.017009
      py      :     1.015017
      dz2     :     0.017169  d :     0.091661
      dxz     :     0.026047
      dyz     :     0.017502
      dx2y2   :     0.016204
      dxy     :     0.014739
  2 C s       :     2.839106  s :     2.839106
      pz      :     0.953953  p :     2.940718
      px      :     1.032660
      py      :     0.954106
      dz2     :     0.034966  d :     0.164319
      dxz     :     0.026828
      dyz     :     0.041058
      dx2y2   :     0.020712
      dxy     :     0.040756
  3 O s       :     3.443590  s :     3.443590
      pz      :     1.556359  p :     4.662547
      px      :     1.544292
      py      :     1.561896
      dz2     :     0.002831  d :     0.024290
      dxz     :     0.006400
      dyz     :     0.004736
      dx2y2   :     0.004312
      dxy     :     0.006011
  4 C s       :     2.839914  s :     2.839914
      pz      :     1.044654  p :     3.117016
      px      :     1.025700
      py      :     1.046662
      dz2     :     0.011548  d :     0.088846
      dxz     :     0.021334
      dyz     :     0.021894
      dx2y2   :     0.008275
      dxy     :     0.025796
  5 C s       :     2.872040  s :     2.872040
      pz      :     1.013984  p :     3.074554
      px      :     1.009973
      py      :     1.050598
      dz2     :     0.020143  d :     0.092388
      dxz     :     0.017800
      dyz     :     0.017863
      dx2y2   :     0.020894
      dxy     :     0.015689
  6 C s       :     2.877005  s :     2.877005
      pz      :     1.025507  p :     3.103066
      px      :     1.023074
      py      :     1.054486
      dz2     :     0.013871  d :     0.072444
      dxz     :     0.013369
      dyz     :     0.014051
      dx2y2   :     0.016837
      dxy     :     0.014316
  7 H s       :     0.903743  s :     0.903743
      pz      :     0.016860  p :     0.071108
      px      :     0.028896
      py      :     0.025352
  8 H s       :     0.891289  s :     0.891289
      pz      :     0.022124  p :     0.076573
      px      :     0.040231
      py      :     0.014218
  9 H s       :     0.902260  s :     0.902260
      pz      :     0.021715  p :     0.071764
      px      :     0.035588
      py      :     0.014461
 10 H s       :     0.923781  s :     0.923781
      pz      :     0.033725  p :     0.065791
      px      :     0.015062
      py      :     0.017004
 11 H s       :     0.740531  s :     0.740531
      pz      :     0.054038  p :     0.183813
      px      :     0.078401
      py      :     0.051374
 12 H s       :     0.896007  s :     0.896007
      pz      :     0.023678  p :     0.068094
      px      :     0.016748
      py      :     0.027668
 13 H s       :     0.894715  s :     0.894715
      pz      :     0.020561  p :     0.068857
      px      :     0.026807
      py      :     0.021489
 14 H s       :     0.904109  s :     0.904109
      pz      :     0.014759  p :     0.070696
      px      :     0.014875
      py      :     0.041063
 15 H s       :     0.902855  s :     0.902855
      pz      :     0.013963  p :     0.071712
      px      :     0.014582
      py      :     0.043166
 16 H s       :     0.906165  s :     0.906165
      pz      :     0.031168  p :     0.070778
      px      :     0.020514
      py      :     0.019096


                      *****************************
                      * MAYER POPULATION ANALYSIS *
                      *****************************

  NA   - Mulliken gross atomic population
  ZA   - Total nuclear charge
  QA   - Mulliken gross atomic charge
  VA   - Mayer's total valence
  BVA  - Mayer's bonded valence
  FA   - Mayer's free valence

  ATOM       NA         ZA         QA         VA         BVA        FA
  0 C      6.0428     6.0000    -0.0428     3.9025     3.9025    -0.0000
  1 C      6.1534     6.0000    -0.1534     4.0245     4.0245    -0.0000
  2 C      5.8421     6.0000     0.1579     4.0553     4.0553    -0.0000
  3 O      8.3052     8.0000    -0.3052     2.0855     2.0855    -0.0000
  4 C      5.9950     6.0000     0.0050     3.9159     3.9159    -0.0000
  5 C      6.1546     6.0000    -0.1546     4.1097     4.1097    -0.0000
  6 C      6.0248     6.0000    -0.0248     3.9457     3.9457    -0.0000
  7 H      0.9579     1.0000     0.0421     0.9751     0.9751     0.0000
  8 H      0.9288     1.0000     0.0712     1.0094     1.0094    -0.0000
  9 H      0.9744     1.0000     0.0256     0.9839     0.9839    -0.0000
 10 H      0.9918     1.0000     0.0082     0.9696     0.9696    -0.0000
 11 H      0.8284     1.0000     0.1716     1.0193     1.0193    -0.0000
 12 H      0.9640     1.0000     0.0360     0.9799     0.9799    -0.0000
 13 H      0.9508     1.0000     0.0492     0.9834     0.9834    -0.0000
 14 H      0.9651     1.0000     0.0349     0.9804     0.9804    -0.0000
 15 H      0.9576     1.0000     0.0424     0.9984     0.9984    -0.0000
 16 H      0.9632     1.0000     0.0368     0.9745     0.9745    -0.0000

  Mayer bond orders larger than 0.1
B(  0-C ,  1-C ) :   1.9771 B(  0-C ,  7-H ) :   0.9581 B(  0-C ,  8-H ) :   0.9335 
B(  1-C ,  2-C ) :   1.0143 B(  1-C ,  9-H ) :   0.9726 B(  2-C ,  3-O ) :   1.0570 
B(  2-C ,  4-C ) :   1.0286 B(  2-C , 10-H ) :   0.9270 B(  3-O , 11-H ) :   0.9732 
B(  4-C ,  5-C ) :   1.0539 B(  4-C , 12-H ) :   0.9325 B(  4-C , 13-H ) :   0.9385 
B(  5-C ,  6-C ) :   1.9911 B(  5-C , 14-H ) :   0.9602 B(  6-C , 15-H ) :   0.9506 
B(  6-C , 16-H ) :   0.9576 

-------
TIMINGS
-------

Total SCF time: 0 days 0 hours 0 min 6 sec 

Total time                  ....       6.189 sec
Sum of individual times     ....       6.044 sec  ( 97.7%)

Fock matrix formation       ....       5.376 sec  ( 86.9%)
  Split-RI-J                ....       1.593 sec  ( 29.6% of F)
  Chain of spheres X        ....       3.305 sec  ( 61.5% of F)
  COS-X 1 center corr.      ....       0.000 sec  (  0.0% of F)
  XC integration            ....       0.409 sec  (  7.6% of F)
    Basis function eval.    ....       0.117 sec  ( 28.6% of XC)
    Density eval.           ....       0.055 sec  ( 13.4% of XC)
    XC-Functional eval.     ....       0.022 sec  (  5.4% of XC)
    XC-Potential eval.      ....       0.086 sec  ( 20.9% of XC)
Diagonalization             ....       0.016 sec  (  0.3%)
Density matrix formation    ....       0.004 sec  (  0.1%)
Population analysis         ....       0.004 sec  (  0.1%)
Initial guess               ....       0.141 sec  (  2.3%)
Orbital Transformation      ....       0.000 sec  (  0.0%)
Orbital Orthonormalization  ....       0.000 sec  (  0.0%)
DIIS solution               ....       0.006 sec  (  0.1%)
SOSCF solution              ....       0.007 sec  (  0.1%)
Grid generation             ....       0.490 sec  (  7.9%)


-------------------------------------------------------------------------------
                          DFT DISPERSION CORRECTION                            
                                                                               
                              DFTD3 V3.1  Rev 1                                
                          USING Becke-Johnson damping                          
-------------------------------------------------------------------------------
The PBE0 functional is recognized
Active option DFTDOPT                   ...         4   

molecular C6(AA) [au] = 2441.250754 


            DFT-D V3
 parameters
 s6 scaling factor         :     1.0000 
 a1 scaling factor         :     0.4145 
 s8 scaling factor         :     1.2177 
 a2 scaling factor         :     4.8593 
 ad hoc parameters k1-k3   :    16.0000     1.3333    -4.0000 

 Edisp/kcal,au: -8.417491608006  -0.013414125297 
 E6   /kcal   :  -5.386134341 
 E8   /kcal   :  -3.031357267 
 % E8         :  36.012596253 

-------------------------   ----------------
Dispersion correction           -0.013414125
-------------------------   ----------------


-------------------------   --------------------
FINAL SINGLE POINT ENERGY      -309.228206367728
-------------------------   --------------------



           ************************************************************
           *        Program running with 8 parallel MPI-processes     *
           *              working on a common directory               *
           ************************************************************
------------------------------------------------------------------------------
                         ORCA SCF GRADIENT CALCULATION
------------------------------------------------------------------------------

Gradient of the Kohn-Sham DFT energy:
Kohn-Sham wavefunction type      ... RKS
Hartree-Fock exchange scaling    ...    0.250
Number of operators              ...    1
Number of atoms                  ...   17
Basis set dimensions             ...  148
Integral neglect threshold       ... 2.5e-11
Integral primitive cutoff        ... 2.5e-12

Nuclear repulsion gradient       ... done
One Electron Gradient            ... done
Pre-screening matrix             ... done
RI-J gradient                    ... done
COSX-gradient                    ... done
Exchange-correlation gradient    ... done
Dispersion correction            ... done

------------------
CARTESIAN GRADIENT
------------------

   1   C   :   -0.015384283   -0.008729402    0.018009979
   2   C   :    0.006062569    0.011827540   -0.007770041
   3   C   :    0.002137868    0.000877280    0.004664123
   4   O   :    0.002904992   -0.002949447   -0.001909984
   5   C   :    0.007167635    0.013674098   -0.003591208
   6   C   :   -0.005990644   -0.000260150   -0.012385731
   7   C   :    0.003749193    0.000527196    0.005480457
   8   H   :   -0.008338555   -0.007214309    0.002986206
   9   H   :    0.009465539    0.001033717    0.006015165
  10   H   :   -0.009637022   -0.002040312   -0.004654376
  11   H   :   -0.000948437   -0.001029416   -0.002894650
  12   H   :   -0.000668571   -0.001830611   -0.001091491
  13   H   :   -0.001249832   -0.002854481   -0.005158197
  14   H   :    0.003722364    0.001975297   -0.004888681
  15   H   :   -0.000907426   -0.008855774    0.004549338
  16   H   :    0.002444392    0.011814939   -0.002521214
  17   H   :    0.005519940   -0.006349683    0.008499511

Difference to translation invariance:
           :    0.0000497204   -0.0003835176    0.0033392038

Norm of the cartesian gradient     ...    0.0476588198
RMS gradient                       ...    0.0066735696
MAX gradient                       ...    0.0180099793

-------
TIMINGS
-------

Total SCF gradient time            ...        1.817 sec

One electron gradient       ....       0.020 sec  (  1.1%)
Prescreening matrices       ....       0.020 sec  (  1.1%)
RI-J Coulomb gradient       ....       0.248 sec  ( 13.7%)
COSX gradient               ....       0.632 sec  ( 34.8%)
XC gradient                 ....       0.550 sec  ( 30.3%)


           ************************************************************
           *        Program running with 8 parallel MPI-processes     *
           *              working on a common directory               *
           ************************************************************

-------------------------------------------------------------------------------
                               ORCA SCF HESSIAN
-------------------------------------------------------------------------------

Hessian of the Kohn-Sham DFT energy:
Kohn-Sham wavefunction type                      ... RKS
Hartree-Fock exchange scaling                    ...    0.250
Number of operators                              ...    1
Number of atoms                                  ...   17
Basis set dimensions                             ...  148
Integral neglect threshold                       ... 2.5e-11
Integral primitive cutoff                        ... 2.5e-12

Setting up DFT Hessian calculations              ... 
Electron density on the grid                     ... found on disk
Electron density on the final grid               ... found on disk
Building xc-kernel on the grid                   ... done   (      0.0 sec)
Building xc-kernel on the final grid             ... done   (      0.0 sec)
                                                     done   (      0.1 sec)

Nuclear repulsion Hessian                        ... done   (      0.0 sec)

----------------------------------------------
Forming right-hand sides of CP-SCF equations     ...
----------------------------------------------
One electron integral derivatives                ... done   (      0.1 sec)
Transforming the overlap derivative matrices     ... done   (      0.0 sec)
Making the Q(x) pseudodensities                  ... done   (      0.0 sec)
Adding the E*S(x)*S(y) terms to the Hessian      ... done   (      0.0 sec)
Calculating energy weighted overlap derivatives  ... done   (      0.0 sec)
Two electron integral derivatives (RI)           ... done   (      2.7 sec)
Exchange-correlation integral derivatives        ... done   (      5.4 sec)
tr(F(y)Q(x)) contribution to the Hessian         ... done   (      0.0 sec)
Response fock operator R(S(x)) (RIJCOSX)         ... done   (      2.8 sec)
XC Response fock operator R(S(x))                ... done   (      1.5 sec)
tr(F(y)S(x)) contribution to the Hessian         ... done   (      0.0 sec)
Transforming and finalizing RHSs                 ... done   (      0.0 sec)

----------------------------------------------
Solving the CP-SCF equations (RIJCOSX)           ...
----------------------------------------------
     CP-SCF ITERATION   0: 
     CP-SCF ITERATION   1:      0.001688870536
     CP-SCF ITERATION   2:      0.000164887813
     CP-SCF ITERATION   3:      0.000014216080
     CP-SCF ITERATION   4:      0.000001669866
     CP-SCF ITERATION   5:      0.000000072444
     CP-SCF ITERATION   6:      0.000000009727

                                                 ... done   (     12.1 sec)
Forming perturbed density Hessian contributions  ... done   (      0.0 sec)
2nd integral derivative contribs (RI)            ... done   (      9.1 sec)
Exchange-correlation Hessian                     ... done   (      4.0 sec)
Dispersion correction in the Hessian             ... done   (      1.4 sec)
Dipol derivatives                                ... done   (      0.3 sec)

Total SCF Hessian time: 0 days 0 hours 0 min 39 sec 

Writing the Hessian file to the disk             ... done


Maximum memory used throughout the entire calculation: 129.6 MB

-----------------------
VIBRATIONAL FREQUENCIES
-----------------------

Scaling factor for frequencies =  1.000000000  (already applied!)

   0:         0.00 cm**-1
   1:         0.00 cm**-1
   2:         0.00 cm**-1
   3:         0.00 cm**-1
   4:         0.00 cm**-1
   5:         0.00 cm**-1
   6:      -259.53 cm**-1 ***imaginary mode***
   7:      -158.69 cm**-1 ***imaginary mode***
   8:        59.74 cm**-1
   9:       161.83 cm**-1
  10:       200.19 cm**-1
  11:       247.55 cm**-1
  12:       277.24 cm**-1
  13:       351.62 cm**-1
  14:       412.59 cm**-1
  15:       532.63 cm**-1
  16:       635.23 cm**-1
  17:       754.79 cm**-1
  18:       824.42 cm**-1
  19:       869.41 cm**-1
  20:       877.37 cm**-1
  21:       908.09 cm**-1
  22:       953.95 cm**-1
  23:       968.33 cm**-1
  24:       988.63 cm**-1
  25:       998.66 cm**-1
  26:      1041.18 cm**-1
  27:      1085.34 cm**-1
  28:      1162.27 cm**-1
  29:      1215.64 cm**-1
  30:      1242.83 cm**-1
  31:      1275.81 cm**-1
  32:      1292.53 cm**-1
  33:      1342.07 cm**-1
  34:      1377.41 cm**-1
  35:      1393.03 cm**-1
  36:      1403.31 cm**-1
  37:      1420.28 cm**-1
  38:      1442.57 cm**-1
  39:      1776.87 cm**-1
  40:      1791.78 cm**-1
  41:      3050.96 cm**-1
  42:      3136.18 cm**-1
  43:      3214.23 cm**-1
  44:      3297.97 cm**-1
  45:      3306.46 cm**-1
  46:      3318.44 cm**-1
  47:      3332.43 cm**-1
  48:      3420.36 cm**-1
  49:      3423.25 cm**-1
  50:      3887.28 cm**-1


------------
NORMAL MODES
------------

These modes are the Cartesian displacements weighted by the diagonal matrix
M(i,i)=1/sqrt(m[i]) where m[i] is the mass of the displaced atom
Thus, these vectors are normalized but *not* orthogonal

                  0          1          2          3          4          5    
      0       0.000000   0.000000   0.000000   0.000000   0.000000   0.000000
      1       0.000000   0.000000   0.000000   0.000000   0.000000   0.000000
      2       0.000000   0.000000   0.000000   0.000000   0.000000   0.000000
      3       0.000000   0.000000   0.000000   0.000000   0.000000   0.000000
      4       0.000000   0.000000   0.000000   0.000000   0.000000   0.000000
      5       0.000000   0.000000   0.000000   0.000000   0.000000   0.000000
      6       0.000000   0.000000   0.000000   0.000000   0.000000   0.000000
      7       0.000000   0.000000   0.000000   0.000000   0.000000   0.000000
      8       0.000000   0.000000   0.000000   0.000000   0.000000   0.000000
      9       0.000000   0.000000   0.000000   0.000000   0.000000   0.000000
     10       0.000000   0.000000   0.000000   0.000000   0.000000   0.000000
     11       0.000000   0.000000   0.000000   0.000000   0.000000   0.000000
     12       0.000000   0.000000   0.000000   0.000000   0.000000   0.000000
     13       0.000000   0.000000   0.000000   0.000000   0.000000   0.000000
     14       0.000000   0.000000   0.000000   0.000000   0.000000   0.000000
     15       0.000000   0.000000   0.000000   0.000000   0.000000   0.000000
     16       0.000000   0.000000   0.000000   0.000000   0.000000   0.000000
     17       0.000000   0.000000   0.000000   0.000000   0.000000   0.000000
     18       0.000000   0.000000   0.000000   0.000000   0.000000   0.000000
     19       0.000000   0.000000   0.000000   0.000000   0.000000   0.000000
     20       0.000000   0.000000   0.000000   0.000000   0.000000   0.000000
     21       0.000000   0.000000   0.000000   0.000000   0.000000   0.000000
     22       0.000000   0.000000   0.000000   0.000000   0.000000   0.000000
     23       0.000000   0.000000   0.000000   0.000000   0.000000   0.000000
     24       0.000000   0.000000   0.000000   0.000000   0.000000   0.000000
     25       0.000000   0.000000   0.000000   0.000000   0.000000   0.000000
     26       0.000000   0.000000   0.000000   0.000000   0.000000   0.000000
     27       0.000000   0.000000   0.000000   0.000000   0.000000   0.000000
     28       0.000000   0.000000   0.000000   0.000000   0.000000   0.000000
     29       0.000000   0.000000   0.000000   0.000000   0.000000   0.000000
     30       0.000000   0.000000   0.000000   0.000000   0.000000   0.000000
     31       0.000000   0.000000   0.000000   0.000000   0.000000   0.000000
     32       0.000000   0.000000   0.000000   0.000000   0.000000   0.000000
     33       0.000000   0.000000   0.000000   0.000000   0.000000   0.000000
     34       0.000000   0.000000   0.000000   0.000000   0.000000   0.000000
     35       0.000000   0.000000   0.000000   0.000000   0.000000   0.000000
     36       0.000000   0.000000   0.000000   0.000000   0.000000   0.000000
     37       0.000000   0.000000   0.000000   0.000000   0.000000   0.000000
     38       0.000000   0.000000   0.000000   0.000000   0.000000   0.000000
     39       0.000000   0.000000   0.000000   0.000000   0.000000   0.000000
     40       0.000000   0.000000   0.000000   0.000000   0.000000   0.000000
     41       0.000000   0.000000   0.000000   0.000000   0.000000   0.000000
     42       0.000000   0.000000   0.000000   0.000000   0.000000   0.000000
     43       0.000000   0.000000   0.000000   0.000000   0.000000   0.000000
     44       0.000000   0.000000   0.000000   0.000000   0.000000   0.000000
     45       0.000000   0.000000   0.000000   0.000000   0.000000   0.000000
     46       0.000000   0.000000   0.000000   0.000000   0.000000   0.000000
     47       0.000000   0.000000   0.000000   0.000000   0.000000   0.000000
     48       0.000000   0.000000   0.000000   0.000000   0.000000   0.000000
     49       0.000000   0.000000   0.000000   0.000000   0.000000   0.000000
     50       0.000000   0.000000   0.000000   0.000000   0.000000   0.000000
                  6          7          8          9         10         11    
      0      -0.001736  -0.071859   0.107242  -0.012712   0.120026  -0.004954
      1      -0.083324  -0.071069  -0.024151   0.047834  -0.158827   0.089559
      2      -0.059696  -0.071185   0.042778   0.016896  -0.016046   0.062707
      3      -0.044885  -0.032926   0.009785   0.019196   0.089657  -0.031977
      4       0.084682   0.027689  -0.027004   0.007252  -0.015022  -0.005782
      5       0.059507  -0.012431   0.056468  -0.017215   0.081446   0.004874
      6       0.008984   0.004049  -0.046746   0.022498   0.023517   0.003159
      7      -0.023311  -0.007381  -0.010060  -0.007867   0.039223  -0.081713
      8      -0.004655   0.011723  -0.043311  -0.011021   0.016768  -0.046448
      9       0.014151  -0.017025  -0.118472  -0.019514   0.148549   0.019741
     10       0.024524  -0.003491   0.123021   0.007245   0.043625  -0.193188
     11      -0.045753   0.017579  -0.139282  -0.003477  -0.050118   0.063172
     12      -0.007278   0.016741   0.066736   0.018825  -0.028125   0.093913
     13      -0.039777  -0.012158   0.122856  -0.024816   0.001953   0.061955
     14       0.016005   0.046861   0.011320  -0.020792  -0.070106  -0.095769
     15       0.059046  -0.041032  -0.042936  -0.000232  -0.165145  -0.008894
     16      -0.012799   0.044524  -0.001716  -0.008936   0.026072   0.052015
     17      -0.006411   0.104231   0.004227  -0.005873   0.013714  -0.050223
     18      -0.022689   0.150671   0.044020  -0.017791  -0.200111  -0.062914
     19       0.044595   0.014750  -0.198540   0.023258   0.061650   0.044429
     20       0.041803  -0.102090   0.071323  -0.012090   0.020254   0.019539
     21      -0.139147  -0.150764   0.104266  -0.039035   0.144237  -0.105403
     22       0.135450   0.006181   0.051371   0.087682  -0.274103   0.354865
     23       0.056557  -0.090060   0.171275   0.034942  -0.169934   0.332705
     24       0.185863  -0.045620   0.193910  -0.008415   0.062229   0.140350
     25      -0.480530  -0.230636  -0.089831   0.023727  -0.178613  -0.049051
     26      -0.279048  -0.084935  -0.083307   0.015448   0.067726  -0.139856
     27      -0.255207  -0.087555  -0.104863   0.023248   0.096145  -0.192975
     28       0.482044   0.191570   0.059177   0.010286  -0.053165   0.226682
     29       0.329248   0.049712   0.220534  -0.022327   0.074824   0.221782
     30       0.016212   0.035438  -0.104430   0.025889  -0.077288  -0.004880
     31      -0.055037  -0.010666  -0.117230   0.004808   0.037944   0.002526
     32      -0.024624  -0.000983  -0.083757  -0.003335   0.050618   0.002266
     33       0.022362  -0.025491  -0.134832  -0.010058   0.212545   0.012528
     34      -0.062021  -0.005936  -0.120179  -0.712747   0.019830   0.057300
     35       0.046995   0.003721   0.053241   0.672077   0.086637  -0.179453
     36      -0.028607   0.040531   0.238766   0.013274  -0.068792   0.264991
     37      -0.058710  -0.027034   0.190400  -0.021006   0.025058   0.108724
     38       0.052361   0.049077  -0.172050  -0.023076  -0.072538  -0.251696
     39      -0.025520   0.031362   0.091000   0.023375   0.010396   0.083049
     40      -0.062001  -0.009735   0.293194  -0.032551  -0.022732   0.255564
     41      -0.030500   0.070009   0.218889  -0.022701  -0.045546   0.091501
     42       0.234735  -0.339145  -0.236281  -0.026098  -0.395358  -0.190620
     43      -0.069745   0.165206   0.032074   0.005204   0.114083   0.111483
     44      -0.112358   0.411758  -0.028009   0.041042   0.216242   0.061508
     45      -0.198106   0.473530   0.299140  -0.001358   0.019174   0.119000
     46       0.101111  -0.115993  -0.242009   0.008838  -0.028709  -0.013870
     47       0.149899  -0.455655   0.136447  -0.074445  -0.220158  -0.085560
     48       0.064772   0.032375  -0.111839  -0.045976  -0.452419  -0.300356
     49       0.036858   0.135872  -0.357857   0.073152   0.203616   0.100044
     50      -0.017040   0.041114   0.075810   0.034489   0.259130   0.199101
                 12         13         14         15         16         17    
      0      -0.265684  -0.004815   0.010382   0.025242   0.027224   0.050009
      1      -0.083179  -0.015412  -0.000485  -0.002445   0.004638   0.027099
      2       0.111994  -0.030082  -0.033141   0.035410   0.010451   0.001716
      3       0.045473  -0.092385  -0.096796   0.173290   0.008704   0.102969
      4      -0.060035  -0.007355  -0.005317  -0.050822   0.238365  -0.028707
      5       0.070972  -0.009101  -0.016270  -0.026709   0.161756  -0.041622
      6       0.017870  -0.096650  -0.068512   0.039556  -0.001567  -0.140225
      7      -0.041643   0.004095  -0.019811   0.030282   0.007515   0.133539
      8       0.042966  -0.035855   0.003073  -0.087810  -0.096582  -0.083360
      9       0.079082   0.123781   0.104500  -0.015151  -0.081845   0.002534
     10       0.050565  -0.097349  -0.041748  -0.060401  -0.126271  -0.077508
     11      -0.085369  -0.053671  -0.058200   0.017179  -0.021588  -0.033913
     12       0.065519  -0.098633   0.005963  -0.037635   0.038601  -0.118193
     13       0.077303   0.015492   0.074380   0.042966  -0.019513   0.060878
     14      -0.040037  -0.032931   0.102995   0.002645  -0.029631   0.090837
     15       0.059383   0.008821  -0.051015  -0.181893   0.003460   0.127017
[...]
      3      -0.008827   0.064245   0.010793   0.096070   0.122641  -0.000729
      4      -0.011339   0.055608   0.009360   0.076512   0.097549  -0.001719
      5       0.038894  -0.066970  -0.005717  -0.256330  -0.325021  -0.001989
      6      -0.018502  -0.066360  -0.011455  -0.015114  -0.035584   0.033340
      7      -0.012807  -0.070372  -0.015916  -0.022659  -0.025183  -0.038725
      8       0.018303   0.034621   0.000180   0.030484   0.050911   0.065755
      9       0.003248   0.011206   0.001738   0.004492   0.005655   0.000337
     10       0.004884   0.018782   0.003666   0.006166   0.006778   0.002272
     11      -0.008701  -0.008252  -0.005509  -0.000774  -0.004167  -0.000124
     12      -0.033044  -0.008561   0.018102   0.033245  -0.032411   0.001933
     13       0.007860   0.018321  -0.031664  -0.003286   0.001746  -0.000501
     14       0.011225  -0.016126   0.099027   0.046584  -0.033215  -0.006360
     15       0.051184   0.019177  -0.033334  -0.251292   0.198461  -0.000370
     16       0.002153  -0.001705   0.021762  -0.090258   0.072479   0.000142
     17       0.062034   0.021091  -0.030671  -0.244770   0.192913  -0.000396
     18       0.025343   0.013029  -0.020098   0.215201  -0.169654  -0.000056
     19       0.028386   0.013162  -0.024016   0.118431  -0.094270  -0.000137
     20       0.017510   0.010245  -0.014213   0.193617  -0.152135   0.000026
     21      -0.031591   0.080344   0.012667  -0.134624  -0.172186   0.003435
     22      -0.053203   0.155570   0.023079  -0.173952  -0.218011   0.002679
     23      -0.243668   0.637226   0.089428  -0.143553  -0.184985  -0.001096
     24       0.127828  -0.290237  -0.040585   0.201644   0.260244  -0.001615
     25       0.139348  -0.324019  -0.043780   0.238647   0.300205  -0.002176
     26      -0.173214   0.351270   0.042792  -0.063327  -0.080425  -0.004583
     27       0.025876  -0.094276  -0.020525  -0.166341  -0.209080   0.008793
     28       0.039523  -0.091662  -0.013110  -0.173134  -0.217386   0.017233
     29      -0.018075   0.154307   0.034387   0.059431   0.074456   0.024919
     30       0.148737   0.148321  -0.039374  -0.093659  -0.051776  -0.406410
     31       0.094608   0.171275   0.117787  -0.051581  -0.073659   0.446134
     32      -0.004912   0.064642   0.096342   0.060575   0.029134  -0.785142
     33      -0.045931  -0.059574  -0.016374  -0.018312  -0.009073   0.000150
     34      -0.103068  -0.083012  -0.026327  -0.040504  -0.064765  -0.009300
     35      -0.055820  -0.055060  -0.018913  -0.023519  -0.030308   0.007510
     36       0.163083  -0.037299   0.268783   0.083544  -0.047061   0.023762
     37       0.205720   0.007444   0.416710  -0.053145   0.054183   0.048094
     38      -0.230461  -0.000265  -0.372532   0.078633  -0.072813   0.055552
     39       0.072686   0.145633  -0.147143  -0.074638   0.074890  -0.043003
     40      -0.206480  -0.091136  -0.238633   0.010403  -0.043298  -0.052132
     41      -0.247558   0.023677  -0.564444  -0.079559   0.044984   0.025023
     42      -0.132473  -0.052976   0.088770   0.137213  -0.105077   0.000328
     43       0.015420   0.003380   0.007182  -0.168274   0.135166   0.001446
     44      -0.175107  -0.069506   0.076470   0.237265  -0.192918  -0.000326
     45      -0.270870  -0.098475   0.136531  -0.121725   0.095671   0.000735
     46       0.057567   0.024516  -0.044400   0.218322  -0.173063   0.002693
     47      -0.387848  -0.146929   0.189484  -0.268648   0.207898  -0.000700
     48      -0.308393  -0.114148   0.164797  -0.052755   0.040056   0.000173
     49      -0.434605  -0.164346   0.240141  -0.306683   0.243451  -0.000746
     50      -0.136233  -0.048321   0.074014   0.108622  -0.082835   0.000881
                 42         43         44         45         46         47    
      0      -0.000033  -0.000069   0.003894   0.000027  -0.000180  -0.005621
      1      -0.000057  -0.000292  -0.002521   0.000012  -0.000083  -0.008183
      2      -0.000134  -0.001675  -0.069653  -0.001350  -0.000921  -0.018637
      3      -0.000403  -0.001044  -0.008132   0.000122   0.000845   0.034134
      4      -0.000690  -0.001067  -0.009486   0.000216   0.001210   0.046616
      5      -0.001700  -0.000996  -0.001838   0.000603   0.001976   0.063370
      6       0.004298   0.000632  -0.000569  -0.000337  -0.000210  -0.000195
      7      -0.004430   0.001489  -0.000877  -0.000012  -0.000127  -0.001996
      8       0.006894  -0.000111  -0.000558  -0.000188   0.000245   0.003240
      9       0.000078  -0.000109   0.000196   0.000080  -0.000042  -0.000141
     10       0.000140  -0.000349   0.000231   0.000047   0.000011  -0.000270
     11      -0.000341  -0.000249  -0.000032   0.000072   0.000009  -0.000261
     12      -0.014625   0.049956  -0.001000  -0.004944  -0.007390   0.000722
     13       0.002710   0.077291  -0.001911  -0.007320  -0.009296   0.001738
     14       0.068007   0.012903  -0.000918  -0.001785  -0.003889   0.001518
     15      -0.001599  -0.003876   0.000241  -0.005235  -0.027963   0.000729
     16      -0.000477  -0.012519   0.001061  -0.029498  -0.073952   0.002151
     17      -0.001342   0.002376  -0.000263   0.010491   0.008040  -0.000326
     18       0.000127  -0.001359   0.000637  -0.041908   0.023164  -0.000319
     19       0.000195  -0.000022   0.000352  -0.024760   0.022826  -0.000515
     20       0.000187  -0.001184   0.000601  -0.036731   0.015431  -0.000106
     21      -0.001835  -0.008247  -0.357126  -0.005999  -0.001080   0.009137
     22      -0.002226  -0.009375  -0.383826  -0.006342  -0.000981   0.009865
     23       0.000806   0.002848   0.128809   0.002152   0.000199  -0.004947
     24       0.001567   0.008937   0.339609   0.006061   0.003624   0.080708
     25       0.001771   0.011806   0.434971   0.007362   0.003917   0.103735
     26       0.002002   0.016023   0.609188   0.010663   0.006149   0.146519
     27       0.008298   0.007844   0.070616  -0.002082  -0.011263  -0.415602
     28       0.011656   0.011401   0.095023  -0.003148  -0.015640  -0.559379
     29       0.015711   0.014497   0.112576  -0.003909  -0.019052  -0.681982
     30      -0.043995   0.002811   0.001167   0.001266   0.001273  -0.009678
     31       0.047183  -0.005746   0.001169  -0.000619  -0.000286   0.016345
     32      -0.077761   0.006110  -0.001150   0.001655  -0.000833  -0.027025
     33      -0.000550  -0.001223  -0.001671  -0.000167   0.000315  -0.000795
     34      -0.001096   0.000072   0.001546  -0.000143  -0.000086  -0.001167
     35       0.001602   0.000878   0.010324  -0.000352  -0.000686   0.001107
     36      -0.193331  -0.144601   0.004758   0.014645   0.025762  -0.005394
     37      -0.488605  -0.379073   0.013266   0.037624   0.055191  -0.016261
     38      -0.567604  -0.454501   0.015797   0.044509   0.070813  -0.019787
     39       0.369254  -0.457737   0.009192   0.041449   0.053872  -0.001635
     40       0.446359  -0.544427   0.010283   0.051543   0.064251  -0.004040
     41      -0.223984   0.293670  -0.005610  -0.028120  -0.034728   0.000992
     42       0.006455   0.051196  -0.004245   0.120250   0.267225  -0.007357
     43       0.016227   0.148471  -0.012983   0.378870   0.833410  -0.024196
     44      -0.002759  -0.028031   0.002255  -0.073536  -0.156776   0.004926
     45      -0.001038   0.004480  -0.002809   0.193681  -0.112971   0.001681
     46      -0.003176   0.016281  -0.009075   0.604855  -0.347528   0.005429
     47       0.002181  -0.005423   0.001427  -0.090779   0.050316  -0.000831
     48      -0.000273   0.011136  -0.003876   0.252523  -0.086261   0.000253
     49       0.002450  -0.016974   0.005415  -0.339586   0.115634  -0.000404
     50      -0.001684   0.023082  -0.007682   0.481658  -0.164365   0.000596
                  48         49         50    
      0       0.064282   0.000319   0.000478
      1       0.072336   0.000326   0.000622
      2       0.010520   0.000097   0.001482
      3       0.004042   0.000057   0.000246
      4       0.005737   0.000074   0.000424
      5       0.009945   0.000052   0.000195
      6      -0.000087   0.000117   0.000449
      7       0.000004   0.000012   0.000818
      8       0.001047   0.000171  -0.001001
      9      -0.000227  -0.000118   0.022758
     10      -0.000213   0.000022   0.011738
     11       0.000243  -0.000117  -0.056918
     12       0.000162   0.000479  -0.000146
     13       0.000208  -0.000011   0.000302
     14       0.000116   0.000459  -0.000045
     15       0.000035   0.003028  -0.000038
     16      -0.000025   0.009124  -0.000069
     17       0.000025  -0.001457   0.000050
     18       0.000056  -0.007848   0.000004
     19      -0.000424   0.083153  -0.000037
     20       0.000236  -0.053828   0.000042
     21      -0.553064  -0.002673  -0.001917
     22      -0.591637  -0.002873  -0.002333
     23       0.228828   0.001118  -0.001807
     24      -0.207330  -0.001090  -0.003550
     25      -0.267132  -0.001185  -0.003483
     26      -0.392028  -0.002032  -0.011392
     27      -0.049794  -0.000605  -0.000188
     28      -0.067515  -0.000776   0.000832
     29      -0.082875  -0.000845  -0.002047
     30      -0.001681  -0.000674   0.005323
     31       0.001891   0.000350  -0.001358
     32      -0.003802  -0.001130   0.007216
     33       0.001672  -0.000061  -0.373445
     34      -0.001817  -0.000213  -0.207324
     35      -0.009749   0.000899   0.901884
     36      -0.000496  -0.002117  -0.000229
     37      -0.002028  -0.002263   0.001283
     38      -0.002436  -0.002717   0.001548
     39      -0.001173  -0.000186   0.000560
     40      -0.001288  -0.002990   0.000002
     41       0.000620   0.003498  -0.000124
     42       0.000180  -0.029968   0.000134
     43       0.000580  -0.091501   0.000693
     44       0.000048   0.016852  -0.000033
     45       0.000841  -0.211104   0.000539
     46       0.002815  -0.627866   0.000417
     47      -0.000350   0.082322  -0.000058
     48      -0.001653   0.296206  -0.000268
     49       0.002038  -0.375361   0.000408
     50      -0.002948   0.553371  -0.000394


-----------
IR SPECTRUM
-----------

 Mode    freq (cm**-1)   T**2         TX         TY         TZ
-------------------------------------------------------------------
   7:        49.14    0.285936  ( -0.425003   0.316324  -0.072442)
   8:        83.62    0.873020  (  0.654978  -0.655853   0.117816)
   9:       117.53    1.402499  ( -0.871688   0.727252  -0.337289)
  10:       240.67    1.925327  (  1.061355  -0.890626   0.075090)
  11:       295.24    1.776270  (  0.467932   1.104251   0.581325)
  12:       335.26    3.617427  (  0.917554  -1.274862  -1.072496)
  13:       417.87    0.277448  (  0.242154   0.003578   0.467757)
  14:       468.71    1.322558  ( -1.088400  -0.175621  -0.327264)
  15:       601.16    1.355741  (  0.814156  -0.810638  -0.189095)
  16:       629.16   10.005230  (  1.133995  -1.653208  -2.446669)
  17:       788.18   16.279266  (  1.693574  -3.159111  -1.852320)
  18:       838.22    6.143442  ( -2.451998   0.362074   0.006981)
  19:       898.22    5.538693  (  1.451572  -0.330767  -1.822697)
  20:       919.78   52.143818  (  6.019657  -3.988293   0.032791)
  21:       940.12   23.700804  (  4.059913  -0.271873  -2.672825)
  22:       948.49   11.165516  ( -1.378916   2.526776   1.696912)
  23:      1015.61    7.558180  ( -2.678083  -0.606734  -0.133896)
  24:      1027.57    5.418874  (  1.933315   1.008619  -0.814773)
  25:      1029.12   12.320029  (  2.053396  -2.803519  -0.493835)
  26:      1033.82   25.370417  ( -1.214174   4.133017   2.610435)
  27:      1085.21   20.434096  (  1.323405   2.422464   3.579715)
  28:      1175.12   80.036093  ( -0.445883   8.063753   3.848788)
  29:      1234.13    9.331909  ( -0.948087  -2.888038  -0.303776)
  30:      1272.30    7.749847  (  2.415580   1.379597   0.107377)
  31:      1284.02    5.721698  ( -1.664519  -0.854132  -1.490481)
  32:      1308.71    0.578219  (  0.016130  -0.349835  -0.674962)
  33:      1318.62    4.229685  ( -1.840028  -0.906846  -0.147015)
  34:      1364.13    2.384306  ( -1.472773  -0.410848  -0.215522)
  35:      1412.12   31.359936  ( -2.601375  -4.487787  -2.110107)
  36:      1422.35   14.672225  ( -0.843865  -2.191518  -3.026114)
  37:      1437.69   10.956206  ( -1.736011  -2.444082   1.403188)
  38:      1457.83    5.477170  (  2.016739   0.158754  -1.176746)
  39:      1739.49    9.634557  ( -0.726592  -0.004774  -3.017714)
  40:      1740.04    7.665731  (  2.393579   0.153215  -1.383125)
  41:      3015.46   39.893156  (  3.170764  -2.128645   5.030734)
  42:      3070.75   27.858393  (  0.210790  -0.113320   5.272677)
  43:      3131.34    7.236831  (  1.551785   2.153200   0.438776)
  44:      3153.90    7.325667  ( -0.944794  -1.657635  -1.919707)
  45:      3160.48    7.625974  ( -1.857308  -1.874149  -0.814829)
  46:      3176.30    6.945256  ( -0.013997  -2.504198   0.821008)
  47:      3183.37    4.151158  (  1.050290   0.855031   1.522160)
  48:      3253.58    6.263499  (  1.663947   1.764826   0.616578)
  49:      3264.67    6.935179  ( -0.608496   2.040037  -1.550213)
  50:      3911.81   42.398411  ( -3.589700  -1.045429   5.330998)

The first frequency considered to be a vibration is 7
The total number of vibrations considered is 44


--------------------------
THERMOCHEMISTRY AT 298.15K
--------------------------

Temperature         ... 298.15 K
Pressure            ... 1.00 atm
Total Mass          ... 98.14 AMU

Throughout the following assumptions are being made:
  (1) The electronic state is orbitally nondegenerate
  (2) There are no thermally accessible electronically excited states
  (3) Hindered rotations indicated by low frequency modes are not
      treated as such but are treated as vibrations and this may
      cause some error
  (4) All equations used are the standard statistical mechanics
      equations for an ideal gas
  (5) All vibrations are strictly harmonic

freq.      49.14  E(vib)   ...       0.53 
freq.      83.62  E(vib)   ...       0.48 
freq.     117.53  E(vib)   ...       0.44 
freq.     240.67  E(vib)   ...       0.31 
freq.     295.24  E(vib)   ...       0.27 
freq.     335.26  E(vib)   ...       0.24 
freq.     417.87  E(vib)   ...       0.18 
freq.     468.71  E(vib)   ...       0.16 
freq.     601.16  E(vib)   ...       0.10 
freq.     629.16  E(vib)   ...       0.09 
freq.     788.18  E(vib)   ...       0.05 
freq.     838.22  E(vib)   ...       0.04 
freq.     898.22  E(vib)   ...       0.03 
freq.     919.78  E(vib)   ...       0.03 
freq.     940.12  E(vib)   ...       0.03 
freq.     948.49  E(vib)   ...       0.03 
freq.    1015.61  E(vib)   ...       0.02 
freq.    1027.57  E(vib)   ...       0.02 
freq.    1029.12  E(vib)   ...       0.02 
freq.    1033.82  E(vib)   ...       0.02 
freq.    1085.21  E(vib)   ...       0.02 
freq.    1175.12  E(vib)   ...       0.01 
freq.    1234.13  E(vib)   ...       0.01 
freq.    1272.30  E(vib)   ...       0.01 
freq.    1284.02  E(vib)   ...       0.01 
freq.    1308.71  E(vib)   ...       0.01 
freq.    1318.62  E(vib)   ...       0.01 
freq.    1364.13  E(vib)   ...       0.01 
freq.    1412.12  E(vib)   ...       0.00 
freq.    1422.35  E(vib)   ...       0.00 
freq.    1437.69  E(vib)   ...       0.00 
freq.    1457.83  E(vib)   ...       0.00 
freq.    1739.49  E(vib)   ...       0.00 
freq.    1740.04  E(vib)   ...       0.00 
freq.    3015.46  E(vib)   ...       0.00 
freq.    3070.75  E(vib)   ...       0.00 
freq.    3131.34  E(vib)   ...       0.00 
freq.    3153.90  E(vib)   ...       0.00 
freq.    3160.48  E(vib)   ...       0.00 
freq.    3176.30  E(vib)   ...       0.00 
freq.    3183.37  E(vib)   ...       0.00 
freq.    3253.58  E(vib)   ...       0.00 
freq.    3264.67  E(vib)   ...       0.00 
freq.    3911.81  E(vib)   ...       0.00 

------------
INNER ENERGY
------------

The inner energy is: U= E(el) + E(ZPE) + E(vib) + E(rot) + E(trans)
    E(el)   - is the total energy from the electronic structure calculation
              = E(kin-el) + E(nuc-el) + E(el-el) + E(nuc-nuc)
    E(ZPE)  - the the zero temperature vibrational energy from the frequency calculation
    E(vib)  - the the finite temperature correction to E(ZPE) due to population
              of excited vibrational states
    E(rot)  - is the rotational thermal energy
    E(trans)- is the translational thermal energy

Summary of contributions to the inner energy U:
Electronic energy                ...   -309.23997272 Eh
Zero point energy                ...      0.14637435 Eh      91.85 kcal/mol
Thermal vibrational correction   ...      0.00507553 Eh       3.18 kcal/mol
Thermal rotational correction    ...      0.00141627 Eh       0.89 kcal/mol
Thermal translational correction ...      0.00141627 Eh       0.89 kcal/mol
-----------------------------------------------------------------------
Total thermal energy                   -309.08569030 Eh


Summary of corrections to the electronic energy:
(perhaps to be used in another calculation)
Total thermal correction                  0.00790807 Eh       4.96 kcal/mol
Non-thermal (ZPE) correction              0.14637435 Eh      91.85 kcal/mol
-----------------------------------------------------------------------
Total correction                          0.15428243 Eh      96.81 kcal/mol


--------
ENTHALPY
--------

The enthalpy is H = U + kB*T
                kB is Boltzmann's constant
Total free energy                 ...   -309.08569030 Eh 
Thermal Enthalpy correction       ...      0.00094421 Eh       0.59 kcal/mol
-----------------------------------------------------------------------
Total Enthalpy                    ...   -309.08474609 Eh


Note: Rotational entropy computed according to Herzberg 
Infrared and Raman Spectra, Chapter V,1, Van Nostrand Reinhold, 1945 
Point Group:  C1, Symmetry Number:   1  
Rotational constants in cm-1:     0.123100     0.064489     0.059709 

Vibrational entropy computed according to the QRRHO of S. Grimme
Chem.Eur.J. 2012 18 9955


-------
ENTROPY
-------

The entropy contributions are T*S = T*(S(el)+S(vib)+S(rot)+S(trans))
     S(el)   - electronic entropy
     S(vib)  - vibrational entropy
     S(rot)  - rotational entropy
     S(trans)- translational entropy
The entropies will be listed as mutliplied by the temperature to get
units of energy

Electronic entropy                ...      0.00000000 Eh      0.00 kcal/mol
Vibrational entropy               ...      0.00877919 Eh      5.51 kcal/mol
Rotational entropy                ...      0.01312433 Eh      8.24 kcal/mol
Translational entropy             ...      0.01884472 Eh     11.83 kcal/mol
-----------------------------------------------------------------------
Final entropy term                ...      0.04074824 Eh     25.57 kcal/mol


-------------------
GIBBS FREE ENTHALPY
-------------------

The Gibbs free enthalpy is G = H - T*S

Total enthalpy                    ...   -309.08474609 Eh 
Total entropy correction          ...     -0.04074824 Eh    -25.57 kcal/mol
-----------------------------------------------------------------------
Final Gibbs free enthalpy         ...   -309.12549432 Eh

For completeness - the Gibbs free enthalpy minus the electronic energy
G-E(el)                           ...      0.11447840 Eh     71.84 kcal/mol


Timings for individual modules:

Sum of individual times         ...      558.903 sec (=   9.315 min)
GTO integral calculation        ...       39.567 sec (=   0.659 min)   7.1 %
SCF iterations                  ...      288.225 sec (=   4.804 min)  51.6 %
SCF Gradient evaluation         ...      104.534 sec (=   1.742 min)  18.7 %
Geometry relaxation             ...        3.001 sec (=   0.050 min)   0.5 %
Analytical frequency calculation...      123.575 sec (=   2.060 min)  22.1 %
                             ****ORCA TERMINATED NORMALLY****
TOTAL RUN TIME: 0 days 0 hours 9 minutes 28 seconds 335 msec
