
                                 *****************
                                 * O   R   C   A *
                                 *****************

           --- An Ab Initio, DFT and Semiempirical electronic structure package ---

                  #######################################################
                  #                        -***-                        #
                  #          Department of theory and spectroscopy      #
                  #               Directorship: Frank Neese             #
                  #        Max Planck Institute fuer Kohlenforschung    #
                  #                Kaiser Wilhelm Platz 1               #
                  #                 D-45470 Muelheim/Ruhr               #
                  #                      Germany                        #
                  #                                                     #
                  #                  All rights reserved                #
                  #                        -***-                        #
                  #######################################################


                         Program Version 4.1.1  - RELEASE  -


 With contributions from (in alphabetic order):
   Daniel Aravena         : Magnetic Properties
   Michael Atanasov       : Ab Initio Ligand Field Theory
   Alexander A. Auer      : GIAO ZORA
   Ute Becker             : Parallelization
   Giovanni Bistoni       : ED, Open-shell LED
   Martin Brehm           : Molecular dynamics
   Dmytro Bykov           : SCF Hessian
   Vijay G. Chilkuri      : MRCI spin determinant printing
   Dipayan Datta          : RHF DLPNO-CCSD density
   Achintya Kumar Dutta   : EOM-CC, STEOM-CC
   Dmitry Ganyushin       : Spin-Orbit,Spin-Spin,Magnetic field MRCI
   Miquel Garcia          : C-PCM Hessian
   Yang Guo               : DLPNO-NEVPT2, CIM, IAO-localization
   Andreas Hansen         : Spin unrestricted coupled pair/coupled cluster methods
   Benjamin Helmich-Paris : CASSCF linear response (MC-RPA)
   Lee Huntington         : MR-EOM, pCC
   Robert Izsak           : Overlap fitted RIJCOSX, COSX-SCS-MP3, EOM
   Christian Kollmar      : KDIIS, OOCD, Brueckner-CCSD(T), CCSD density
   Simone Kossmann        : Meta GGA functionals, TD-DFT gradient, OOMP2, MP2 Hessian
   Martin Krupicka        : AUTO-CI
   Lucas Lang             : DCDCAS
   Dagmar Lenk            : GEPOL surface, SMD
   Dimitrios Liakos       : Extrapolation schemes; parallel MDCI
   Dimitrios Manganas     : ROCIS; embedding schemes
   Dimitrios Pantazis     : SARC Basis sets
   Taras Petrenko         : DFT Hessian,TD-DFT gradient, ASA, ECA, R-Raman, ABS, FL, XAS/XES, NRVS
   Peter Pinski           : DLPNO-MP2, DLPNO-MP2 Gradient
   Christoph Reimann      : Effective Core Potentials
   Marius Retegan         : Local ZFS, SOC
   Christoph Riplinger    : Optimizer, TS searches, QM/MM, DLPNO-CCSD(T), (RO)-DLPNO pert. Triples
   Tobias Risthaus        : Range-separated hybrids, TD-DFT gradient, RPA, STAB
   Michael Roemelt        : Restricted open shell CIS
   Masaaki Saitow         : Open-shell DLPNO
   Barbara Sandhoefer     : DKH picture change effects
   Avijit Sen             : IP-ROCIS
   Kantharuban Sivalingam : CASSCF convergence, NEVPT2, FIC-MRCI
   Bernardo de Souza      : ESD, SOC TD-DFT
   Georgi Stoychev        : AutoAux, RI-MP2 NMR
   Willem Van den Heuvel  : Paramagnetic NMR
   Boris Wezisla          : Elementary symmetry handling
   Frank Wennmohs         : Technical directorship


 We gratefully acknowledge several colleagues who have allowed us to
 interface, adapt or use parts of their codes:
   Stefan Grimme, W. Hujo, H. Kruse,             : VdW corrections, initial TS optimization,
                  C. Bannwarth                     DFT functionals, gCP, sTDA/sTD-DF
   Ed Valeev                                     : LibInt (2-el integral package), F12 methods
   Garnet Chan, S. Sharma, J. Yang, R. Olivares  : DMRG
   Ulf Ekstrom                                   : XCFun DFT Library
   Mihaly Kallay                                 : mrcc  (arbitrary order and MRCC methods)
   Andreas Klamt, Michael Diedenhofen            : otool_cosmo (COSMO solvation model)
   Jiri Pittner, Ondrej Demel                    : Mk-CCSD
   Frank Weinhold                                : gennbo (NPA and NBO analysis)
   Christopher J. Cramer and Donald G. Truhlar   : smd solvation model
   Lars Goerigk                                  : TD-DFT with DH, B97 family of functionals
   V. Asgeirsson, H. Jonsson                     : NEB implementation
   FAccTs GmbH                                   : IRC, NEB, NEB-TS, Multilevel


 Your calculation uses the libint2 library for the computation of 2-el integrals
 For citations please refer to: http://libint.valeyev.net

 This ORCA versions uses:
   CBLAS   interface :  Fast vector & matrix operations
   LAPACKE interface :  Fast linear algebra routines
   SCALAPACK package :  Parallel linear algebra routines


Your calculation utilizes the atom-pairwise dispersion correction
with the Becke-Johnson damping scheme (D3BJ)
Cite in your paper:
S.Grimme, S.Ehrlich, L.Goerigk, J Comput Chem, (2011), 32, 1456–1465 
S.Grimme, J.Antony, S.Ehrlich and H.Krieg, J.Chem.Phys., 132, (2010), 154104 
   

----- Orbital basis set information -----
Your calculation utilizes the basis: def2-SVP
   F. Weigend and R. Ahlrichs, Phys. Chem. Chem. Phys. 7, 3297 (2005).

----- AuxJ basis set information -----
Your calculation utilizes the auxiliary basis: def2/J
   F. Weigend, Phys. Chem. Chem. Phys. 8, 1057 (2006).

================================================================================
                                        WARNINGS
                       Please study these warnings very carefully!
================================================================================


WARNING: Geometry Optimization
  ===> : Switching off AutoStart
         For restart on a previous wavefunction, please use MOREAD

INFO   : the flag for use of LIBINT has been found!

================================================================================
                                       INPUT FILE
================================================================================
NAME = xtb2d_ts_guess_orca_opt.inp
|  1> ! OptTS Freq PBE0 RIJCOSX D3BJ def2-SVP def2/J PAL8
|  2> %geom
|  3> Calc_Hess true
|  4> Recalc_Hess 40
|  5> Trust 0.2
|  6> MaxIter 100
|  7> end
|  8> %geom
|  9> modify_internal
| 10> { B 0 4 A } end
| 11> end
| 12> %geom
| 13> modify_internal
| 14> { B 2 4 A } end
| 15> end
| 16> %geom MaxIter 100 end
| 17> %scf 
| 18> maxiter 250 
| 19> end
| 20> % maxcore 4000
| 21> *xyz 0 1
| 22> C   2.13309946  0.75935822 -0.43021871 
| 23> C   1.98464943 -0.10328211  0.56911167 
| 24> C   1.25788227 -1.36568655  0.38683308 
| 25> O   0.80952093 -1.76735975 -0.65665846 
| 26> C  -0.97974498  0.85181605  1.33359297 
| 27> C  -1.34511166  0.70113794  0.07424734 
| 28> C  -2.12083076 -0.45546853 -0.45308611 
| 29> H   2.65543754  1.69421789 -0.32065418 
| 30> H   1.71943149  0.53365675 -1.39996221 
| 31> H   2.37913402  0.09003108  1.55583925 
| 32> H   1.14657375 -1.95828626  1.31554621 
| 33> H  -1.47092659 -1.06901623 -1.07845198 
| 34> H  -0.40543943  1.69937074  1.66769966 
| 35> H  -1.25449859  0.13522493  2.09091929 
| 36> H  -1.05424213  1.43937840 -0.66268015 
| 37> H  -2.50366372 -1.07206410  0.35643009 
| 38> H  -2.95127102 -0.11302847 -1.06840778 
| 39> *
| 40> 
| 41>                          ****END OF INPUT****
================================================================================

                       *****************************
                       * Geometry Optimization Run *
                       *****************************

Geometry optimization settings:
Update method            Update   .... Bofill
Choice of coordinates    CoordSys .... Z-matrix Internals
Initial Hessian          InHess   .... Almoef's Model

Convergence Tolerances:
Energy Change            TolE     ....  5.0000e-06 Eh
Max. Gradient            TolMAXG  ....  3.0000e-04 Eh/bohr
RMS Gradient             TolRMSG  ....  1.0000e-04 Eh/bohr
Max. Displacement        TolMAXD  ....  4.0000e-03 bohr
RMS Displacement         TolRMSD  ....  2.0000e-03 bohr

------------------------------------------------------------------------------
                        ORCA OPTIMIZATION COORDINATE SETUP
------------------------------------------------------------------------------

The optimization will be done in new redundant internal coordinates
Making redundant internal coordinates   ...  (new redundants) done
Following TS mode number                ...     0
Evaluating the initial hessian          ...  (Is done on the fly) done
Evaluating the coordinates              ...  done
Calculating the B-matrix                .... done
Calculating the G-matrix                .... done
Diagonalizing the G-matrix              .... done
The first mode is                       ....   44
The number of degrees of freedom        ....   45

    -----------------------------------------------------------------
                    Redundant Internal Coordinates


    -----------------------------------------------------------------
         Definition                    Initial Value    d2E/dq (diagonal element)
    -----------------------------------------------------------------
      1. B(C   1,C   0)                  1.3285         0.000000   
      2. B(C   2,C   1)                  1.4680         0.000000   
      3. B(O   3,C   2)                  1.2047         0.000000   
      4. B(C   4,C   0)                  3.5790         0.000000   
      5. B(C   4,C   2)                  3.2895         0.000000   
      6. B(C   5,C   4)                  1.3199         0.000000   
      7. B(C   6,C   5)                  1.4891         0.000000   
      8. B(H   7,C   0)                  1.0765         0.000000   
      9. B(H   8,C   0)                  1.0782         0.000000   
     10. B(H   9,C   1)                  1.0801         0.000000   
     11. B(H  10,C   2)                  1.1073         0.000000   
     12. B(H  11,C   6)                  1.0908         0.000000   
     13. B(H  11,O   3)                  2.4220         0.000000   
     14. B(H  11,C   2)                  3.1115         0.000000   
     15. B(H  12,C   4)                  1.0769         0.000000   
     16. B(H  13,C   4)                  1.0782         0.000000   
     17. B(H  14,C   5)                  1.0829         0.000000   
     18. B(H  14,H   8)                  3.0095         0.000000   
     19. B(H  15,C   6)                  1.0872         0.000000   
     20. B(H  16,C   6)                  1.0888         0.000000   
     21. A(C   1,C   0,H   8)          119.8532         0.000000   
     22. A(H   7,C   0,H   8)          117.3555         0.000000   
     23. A(C   1,C   0,H   7)          122.7912         0.000000   
     24. A(C   0,C   1,C   2)          121.3534         0.000000   
     25. A(C   2,C   1,H   9)          116.6253         0.000000   
     26. A(C   0,C   1,H   9)          122.0175         0.000000   
     27. A(H  10,C   2,H  11)          110.9681         0.000000   
     28. A(O   3,C   2,H  10)          120.7073         0.000000   
     29. A(C   1,C   2,H  11)          114.2461         0.000000   
     30. A(O   3,C   2,H  11)           45.3695         0.000000   
     31. A(C   1,C   2,O   3)          125.3477         0.000000   
     32. A(C   1,C   2,H  10)          113.9443         0.000000   
     33. A(C   2,O   3,H  11)          113.9002         0.000000   
     34. A(H  12,C   4,H  13)          116.1699         0.000000   
     35. A(C   5,C   4,H  13)          121.5846         0.000000   
     36. A(C   5,C   4,H  12)          122.2397         0.000000   
     37. A(C   4,C   5,H  14)          119.8093         0.000000   
     38. A(C   4,C   5,C   6)          124.8013         0.000000   
     39. A(C   6,C   5,H  14)          115.3678         0.000000   
     40. A(C   5,C   6,H  11)          109.2394         0.000000   
     41. A(H  15,C   6,H  16)          109.3041         0.000000   
     42. A(H  11,C   6,H  16)          107.8979         0.000000   
     43. A(C   5,C   6,H  16)          110.6801         0.000000   
     44. A(H  11,C   6,H  15)          108.5215         0.000000   
     45. A(C   5,C   6,H  15)          111.1149         0.000000   
     46. A(C   0,H   8,H  14)           94.0290         0.000000   
     47. A(C   2,H  11,O   3)           20.7303         0.000000   
     48. A(O   3,H  11,C   6)          128.5583         0.000000   
     49. A(C   2,H  11,C   6)          107.8281         0.000000   
     50. A(C   5,H  14,H   8)          102.0697         0.000000   
     51. D(C   2,C   1,C   0,H   7)    179.5692         0.000000   
     52. D(H   9,C   1,C   0,H   7)      0.3069         0.000000   
     53. D(H   9,C   1,C   0,H   8)   -179.6064         0.000000   
     54. D(C   2,C   1,C   0,H   8)     -0.3441         0.000000   
     55. D(H  10,C   2,C   1,H   9)      3.3729         0.000000   
     56. D(H  10,C   2,C   1,C   0)   -175.9274         0.000000   
     57. D(H  11,C   2,C   1,H   9)    132.3805         0.000000   
     58. D(O   3,C   2,C   1,C   0)      4.3847         0.000000   
     59. D(H  11,C   2,C   1,C   0)    -46.9198         0.000000   
     60. D(O   3,C   2,C   1,H   9)   -176.3150         0.000000   
     61. D(H  11,O   3,C   2,H  10)     89.9155         0.000000   
     62. D(H  11,O   3,C   2,C   1)    -90.4162         0.000000   
     63. D(C   6,C   5,C   4,H  13)     -1.8521         0.000000   
     64. D(C   6,C   5,C   4,H  12)    179.0620         0.000000   
     65. D(H  14,C   5,C   4,H  12)      0.8338         0.000000   
     66. D(H  14,C   5,C   4,H  13)    179.9198         0.000000   
     67. D(H  16,C   6,C   5,H  14)    -49.8194         0.000000   
     68. D(H  16,C   6,C   5,C   4)    131.8821         0.000000   
     69. D(H  15,C   6,C   5,H  14)   -171.4572         0.000000   
     70. D(H  15,C   6,C   5,C   4)     10.2443         0.000000   
     71. D(H  11,C   6,C   5,H  14)     68.8439         0.000000   
     72. D(H  11,C   6,C   5,C   4)   -109.4547         0.000000   
     73. D(H  14,H   8,C   0,H   7)    -98.3475         0.000000   
     74. D(H  14,H   8,C   0,C   1)     81.5705         0.000000   
     75. D(C   6,H  11,O   3,C   2)     -0.2105         0.000000   
     76. D(O   3,H  11,C   2,H  10)   -112.9627         0.000000   
     77. D(O   3,H  11,C   2,C   1)    116.5502         0.000000   
     78. D(C   6,H  11,C   2,H  10)     66.8644         0.000000   
     79. D(C   6,H  11,C   2,O   3)    179.8271         0.000000   
     80. D(C   2,H  11,C   6,C   5)     43.6420         0.000000   
     81. D(C   6,H  11,C   2,C   1)    -63.6227         0.000000   
     82. D(O   3,H  11,C   6,H  16)    164.1031         0.000000   
     83. D(O   3,H  11,C   6,H  15)    -77.5660         0.000000   
     84. D(O   3,H  11,C   6,C   5)     43.7203         0.000000   
     85. D(C   2,H  11,C   6,H  16)    164.0249         0.000000   
     86. D(C   2,H  11,C   6,H  15)    -77.6442         0.000000   
     87. D(C   5,H  14,H   8,C   0)    -67.0095         0.000000   
     88. D(H   8,H  14,C   5,C   6)    -94.5443         0.000000   
     89. D(H   8,H  14,C   5,C   4)     83.8455         0.000000   
    -----------------------------------------------------------------

Number of atoms                         .... 17
Number of degrees of freedom            .... 89

         *************************************************************
         *                GEOMETRY OPTIMIZATION CYCLE   1            *
         *************************************************************
---------------------------------
CARTESIAN COORDINATES (ANGSTROEM)
---------------------------------
  C      2.133099    0.759358   -0.430219
  C      1.984649   -0.103282    0.569112
  C      1.257882   -1.365687    0.386833
  O      0.809521   -1.767360   -0.656658
  C     -0.979745    0.851816    1.333593
  C     -1.345112    0.701138    0.074247
  C     -2.120831   -0.455469   -0.453086
  H      2.655438    1.694218   -0.320654
  H      1.719431    0.533657   -1.399962
  H      2.379134    0.090031    1.555839
  H      1.146574   -1.958286    1.315546
  H     -1.470927   -1.069016   -1.078452
  H     -0.405439    1.699371    1.667700
  H     -1.254499    0.135225    2.090919
  H     -1.054242    1.439378   -0.662680
  H     -2.503664   -1.072064    0.356430
  H     -2.951271   -0.113028   -1.068408

----------------------------
CARTESIAN COORDINATES (A.U.)
----------------------------
  NO LB      ZA    FRAG     MASS         X           Y           Z
   0 C     6.0000    0    12.011    4.030974    1.434979   -0.812996
   1 C     6.0000    0    12.011    3.750444   -0.195175    1.075465
   2 C     6.0000    0    12.011    2.377053   -2.580774    0.731009
   3 O     8.0000    0    15.999    1.529773   -3.339826   -1.240905
   4 C     6.0000    0    12.011   -1.851450    1.609699    2.520125
   5 C     6.0000    0    12.011   -2.541893    1.324959    0.140307
   6 C     6.0000    0    12.011   -4.007789   -0.860711   -0.856209
   7 H     1.0000    0     1.008    5.018050    3.201608   -0.605949
   8 H     1.0000    0     1.008    3.249255    1.008465   -2.645545
   9 H     1.0000    0     1.008    4.495912    0.170134    2.940110
  10 H     1.0000    0     1.008    2.166710   -3.700625    2.486022
  11 H     1.0000    0     1.008   -2.779648   -2.020148   -2.037979
  12 H     1.0000    0     1.008   -0.766169    3.211345    3.151496
  13 H     1.0000    0     1.008   -2.370659    0.255538    3.951265
  14 H     1.0000    0     1.008   -1.992229    2.720031   -1.252284
  15 H     1.0000    0     1.008   -4.731239   -2.025908    0.673555
  16 H     1.0000    0     1.008   -5.577094   -0.213593   -2.018998

--------------------------------
INTERNAL COORDINATES (ANGSTROEM)
--------------------------------
 C      0   0   0     0.000000000000     0.00000000     0.00000000
 C      1   0   0     1.328475426472     0.00000000     0.00000000
 C      2   1   0     1.468019400198   121.35339486     0.00000000
 O      3   2   1     1.204675825630   125.34767103     4.38468267
 C      2   1   3     3.206911032649    95.11905244   278.48436236
 C      5   2   1     1.319904587267    89.68098488    52.07507901
 C      6   5   2     1.489147143851   124.80129223   101.87475898
 H      1   2   3     1.076477616416   122.79116992   179.56922625
 H      1   2   3     1.078176608333   119.85324069   359.65587414
 H      2   1   3     1.080101568515   122.01746288   180.73768770
 H      3   2   1     1.107281391856   113.94432247   184.07255124
 H      7   6   5     1.090824771317   109.23944526   250.54534030
 H      5   2   1     1.076941547905    79.36206819   289.12926491
 H      5   2   1     1.078209411216   101.83275090   174.34912252
 H      6   5   2     1.082897126130   119.80925970   283.64661127
 H      7   6   5     1.087229345754   111.11492507    10.24425878
 H      7   6   5     1.088814482680   110.68012408   131.88209814

---------------------------
INTERNAL COORDINATES (A.U.)
---------------------------
 C      0   0   0     0.000000000000     0.00000000     0.00000000
 C      1   0   0     2.510454731677     0.00000000     0.00000000
 C      2   1   0     2.774154625658   121.35339486     0.00000000
 O      3   2   1     2.276507390595   125.34767103     4.38468267
 C      2   1   3     6.060183587557    95.11905244   278.48436236
 C      5   2   1     2.494258192840    89.68098488    52.07507901
 C      6   5   2     2.814080274989   124.80129223   101.87475898
 H      1   2   3     2.034247884323   122.79116992   179.56922625
 H      1   2   3     2.037458513749   119.85324069   359.65587414
 H      2   1   3     2.041096161312   122.01746288   180.73768770
 H      3   2   1     2.092458583795   113.94432247   184.07255124
 H      7   6   5     2.061360077887   109.23944526   250.54534030
 H      5   2   1     2.035124587782    79.36206819   289.12926491
 H      5   2   1     2.037520502215   101.83275090   174.34912252
 H      6   5   2     2.046378999597   119.80925970   283.64661127
 H      7   6   5     2.054565708237   111.11492507    10.24425878
 H      7   6   5     2.057561182912   110.68012408   131.88209814

---------------------
BASIS SET INFORMATION
---------------------
There are 3 groups of distinct atoms

 Group   1 Type C   : 7s4p1d contracted to 3s2p1d pattern {511/31/1}
 Group   2 Type O   : 7s4p1d contracted to 3s2p1d pattern {511/31/1}
 Group   3 Type H   : 4s1p contracted to 2s1p pattern {31/1}

Atom   0C    basis set group =>   1
Atom   1C    basis set group =>   1
Atom   2C    basis set group =>   1
Atom   3O    basis set group =>   2
Atom   4C    basis set group =>   1
Atom   5C    basis set group =>   1
Atom   6C    basis set group =>   1
Atom   7H    basis set group =>   3
Atom   8H    basis set group =>   3
Atom   9H    basis set group =>   3
Atom  10H    basis set group =>   3
Atom  11H    basis set group =>   3
Atom  12H    basis set group =>   3
Atom  13H    basis set group =>   3
Atom  14H    basis set group =>   3
Atom  15H    basis set group =>   3
Atom  16H    basis set group =>   3
-------------------------------
AUXILIARY BASIS SET INFORMATION
-------------------------------
There are 3 groups of distinct atoms

 Group   1 Type C   : 12s5p4d2f1g contracted to 6s4p3d1f1g pattern {711111/2111/211/2/1}
 Group   2 Type O   : 12s5p4d2f1g contracted to 6s4p3d1f1g pattern {711111/2111/211/2/1}
 Group   3 Type H   : 5s2p1d contracted to 3s1p1d pattern {311/2/1}

Atom   0C    basis set group =>   1
Atom   1C    basis set group =>   1
Atom   2C    basis set group =>   1
Atom   3O    basis set group =>   2
Atom   4C    basis set group =>   1
Atom   5C    basis set group =>   1
Atom   6C    basis set group =>   1
Atom   7H    basis set group =>   3
Atom   8H    basis set group =>   3
Atom   9H    basis set group =>   3
Atom  10H    basis set group =>   3
Atom  11H    basis set group =>   3
Atom  12H    basis set group =>   3
Atom  13H    basis set group =>   3
Atom  14H    basis set group =>   3
Atom  15H    basis set group =>   3
Atom  16H    basis set group =>   3


           ************************************************************
           *        Program running with 8 parallel MPI-processes     *
           *              working on a common directory               *
           ************************************************************
------------------------------------------------------------------------------
                           ORCA GTO INTEGRAL CALCULATION
                           -- RI-GTO INTEGRALS CHOSEN --
------------------------------------------------------------------------------

                         BASIS SET STATISTICS AND STARTUP INFO

Gaussian basis set:
 # of primitive gaussian shells          ...  134
 # of primitive gaussian functions       ...  238
 # of contracted shells                  ...   72
 # of contracted basis functions         ...  148
 Highest angular momentum                ...    2
 Maximum contraction depth               ...    5
Auxiliary gaussian basis set:
 # of primitive gaussian shells          ...  248
 # of primitive gaussian functions       ...  650
 # of contracted shells                  ...  155
 # of contracted aux-basis functions     ...  453
 Highest angular momentum                ...    4
 Maximum contraction depth               ...    7
Ratio of auxiliary to basis functions    ...  3.06
Integral package used                  ... LIBINT
 One Electron integrals                  ... done
 Ordering auxiliary basis shells         ... done
 Integral threshhold             Thresh  ...  2.500e-11
 Primitive cut-off               TCut    ...  2.500e-12
 Pre-screening matrix                    ... done
 Shell pair data                         ... 
 Ordering of the shell pairs             ... done (   0.000 sec) 2532 of 2628 pairs
 Determination of significant pairs      ... done (   0.000 sec)
 Creation of shell pair data             ... done (   0.000 sec)
 Storage of shell pair data              ... done (   0.024 sec)
 Shell pair data done in (   0.025 sec)
 Computing two index integrals           ... done
 Cholesky decomposition of the V-matrix  ... done


Timings:
 Total evaluation time                   ...   0.208 sec (  0.003 min)
 One electron matrix time                ...   0.016 sec (  0.000 min) =  7.9%
 Schwartz matrix evaluation time         ...   0.133 sec (  0.002 min) = 63.8%
 Two index repulsion integral time       ...   0.005 sec (  0.000 min) =  2.4%
 Cholesky decomposition of V             ...   0.004 sec (  0.000 min) =  2.1%
 Three index repulsion integral time     ...   0.000 sec (  0.000 min) =  0.0%



           ************************************************************
           *        Program running with 8 parallel MPI-processes     *
           *              working on a common directory               *
           ************************************************************
-------------------------------------------------------------------------------
                                 ORCA SCF
-------------------------------------------------------------------------------

------------
SCF SETTINGS
------------
Hamiltonian:
 Density Functional     Method          .... DFT(GTOs)
 Exchange Functional    Exchange        .... PBE
   PBE kappa parameter   XKappa         ....  0.804000
   PBE mue parameter    XMuePBE         ....  0.219520
 Correlation Functional Correlation     .... PBE
   PBE beta parameter  CBetaPBE         ....  0.066725
 LDA part of GGA corr.  LDAOpt          .... PW91-LDA
 Gradients option       PostSCFGGA      .... off
 Hybrid DFT is turned on
   Fraction HF Exchange ScalHFX         ....  0.250000
   Scaling of DF-GGA-X  ScalDFX         ....  0.750000
   Scaling of DF-GGA-C  ScalDFC         ....  1.000000
   Scaling of DF-LDA-C  ScalLDAC        ....  1.000000
   Perturbative correction              ....  0.000000
   Density functional embedding theory  .... OFF
   NL short-range parameter             ....  6.900000
 RI-approximation to the Coulomb term is turned on
   Number of auxiliary basis functions  .... 453
   RIJ-COSX (HFX calculated with COS-X)).... on


General Settings:
 Integral files         IntName         .... xtb2d_ts_guess_orca_opt
 Hartree-Fock type      HFTyp           .... RHF
 Total Charge           Charge          ....    0
 Multiplicity           Mult            ....    1
 Number of Electrons    NEL             ....   54
 Basis Dimension        Dim             ....  148
 Nuclear Repulsion      ENuc            ....    280.9614491816 Eh

Convergence Acceleration:
 DIIS                   CNVDIIS         .... on
   Start iteration      DIISMaxIt       ....    12
   Startup error        DIISStart       ....  0.200000
   # of expansion vecs  DIISMaxEq       ....     5
   Bias factor          DIISBfac        ....   1.050
   Max. coefficient     DIISMaxC        ....  10.000
 Newton-Raphson         CNVNR           .... off
 SOSCF                  CNVSOSCF        .... on
   Start iteration      SOSCFMaxIt      ....   150
   Startup grad/error   SOSCFStart      ....  0.003300
 Level Shifting         CNVShift        .... on
   Level shift para.    LevelShift      ....    0.2500
   Turn off err/grad.   ShiftErr        ....    0.0010
 Zerner damping         CNVZerner       .... off
 Static damping         CNVDamp         .... on
   Fraction old density DampFac         ....    0.7000
   Max. Damping (<1)    DampMax         ....    0.9800
   Min. Damping (>=0)   DampMin         ....    0.0000
   Turn off err/grad.   DampErr         ....    0.1000
 Fernandez-Rico         CNVRico         .... off

SCF Procedure:
 Maximum # iterations   MaxIter         ....   250
 SCF integral mode      SCFMode         .... Direct
   Integral package                     .... LIBINT
 Reset frequency        DirectResetFreq ....    20
 Integral Threshold     Thresh          ....  2.500e-11 Eh
 Primitive CutOff       TCut            ....  2.500e-12 Eh

Convergence Tolerance:
 Convergence Check Mode ConvCheckMode   .... Total+1el-Energy
 Convergence forced     ConvForced      .... 0
 Energy Change          TolE            ....  1.000e-08 Eh
 1-El. energy change                    ....  1.000e-05 Eh
 Orbital Gradient       TolG            ....  1.000e-05
 Orbital Rotation angle TolX            ....  1.000e-05
 DIIS Error             TolErr          ....  5.000e-07


Diagonalization of the overlap matrix:
Smallest eigenvalue                        ... 1.820e-03
Time for diagonalization                   ...    0.005 sec
Threshold for overlap eigenvalues          ... 1.000e-08
Number of eigenvalues below threshold      ... 0
Time for construction of square roots      ...    0.002 sec
Total time needed                          ...    0.008 sec

-------------------
DFT GRID GENERATION
-------------------

General Integration Accuracy     IntAcc      ...  4.340
Radial Grid Type                 RadialGrid  ... Gauss-Chebyshev
Angular Grid (max. acc.)         AngularGrid ... Lebedev-110
Angular grid pruning method      GridPruning ... 3 (G Style)
Weight generation scheme         WeightScheme... Becke
Basis function cutoff            BFCut       ...    1.0000e-11
Integration weight cutoff        WCut        ...    1.0000e-14
Grids for H and He will be reduced by one unit

# of grid points (after initial pruning)     ...  19592 (   0.0 sec)
# of grid points (after weights+screening)   ...  18140 (   0.0 sec)
nearest neighbour list constructed           ...    0.0 sec
Grid point re-assignment to atoms done       ...    0.0 sec
Grid point division into batches done        ...    0.0 sec
Reduced shell lists constructed in    0.0 sec

Total number of grid points                  ...    18140
Total number of batches                      ...      292
Average number of points per batch           ...       62
Average number of grid points per atom       ...     1067
Average number of shells per batch           ...    57.53 (79.90%)
Average number of basis functions per batch  ...   117.05 (79.09%)
Average number of large shells per batch     ...    45.61 (79.28%)
Average number of large basis fcns per batch ...    90.45 (77.27%)
Maximum spatial batch extension              ...  17.11, 10.70,  6.32 au
Average spatial batch extension              ...   0.34,  0.29,  0.25 au

Time for grid setup =    0.057 sec

------------------------------
INITIAL GUESS: MODEL POTENTIAL
------------------------------
Loading Hartree-Fock densities                     ... done
Calculating cut-offs                               ... done
Setting up the integral package                    ... done
Initializing the effective Hamiltonian             ... done
Starting the Coulomb interaction                   ... done (   0.0 sec)
Reading the grid                                   ... done
Mapping shells                                     ... done
Starting the XC term evaluation                    ... done (   0.0 sec)
  promolecular density results
     # of electrons  =     53.995367051
     EX              =    -41.702689200
     EC              =     -1.728622274
     EX+EC           =    -43.431311474
Transforming the Hamiltonian                       ... done (   0.0 sec)
Diagonalizing the Hamiltonian                      ... done (   0.0 sec)
Back transforming the eigenvectors                 ... done (   0.0 sec)
Now organizing SCF variables                       ... done
                      ------------------
                      INITIAL GUESS DONE (   0.2 sec)
                      ------------------
--------------------
COSX GRID GENERATION
--------------------

General Integration Accuracy     IntAcc      ...  3.340
Radial Grid Type                 RadialGrid  ... Gauss-Chebyshev
Angular Grid (max. acc.)         AngularGrid ... Lebedev-50
Angular grid pruning method      GridPruning ... 3 (G Style)
Weight generation scheme         WeightScheme... Becke
Basis function cutoff            BFCut       ...    1.0000e-11
Integration weight cutoff        WCut        ...    1.0000e-14
Grids for H and He will be reduced by one unit

# of grid points (after initial pruning)     ...   7260 (   0.0 sec)
# of grid points (after weights+screening)   ...   6763 (   0.0 sec)
nearest neighbour list constructed           ...    0.0 sec
Grid point re-assignment to atoms done       ...    0.0 sec
Grid point division into batches done        ...    0.0 sec
Reduced shell lists constructed in    0.0 sec

Total number of grid points                  ...     6763
Total number of batches                      ...      116
Average number of points per batch           ...       58
Average number of grid points per atom       ...      398
Average number of shells per batch           ...    57.25 (79.51%)
Average number of basis functions per batch  ...   116.88 (78.97%)
Average number of large shells per batch     ...    46.00 (80.35%)
Average number of large basis fcns per batch ...    90.50 (77.43%)
Maximum spatial batch extension              ...   9.91,  5.53,  4.47 au
Average spatial batch extension              ...   0.41,  0.31,  0.32 au

Overlap Fitting                  UseSFitting ... on
Constructing numerical overlap ... done (      0.0 sec)
Inverting numerical overlap    ... done (      0.0 sec)
Obtaining analytic overlap     ... done (      0.0 sec)
Final contraction and storage  ... done (      0.0 sec)


General Integration Accuracy     IntAcc      ...  3.670
Radial Grid Type                 RadialGrid  ... Gauss-Chebyshev
Angular Grid (max. acc.)         AngularGrid ... Lebedev-50
Angular grid pruning method      GridPruning ... 3 (G Style)
Weight generation scheme         WeightScheme... Becke
Basis function cutoff            BFCut       ...    1.0000e-11
Integration weight cutoff        WCut        ...    1.0000e-14
Grids for H and He will be reduced by one unit

# of grid points (after initial pruning)     ...   9326 (   0.0 sec)
# of grid points (after weights+screening)   ...   8653 (   0.0 sec)
nearest neighbour list constructed           ...    0.0 sec
Grid point re-assignment to atoms done       ...    0.0 sec
Grid point division into batches done        ...    0.0 sec
Reduced shell lists constructed in    0.0 sec

Total number of grid points                  ...     8653
Total number of batches                      ...      143
Average number of points per batch           ...       60
Average number of grid points per atom       ...      509
Average number of shells per batch           ...    57.68 (80.12%)
Average number of basis functions per batch  ...   117.79 (79.59%)
Average number of large shells per batch     ...    45.95 (79.65%)
Average number of large basis fcns per batch ...    91.21 (77.44%)
Maximum spatial batch extension              ...  11.07,  6.55,  4.64 au
Average spatial batch extension              ...   0.42,  0.29,  0.27 au

Overlap Fitting                  UseSFitting ... on
Constructing numerical overlap ... done (      0.0 sec)
Inverting numerical overlap    ... done (      0.0 sec)
Obtaining analytic overlap     ... done (      0.0 sec)
Final contraction and storage  ... done (      0.0 sec)


General Integration Accuracy     IntAcc      ...  4.010
Radial Grid Type                 RadialGrid  ... Gauss-Chebyshev
Angular Grid (max. acc.)         AngularGrid ... Lebedev-110
Angular grid pruning method      GridPruning ... 3 (G Style)
Weight generation scheme         WeightScheme... Becke
Basis function cutoff            BFCut       ...    1.0000e-11
Integration weight cutoff        WCut        ...    1.0000e-14
Grids for H and He will be reduced by one unit

# of grid points (after initial pruning)     ...  16910 (   0.0 sec)
# of grid points (after weights+screening)   ...  15693 (   0.0 sec)
nearest neighbour list constructed           ...    0.0 sec
Grid point re-assignment to atoms done       ...    0.0 sec
Grid point division into batches done        ...    0.0 sec
Reduced shell lists constructed in    0.0 sec

Total number of grid points                  ...    15693
Total number of batches                      ...      252
Average number of points per batch           ...       62
Average number of grid points per atom       ...      923
Average number of shells per batch           ...    57.61 (80.01%)
Average number of basis functions per batch  ...   117.36 (79.30%)
Average number of large shells per batch     ...    46.24 (80.27%)
Average number of large basis fcns per batch ...    92.30 (78.65%)
Maximum spatial batch extension              ...  17.33, 10.48,  5.65 au
Average spatial batch extension              ...   0.37,  0.31,  0.28 au

Overlap Fitting                  UseSFitting ... on
Constructing numerical overlap ... done (      0.0 sec)
Inverting numerical overlap    ... done (      0.0 sec)
Obtaining analytic overlap     ... done (      0.0 sec)
Final contraction and storage  ... done (      0.0 sec)

Time for X-Grid setup             =    0.175 sec
--------------
SCF ITERATIONS
--------------
ITER       Energy         Delta-E        Max-DP      RMS-DP      [F,P]     Damp
               ***  Starting incremental Fock matrix formation  ***
  0   -308.9988810613   0.000000000000 0.10532680  0.00257290  0.2162007 0.7000
  1   -309.0951586225  -0.096277561186 0.06789205  0.00173131  0.0874852 0.7000
                               ***Turning on DIIS***
  2   -309.1347476385  -0.039589015957 0.06569005  0.00268351  0.0390983 0.0000
  3   -309.1949143910  -0.060166752492 0.05614107  0.00128555  0.0428364 0.0000
  4   -309.2085400202  -0.013625629250 0.01052958  0.00035367  0.0104591 0.0000
  5   -309.2093884212  -0.000848400972 0.00468984  0.00011931  0.0064160 0.0000
                      *** Initiating the SOSCF procedure ***
                           *** Shutting down DIIS ***
                      *** Re-Reading the Fockian *** 
                      *** Removing any level shift *** 
ITER      Energy       Delta-E        Grad      Rot      Max-DP    RMS-DP
  6   -309.20946290  -0.0000744797  0.000207  0.000207  0.002253  0.000058
               *** Restarting incremental Fock matrix formation ***
  7   -309.20945568   0.0000072195  0.000179  0.000621  0.000600  0.000017
  8   -309.20945492   0.0000007616  0.000304  0.000394  0.000386  0.000011
  9   -309.20945616  -0.0000012356  0.000024  0.000053  0.000153  0.000003
 10   -309.20945613   0.0000000206  0.000032  0.000035  0.000113  0.000002
 11   -309.20945617  -0.0000000345  0.000007  0.000016  0.000041  0.000001
 12   -309.20945616   0.0000000064  0.000007  0.000008  0.000024  0.000000
                  ***Gradient check signals convergence***
              ***Rediagonalizing the Fockian in SOSCF/NRSCF***

               *****************************************************
               *                     SUCCESS                       *
               *           SCF CONVERGED AFTER  13 CYCLES          *
               *****************************************************

Setting up the final grid:

General Integration Accuracy     IntAcc      ...  4.670
Radial Grid Type                 RadialGrid  ... Gauss-Chebyshev
Angular Grid (max. acc.)         AngularGrid ... Lebedev-302
Angular grid pruning method      GridPruning ... 3 (G Style)
Weight generation scheme         WeightScheme... Becke
Basis function cutoff            BFCut       ...    1.0000e-11
Integration weight cutoff        WCut        ...    1.0000e-14
Grids for H and He will be reduced by one unit

# of grid points (after initial pruning)     ...  77424 (   0.0 sec)
# of grid points (after weights+screening)   ...  70737 (   0.1 sec)
nearest neighbour list constructed           ...    0.0 sec
Grid point re-assignment to atoms done       ...    0.0 sec
Grid point division into batches done        ...    0.2 sec
Reduced shell lists constructed in    0.2 sec

Total number of grid points                  ...    70737
Total number of batches                      ...     1115
Average number of points per batch           ...       63
Average number of grid points per atom       ...     4161
Average number of shells per batch           ...    56.18 (78.02%)
Average number of basis functions per batch  ...   112.59 (76.07%)
Average number of large shells per batch     ...    44.05 (78.41%)
Average number of large basis fcns per batch ...    86.90 (77.18%)
Maximum spatial batch extension              ...  16.71,  9.36,  5.43 au
Average spatial batch extension              ...   0.18,  0.17,  0.16 au

Final grid set up in    0.4 sec
Final integration                            ... done (   0.1 sec)
Change in XC energy                          ...     0.000257392
Integrated number of electrons               ...    54.000096180
Previous integrated no of electrons          ...    54.000381279
Old exchange energy                            =    -10.691074502 Eh
New exchange energy                            =    -10.691214244 Eh
Exchange energy change after final integration =     -0.000139742 Eh
Total energy after final integration           =   -309.209338519 Eh
Final COS-X integration done in                =     0.447 sec

----------------
TOTAL SCF ENERGY
----------------

Total Energy       :         -309.20933852 Eh           -8414.01386 eV

Components:
Nuclear Repulsion  :          280.96144918 Eh            7645.34971 eV
Electronic Energy  :         -590.17078770 Eh          -16059.36358 eV
One Electron Energy:         -974.23770983 Eh          -26510.35585 eV
Two Electron Energy:          384.06692213 Eh           10450.99227 eV

Virial components:
Potential Energy   :         -615.57493694 Eh          -16750.64562 eV
Kinetic Energy     :          306.36559842 Eh            8336.63176 eV
Virial Ratio       :            2.00928218


DFT components:
N(Alpha)           :       27.000048089980 electrons
N(Beta)            :       27.000048089980 electrons
N(Total)           :       54.000096179961 electrons
E(X)               :      -31.960014395547 Eh       
E(C)               :       -1.753119623615 Eh       
E(XC)              :      -33.713134019162 Eh       
DFET-embed. en.    :        0.000000000000 Eh       

---------------
SCF CONVERGENCE
---------------

  Last Energy change         ...   -4.9010e-09  Tolerance :   1.0000e-08
  Last MAX-Density change    ...    2.6645e-15  Tolerance :   1.0000e-07
  Last RMS-Density change    ...    3.8200e-17  Tolerance :   5.0000e-09
  Last Orbital Gradient      ...    2.6135e-07  Tolerance :   1.0000e-05
  Last Orbital Rotation      ...    9.9398e-07  Tolerance :   1.0000e-05

             **** THE GBW FILE WAS UPDATED (xtb2d_ts_guess_orca_opt.gbw) ****
             **** DENSITY FILE WAS UPDATED (xtb2d_ts_guess_orca_opt.scfp.tmp) ****
             **** ENERGY FILE WAS UPDATED (xtb2d_ts_guess_orca_opt.en.tmp) ****
----------------
ORBITAL ENERGIES
----------------

  NO   OCC          E(Eh)            E(eV) 
   0   2.0000     -19.207856      -522.6723 
   1   2.0000     -10.319042      -280.7954 
   2   2.0000     -10.255124      -279.0561 
   3   2.0000     -10.246757      -278.8284 
   4   2.0000     -10.231674      -278.4180 
   5   2.0000     -10.218008      -278.0461 
   6   2.0000     -10.217734      -278.0387 
   7   2.0000      -1.065860       -29.0035 
   8   2.0000      -0.812502       -22.1093 
   9   2.0000      -0.801418       -21.8077 
  10   2.0000      -0.694627       -18.9018 
  11   2.0000      -0.673522       -18.3275 
  12   2.0000      -0.563090       -15.3225 
  13   2.0000      -0.555024       -15.1030 
  14   2.0000      -0.527810       -14.3625 
  15   2.0000      -0.479262       -13.0414 
  16   2.0000      -0.466420       -12.6919 
  17   2.0000      -0.442733       -12.0474 
  18   2.0000      -0.432394       -11.7660 
  19   2.0000      -0.431758       -11.7487 
  20   2.0000      -0.403036       -10.9672 
  21   2.0000      -0.395890       -10.7727 
  22   2.0000      -0.376822       -10.2539 
  23   2.0000      -0.351923        -9.5763 
  24   2.0000      -0.306823        -8.3491 
  25   2.0000      -0.272212        -7.4073 
  26   2.0000      -0.261142        -7.1060 
  27   0.0000      -0.066801        -1.8177 
  28   0.0000       0.026814         0.7296 
  29   0.0000       0.070771         1.9258 
  30   0.0000       0.077678         2.1137 
  31   0.0000       0.089862         2.4453 
  32   0.0000       0.103581         2.8186 
  33   0.0000       0.125123         3.4048 
  34   0.0000       0.131577         3.5804 
  35   0.0000       0.139926         3.8076 
  36   0.0000       0.159134         4.3303 
  37   0.0000       0.173100         4.7103 
  38   0.0000       0.177944         4.8421 
  39   0.0000       0.195840         5.3291 
  40   0.0000       0.245585         6.6827 
  41   0.0000       0.279941         7.6176 
  42   0.0000       0.310935         8.4610 
  43   0.0000       0.322687         8.7808 
  44   0.0000       0.368192        10.0190 
  45   0.0000       0.376910        10.2563 
  46   0.0000       0.402135        10.9426 
  47   0.0000       0.424962        11.5638 
  48   0.0000       0.446225        12.1424 
  49   0.0000       0.461750        12.5648 
  50   0.0000       0.467227        12.7139 
  51   0.0000       0.500500        13.6193 
  52   0.0000       0.524108        14.2617 
  53   0.0000       0.528692        14.3865 
  54   0.0000       0.558070        15.1859 
  55   0.0000       0.595258        16.1978 
  56   0.0000       0.607132        16.5209 
  57   0.0000       0.621119        16.9015 
  58   0.0000       0.642393        17.4804 
  59   0.0000       0.654532        17.8107 
  60   0.0000       0.664924        18.0935 
  61   0.0000       0.678474        18.4622 
  62   0.0000       0.681939        18.5565 
  63   0.0000       0.691827        18.8256 
  64   0.0000       0.697289        18.9742 
  65   0.0000       0.704553        19.1719 
  66   0.0000       0.711722        19.3669 
  67   0.0000       0.720663        19.6102 
  68   0.0000       0.730879        19.8882 
  69   0.0000       0.740188        20.1415 
  70   0.0000       0.745893        20.2968 
  71   0.0000       0.794287        21.6137 
  72   0.0000       0.826595        22.4928 
  73   0.0000       0.857790        23.3417 
  74   0.0000       0.898184        24.4408 
  75   0.0000       0.924928        25.1686 
  76   0.0000       0.936581        25.4857 
  77   0.0000       1.022711        27.8294 
  78   0.0000       1.102420        29.9984 
  79   0.0000       1.137345        30.9487 
  80   0.0000       1.152476        31.3605 
  81   0.0000       1.175685        31.9920 
  82   0.0000       1.192566        32.4514 
  83   0.0000       1.210454        32.9381 
  84   0.0000       1.241649        33.7870 
  85   0.0000       1.250209        34.0199 
  86   0.0000       1.275647        34.7121 
  87   0.0000       1.309491        35.6331 
  88   0.0000       1.389918        37.8216 
  89   0.0000       1.457470        39.6598 
  90   0.0000       1.485432        40.4207 
  91   0.0000       1.563616        42.5482 
  92   0.0000       1.589595        43.2551 
  93   0.0000       1.615066        43.9482 
  94   0.0000       1.648258        44.8514 
  95   0.0000       1.671498        45.4838 
  96   0.0000       1.678469        45.6735 
  97   0.0000       1.696882        46.1745 
  98   0.0000       1.728262        47.0284 
  99   0.0000       1.741759        47.3957 
 100   0.0000       1.745248        47.4906 
 101   0.0000       1.774641        48.2904 
 102   0.0000       1.798632        48.9433 
 103   0.0000       1.809267        49.2327 
 104   0.0000       1.834489        49.9190 
 105   0.0000       1.838705        50.0337 
 106   0.0000       1.855499        50.4907 
 107   0.0000       1.873737        50.9870 
 108   0.0000       1.905398        51.8485 
 109   0.0000       1.938279        52.7432 
 110   0.0000       1.957698        53.2717 
 111   0.0000       1.971955        53.6596 
 112   0.0000       1.993213        54.2381 
 113   0.0000       2.023743        55.0688 
 114   0.0000       2.066009        56.2190 
 115   0.0000       2.118188        57.6388 
 116   0.0000       2.141703        58.2787 
 117   0.0000       2.178555        59.2815 
 118   0.0000       2.193997        59.7017 
 119   0.0000       2.267725        61.7079 
 120   0.0000       2.270846        61.7929 
 121   0.0000       2.331372        63.4399 
 122   0.0000       2.354407        64.0667 
 123   0.0000       2.379837        64.7587 
 124   0.0000       2.450344        66.6773 
 125   0.0000       2.473916        67.3187 
 126   0.0000       2.510120        68.3038 
 127   0.0000       2.520176        68.5775 
 128   0.0000       2.548306        69.3429 
 129   0.0000       2.570813        69.9554 
 130   0.0000       2.611991        71.0759 
 131   0.0000       2.646003        72.0014 
 132   0.0000       2.724307        74.1322 
 133   0.0000       2.758702        75.0681 
 134   0.0000       2.773321        75.4659 
 135   0.0000       2.823456        76.8301 
 136   0.0000       2.837267        77.2060 
 137   0.0000       2.873475        78.1912 
 138   0.0000       2.904383        79.0323 
 139   0.0000       2.979445        81.0748 
 140   0.0000       3.013234        81.9943 
 141   0.0000       3.109824        84.6226 
 142   0.0000       3.128923        85.1423 
 143   0.0000       3.175648        86.4138 
 144   0.0000       3.212733        87.4229 
 145   0.0000       3.359435        91.4149 
 146   0.0000       3.541882        96.3795 
 147   0.0000       3.652602        99.3924 

                    ********************************
                    * MULLIKEN POPULATION ANALYSIS *
                    ********************************

-----------------------
MULLIKEN ATOMIC CHARGES
-----------------------
   0 C :    0.008179
   1 C :   -0.125765
   2 C :    0.187681
   3 O :   -0.226743
   4 C :   -0.071211
   5 C :   -0.152996
   6 C :   -0.025603
   7 H :    0.058675
   8 H :    0.065477
   9 H :    0.029074
  10 H :    0.007800
  11 H :    0.076834
  12 H :    0.032604
  13 H :    0.031082
  14 H :    0.028138
  15 H :    0.033040
  16 H :    0.043732
Sum of atomic charges:   -0.0000000

--------------------------------
MULLIKEN REDUCED ORBITAL CHARGES
--------------------------------
  0 C s       :     3.116842  s :     3.116842
      pz      :     0.994538  p :     2.848115
      px      :     0.903830
      py      :     0.949748
      dz2     :     0.008610  d :     0.026863
      dxz     :     0.004925
      dyz     :     0.006249
      dx2y2   :     0.002907
      dxy     :     0.004172
  1 C s       :     3.155090  s :     3.155090
      pz      :     0.959631  p :     2.938276
      px      :     0.991781
      py      :     0.986864
      dz2     :     0.009853  d :     0.032399
      dxz     :     0.005179
      dyz     :     0.007476
      dx2y2   :     0.004453
      dxy     :     0.005439
  2 C s       :     3.131642  s :     3.131642
      pz      :     0.906687  p :     2.590309
      px      :     0.791316
      py      :     0.892305
      dz2     :     0.028299  d :     0.090369
      dxz     :     0.014913
      dyz     :     0.027324
      dx2y2   :     0.008836
      dxy     :     0.010996
  3 O s       :     3.772885  s :     3.772885
      pz      :     1.423359  p :     4.435236
      px      :     1.360919
      py      :     1.650958
      dz2     :     0.005682  d :     0.018622
      dxz     :     0.005323
      dyz     :     0.004848
      dx2y2   :     0.001556
      dxy     :     0.001212
  4 C s       :     3.093742  s :     3.093742
      pz      :     0.982857  p :     2.950394
      px      :     1.007951
      py      :     0.959586
      dz2     :     0.007393  d :     0.027075
      dxz     :     0.006259
      dyz     :     0.009889
      dx2y2   :     0.001233
      dxy     :     0.002302
  5 C s       :     3.173117  s :     3.173117
      pz      :     0.993991  p :     2.941478
      px      :     0.962741
      py      :     0.984746
      dz2     :     0.008212  d :     0.038401
      dxz     :     0.008808
      dyz     :     0.013024
      dx2y2   :     0.004289
      dxy     :     0.004068
  6 C s       :     2.985096  s :     2.985096
      pz      :     1.024732  p :     3.012593
      px      :     1.004780
      py      :     0.983081
      dz2     :     0.002069  d :     0.027914
      dxz     :     0.007413
      dyz     :     0.007621
      dx2y2   :     0.003875
      dxy     :     0.006936
  7 H s       :     0.916163  s :     0.916163
      pz      :     0.004575  p :     0.025162
      px      :     0.007447
      py      :     0.013140
  8 H s       :     0.909128  s :     0.909128
      pz      :     0.013899  p :     0.025395
      px      :     0.006188
      py      :     0.005307
  9 H s       :     0.946993  s :     0.946993
      pz      :     0.013872  p :     0.023932
      px      :     0.006037
      py      :     0.004023
 10 H s       :     0.972325  s :     0.972325
      pz      :     0.010820  p :     0.019875
      px      :     0.002463
      py      :     0.006592
 11 H s       :     0.897185  s :     0.897185
      pz      :     0.008249  p :     0.025981
      px      :     0.009479
      py      :     0.008253
 12 H s       :     0.942399  s :     0.942399
      pz      :     0.005324  p :     0.024997
      px      :     0.008129
      py      :     0.011543
 13 H s       :     0.943806  s :     0.943806
      pz      :     0.009702  p :     0.025113
      px      :     0.005837
      py      :     0.009574
 14 H s       :     0.948457  s :     0.948457
      pz      :     0.009160  p :     0.023404
      px      :     0.005084
      py      :     0.009160
 15 H s       :     0.942627  s :     0.942627
      pz      :     0.010315  p :     0.024333
      px      :     0.006203
      py      :     0.007814
 16 H s       :     0.931568  s :     0.931568
      pz      :     0.008243  p :     0.024700
      px      :     0.010829
      py      :     0.005628


                     *******************************
                     * LOEWDIN POPULATION ANALYSIS *
                     *******************************

----------------------
LOEWDIN ATOMIC CHARGES
----------------------
   0 C :    0.030299
   1 C :   -0.088354
   2 C :    0.109821
   3 O :   -0.141125
   4 C :   -0.082324
   5 C :   -0.024437
   6 C :   -0.070983
   7 H :    0.032734
   8 H :    0.035007
   9 H :    0.031019
  10 H :   -0.005448
  11 H :    0.043001
  12 H :    0.020906
  13 H :    0.019499
  14 H :    0.025051
  15 H :    0.030890
  16 H :    0.034445

-------------------------------
LOEWDIN REDUCED ORBITAL CHARGES
-------------------------------
  0 C s       :     2.883217  s :     2.883217
      pz      :     1.070436  p :     3.015622
      px      :     0.919716
      py      :     1.025470
      dz2     :     0.023264  d :     0.070862
      dxz     :     0.011472
      dyz     :     0.018233
      dx2y2   :     0.007590
      dxy     :     0.010304
  1 C s       :     2.887343  s :     2.887343
      pz      :     1.066472  p :     3.112963
      px      :     0.993671
      py      :     1.052821
      dz2     :     0.027345  d :     0.088048
      dxz     :     0.012242
      dyz     :     0.022190
      dx2y2   :     0.011614
      dxy     :     0.014657
  2 C s       :     2.884920  s :     2.884920
      pz      :     1.001826  p :     2.795581
      px      :     0.818534
      py      :     0.975221
      dz2     :     0.070704  d :     0.209678
      dxz     :     0.031736
      dyz     :     0.063147
      dx2y2   :     0.017621
      dxy     :     0.026470
  3 O s       :     3.547092  s :     3.547092
      pz      :     1.540174  p :     4.562545
      px      :     1.371370
      py      :     1.651001
      dz2     :     0.010582  d :     0.031488
      dxz     :     0.008668
      dyz     :     0.008280
      dx2y2   :     0.001856
      dxy     :     0.002103
  4 C s       :     2.876495  s :     2.876495
      pz      :     1.074238  p :     3.133435
      px      :     1.023666
      py      :     1.035531
      dz2     :     0.021018  d :     0.072394
      dxz     :     0.015313
      dyz     :     0.026736
      dx2y2   :     0.002818
      dxy     :     0.006510
  5 C s       :     2.872324  s :     2.872324
      pz      :     1.089123  p :     3.058180
      px      :     0.959746
      py      :     1.009311
      dz2     :     0.023250  d :     0.093932
      dxz     :     0.020063
      dyz     :     0.032754
      dx2y2   :     0.008448
      dxy     :     0.009416
  6 C s       :     2.829118  s :     2.829118
      pz      :     1.064849  p :     3.168695
      px      :     1.057121
      py      :     1.046725
      dz2     :     0.004884  d :     0.073171
      dxz     :     0.019661
      dyz     :     0.020435
      dx2y2   :     0.009151
      dxy     :     0.019040
  7 H s       :     0.895794  s :     0.895794
      pz      :     0.013513  p :     0.071472
      px      :     0.021198
      py      :     0.036762
  8 H s       :     0.892106  s :     0.892106
      pz      :     0.039243  p :     0.072887
      px      :     0.018509
      py      :     0.015135
  9 H s       :     0.897771  s :     0.897771
      pz      :     0.038077  p :     0.071209
      px      :     0.018873
      py      :     0.014259
 10 H s       :     0.940365  s :     0.940365
      pz      :     0.035892  p :     0.065084
      px      :     0.008583
      py      :     0.020609
 11 H s       :     0.886184  s :     0.886184
      pz      :     0.022590  p :     0.070816
      px      :     0.025190
      py      :     0.023036
 12 H s       :     0.907914  s :     0.907914
      pz      :     0.014284  p :     0.071180
      px      :     0.023868
      py      :     0.033029
 13 H s       :     0.909315  s :     0.909315
      pz      :     0.026186  p :     0.071186
      px      :     0.017495
      py      :     0.027505
 14 H s       :     0.905919  s :     0.905919
      pz      :     0.025320  p :     0.069029
      px      :     0.015890
      py      :     0.027819
 15 H s       :     0.902030  s :     0.902030
      pz      :     0.028414  p :     0.067080
      px      :     0.016348
      py      :     0.022319
 16 H s       :     0.897707  s :     0.897707
      pz      :     0.022325  p :     0.067848
      px      :     0.029459
      py      :     0.016065


                      *****************************
                      * MAYER POPULATION ANALYSIS *
                      *****************************

  NA   - Mulliken gross atomic population
  ZA   - Total nuclear charge
  QA   - Mulliken gross atomic charge
  VA   - Mayer's total valence
  BVA  - Mayer's bonded valence
  FA   - Mayer's free valence

  ATOM       NA         ZA         QA         VA         BVA        FA
  0 C      5.9918     6.0000     0.0082     3.9444     3.9444    -0.0000
  1 C      6.1258     6.0000    -0.1258     3.8929     3.8929    -0.0000
  2 C      5.8123     6.0000     0.1877     4.0554     4.0554     0.0000
  3 O      8.2267     8.0000    -0.2267     2.2311     2.2311     0.0000
  4 C      6.0712     6.0000    -0.0712     3.9509     3.9509    -0.0000
  5 C      6.1530     6.0000    -0.1530     4.1285     4.1285    -0.0000
  6 C      6.0256     6.0000    -0.0256     3.9160     3.9160    -0.0000
  7 H      0.9413     1.0000     0.0587     0.9748     0.9748     0.0000
  8 H      0.9345     1.0000     0.0655     0.9990     0.9990    -0.0000
  9 H      0.9709     1.0000     0.0291     0.9859     0.9859     0.0000
 10 H      0.9922     1.0000     0.0078     0.9725     0.9725     0.0000
 11 H      0.9232     1.0000     0.0768     1.0083     1.0083    -0.0000
 12 H      0.9674     1.0000     0.0326     0.9803     0.9803     0.0000
 13 H      0.9689     1.0000     0.0311     0.9876     0.9876     0.0000
 14 H      0.9719     1.0000     0.0281     0.9825     0.9825    -0.0000
 15 H      0.9670     1.0000     0.0330     0.9971     0.9971    -0.0000
 16 H      0.9563     1.0000     0.0437     0.9818     0.9818    -0.0000

  Mayer bond orders larger than 0.1
B(  0-C ,  1-C ) :   1.9382 B(  0-C ,  7-H ) :   0.9557 B(  0-C ,  8-H ) :   0.9449 
B(  1-C ,  2-C ) :   1.0071 B(  1-C ,  9-H ) :   0.9556 B(  2-C ,  3-O ) :   2.0713 
B(  2-C , 10-H ) :   0.9440 B(  4-C ,  5-C ) :   2.0101 B(  4-C , 12-H ) :   0.9539 
B(  4-C , 13-H ) :   0.9567 B(  5-C ,  6-C ) :   1.0725 B(  5-C , 14-H ) :   0.9606 
B(  6-C , 11-H ) :   0.9433 B(  6-C , 15-H ) :   0.9691 B(  6-C , 16-H ) :   0.9557 


-------
TIMINGS
-------

Total SCF time: 0 days 0 hours 0 min 7 sec 

Total time                  ....       7.681 sec
Sum of individual times     ....       7.537 sec  ( 98.1%)

Fock matrix formation       ....       6.720 sec  ( 87.5%)
  Split-RI-J                ....       1.912 sec  ( 28.5% of F)
  Chain of spheres X        ....       4.178 sec  ( 62.2% of F)
  COS-X 1 center corr.      ....       0.000 sec  (  0.0% of F)
  XC integration            ....       0.560 sec  (  8.3% of F)
    Basis function eval.    ....       0.126 sec  ( 22.5% of XC)
    Density eval.           ....       0.054 sec  (  9.6% of XC)
    XC-Functional eval.     ....       0.025 sec  (  4.5% of XC)
    XC-Potential eval.      ....       0.081 sec  ( 14.4% of XC)
Diagonalization             ....       0.016 sec  (  0.2%)
Density matrix formation    ....       0.009 sec  (  0.1%)
Population analysis         ....       0.004 sec  (  0.1%)
Initial guess               ....       0.145 sec  (  1.9%)
Orbital Transformation      ....       0.000 sec  (  0.0%)
Orbital Orthonormalization  ....       0.000 sec  (  0.0%)
DIIS solution               ....       0.007 sec  (  0.1%)
SOSCF solution              ....       0.011 sec  (  0.1%)
Grid generation             ....       0.626 sec  (  8.1%)


-------------------------------------------------------------------------------
                          DFT DISPERSION CORRECTION                            
                                                                               
                              DFTD3 V3.1  Rev 1                                
                          USING Becke-Johnson damping                          
-------------------------------------------------------------------------------
The PBE0 functional is recognized
Active option DFTDOPT                   ...         4   

molecular C6(AA) [au] = 2561.812577 


            DFT-D V3
 parameters
 s6 scaling factor         :     1.0000 
 a1 scaling factor         :     0.4145 
 s8 scaling factor         :     1.2177 
 a2 scaling factor         :     4.8593 
 ad hoc parameters k1-k3   :    16.0000     1.3333    -4.0000 

 Edisp/kcal,au: -7.759047064850  -0.012364827238 
 E6   /kcal   :  -4.986427698 
 E8   /kcal   :  -2.772619366 
 % E8         :  35.734019182 

-------------------------   ----------------
Dispersion correction           -0.012364827
-------------------------   ----------------


-------------------------   --------------------
FINAL SINGLE POINT ENERGY      -309.221703345792
-------------------------   --------------------



           ************************************************************
           *        Program running with 8 parallel MPI-processes     *
           *              working on a common directory               *
           ************************************************************
------------------------------------------------------------------------------
                         ORCA SCF GRADIENT CALCULATION
------------------------------------------------------------------------------

Gradient of the Kohn-Sham DFT energy:
Kohn-Sham wavefunction type      ... RKS
Hartree-Fock exchange scaling    ...    0.250
Number of operators              ...    1
Number of atoms                  ...   17
Basis set dimensions             ...  148
Integral neglect threshold       ... 2.5e-11
Integral primitive cutoff        ... 2.5e-12

Nuclear repulsion gradient       ... done
One Electron Gradient            ... done
Pre-screening matrix             ... done
RI-J gradient                    ... done
COSX-gradient                    ... done
Exchange-correlation gradient    ... done
Dispersion correction            ... done

------------------
CARTESIAN GRADIENT
------------------

   1   C   :   -0.003143480    0.001516169   -0.000773946
   2   C   :   -0.000603177    0.000756305    0.004353222
   3   C   :    0.000324763    0.001417003   -0.000839031
   4   O   :    0.002448819    0.001213382    0.003475449
   5   C   :    0.000345776   -0.004333792   -0.006946381
   6   C   :    0.009661760    0.008994948    0.008018525
   7   C   :   -0.004599139   -0.007215282   -0.001981934
   8   H   :   -0.006260218   -0.009905871   -0.003008004
   9   H   :    0.005452420    0.003491140    0.009962201
  10   H   :   -0.003839637   -0.003367698   -0.008985879
  11   H   :    0.001805074    0.005412308   -0.005488113
  12   H   :   -0.003678116    0.005860981    0.005230900
  13   H   :   -0.006993452   -0.009336198   -0.002944642
  14   H   :    0.004044572    0.008938580   -0.008171769
  15   H   :   -0.004099422   -0.007722411    0.005372746
  16   H   :    0.003924353    0.005863901   -0.005272817
  17   H   :    0.007147708   -0.001303588    0.005094713

Difference to translation invariance:
           :    0.0019386047    0.0002798783   -0.0029047596

Norm of the cartesian gradient     ...    0.0392373487
RMS gradient                       ...    0.0054943278
MAX gradient                       ...    0.0099622011

-------
TIMINGS
-------

Total SCF gradient time            ...        1.611 sec

One electron gradient       ....       0.019 sec  (  1.2%)
Prescreening matrices       ....       0.014 sec  (  0.9%)
RI-J Coulomb gradient       ....       0.224 sec  ( 13.9%)
COSX gradient               ....       0.617 sec  ( 38.3%)
XC gradient                 ....       0.421 sec  ( 26.1%)


           ************************************************************
           *        Program running with 8 parallel MPI-processes     *
           *              working on a common directory               *
           ************************************************************

-------------------------------------------------------------------------------
                               ORCA SCF HESSIAN
-------------------------------------------------------------------------------

Hessian of the Kohn-Sham DFT energy:
Kohn-Sham wavefunction type                      ... RKS
Hartree-Fock exchange scaling                    ...    0.250
Number of operators                              ...    1
Number of atoms                                  ...   17
Basis set dimensions                             ...  148
Integral neglect threshold                       ... 2.5e-11
Integral primitive cutoff                        ... 2.5e-12

Setting up DFT Hessian calculations              ... 
Electron density on the grid                     ... found on disk
Electron density on the final grid               ... found on disk
Building xc-kernel on the grid                   ... done   (      0.0 sec)
Building xc-kernel on the final grid             ... done   (      0.0 sec)
                                                     done   (      0.1 sec)

Nuclear repulsion Hessian                        ... done   (      0.0 sec)

----------------------------------------------
Forming right-hand sides of CP-SCF equations     ...
----------------------------------------------
One electron integral derivatives                ... done   (      0.1 sec)
Transforming the overlap derivative matrices     ... done   (      0.0 sec)
Making the Q(x) pseudodensities                  ... done   (      0.0 sec)
Adding the E*S(x)*S(y) terms to the Hessian      ... done   (      0.0 sec)
Calculating energy weighted overlap derivatives  ... done   (      0.0 sec)
Two electron integral derivatives (RI)           ... done   (      1.3 sec)
Exchange-correlation integral derivatives        ... done   (      3.5 sec)
tr(F(y)Q(x)) contribution to the Hessian         ... done   (      0.0 sec)
Response fock operator R(S(x)) (RIJCOSX)         ... done   (      2.6 sec)
XC Response fock operator R(S(x))                ... done   (      1.3 sec)
tr(F(y)S(x)) contribution to the Hessian         ... done   (      0.0 sec)
Transforming and finalizing RHSs                 ... done   (      0.0 sec)

----------------------------------------------
Solving the CP-SCF equations (RIJCOSX)           ...
----------------------------------------------
     CP-SCF ITERATION   0: 
     CP-SCF ITERATION   1:      0.003801665850
     CP-SCF ITERATION   2:      0.000440255855
     CP-SCF ITERATION   3:      0.000089484057
     CP-SCF ITERATION   4:      0.000009474688
     CP-SCF ITERATION   5:      0.000000745211
     CP-SCF ITERATION   6:      0.000000199125
     CP-SCF ITERATION   7:      0.000000012242
     CP-SCF ITERATION   8:      0.000000009866

                                                 ... done   (     15.0 sec)
Forming perturbed density Hessian contributions  ... done   (      0.0 sec)
2nd integral derivative contribs (RI)            ... done   (      5.9 sec)
Exchange-correlation Hessian                     ... done   (      3.7 sec)
Dispersion correction in the Hessian             ... done   (      1.4 sec)
Dipol derivatives                                ... done   (      0.3 sec)

Total SCF Hessian time: 0 days 0 hours 0 min 35 sec 

Writing the Hessian file to the disk             ... done


Maximum memory used throughout the entire calculation: 128.1 MB

-----------------------
VIBRATIONAL FREQUENCIES
-----------------------

Scaling factor for frequencies =  1.000000000  (already applied!)

   0:         0.00 cm**-1
   1:         0.00 cm**-1
   2:         0.00 cm**-1
   3:         0.00 cm**-1
   4:         0.00 cm**-1
   5:         0.00 cm**-1
   6:      -283.68 cm**-1 ***imaginary mode***
   7:      -199.56 cm**-1 ***imaginary mode***
   8:      -186.29 cm**-1 ***imaginary mode***
   9:      -133.67 cm**-1 ***imaginary mode***
  10:      -127.54 cm**-1 ***imaginary mode***
  11:        10.99 cm**-1
  12:        97.67 cm**-1
  13:       129.49 cm**-1
  14:       241.75 cm**-1
  15:       367.05 cm**-1
  16:       443.99 cm**-1
  17:       492.74 cm**-1
  18:       655.99 cm**-1
  19:       863.00 cm**-1
  20:       877.23 cm**-1
  21:       940.04 cm**-1
  22:       943.77 cm**-1
  23:       965.07 cm**-1
  24:       975.40 cm**-1
  25:       981.02 cm**-1
  26:      1016.99 cm**-1
  27:      1030.52 cm**-1
  28:      1040.14 cm**-1
  29:      1171.12 cm**-1
  30:      1283.45 cm**-1
  31:      1288.54 cm**-1
  32:      1350.82 cm**-1
  33:      1387.25 cm**-1
  34:      1403.82 cm**-1
  35:      1427.88 cm**-1
  36:      1433.42 cm**-1
  37:      1443.47 cm**-1
  38:      1736.88 cm**-1
  39:      1789.02 cm**-1
  40:      1871.22 cm**-1
  41:      3039.74 cm**-1
  42:      3152.71 cm**-1
  43:      3250.06 cm**-1
  44:      3275.71 cm**-1
  45:      3295.80 cm**-1
  46:      3310.36 cm**-1
  47:      3314.38 cm**-1
  48:      3335.38 cm**-1
  49:      3407.17 cm**-1
  50:      3429.00 cm**-1


------------
NORMAL MODES
------------

These modes are the Cartesian displacements weighted by the diagonal matrix
M(i,i)=1/sqrt(m[i]) where m[i] is the mass of the displaced atom
Thus, these vectors are normalized but *not* orthogonal

                  0          1          2          3          4          5    
      0       0.000000   0.000000   0.000000   0.000000   0.000000   0.000000
      1       0.000000   0.000000   0.000000   0.000000   0.000000   0.000000
      2       0.000000   0.000000   0.000000   0.000000   0.000000   0.000000
      3       0.000000   0.000000   0.000000   0.000000   0.000000   0.000000
      4       0.000000   0.000000   0.000000   0.000000   0.000000   0.000000
      5       0.000000   0.000000   0.000000   0.000000   0.000000   0.000000
      6       0.000000   0.000000   0.000000   0.000000   0.000000   0.000000
      7       0.000000   0.000000   0.000000   0.000000   0.000000   0.000000
      8       0.000000   0.000000   0.000000   0.000000   0.000000   0.000000
      9       0.000000   0.000000   0.000000   0.000000   0.000000   0.000000
     10       0.000000   0.000000   0.000000   0.000000   0.000000   0.000000
     11       0.000000   0.000000   0.000000   0.000000   0.000000   0.000000
     12       0.000000   0.000000   0.000000   0.000000   0.000000   0.000000
     13       0.000000   0.000000   0.000000   0.000000   0.000000   0.000000
     14       0.000000   0.000000   0.000000   0.000000   0.000000   0.000000
     15       0.000000   0.000000   0.000000   0.000000   0.000000   0.000000
     16       0.000000   0.000000   0.000000   0.000000   0.000000   0.000000
     17       0.000000   0.000000   0.000000   0.000000   0.000000   0.000000
     18       0.000000   0.000000   0.000000   0.000000   0.000000   0.000000
     19       0.000000   0.000000   0.000000   0.000000   0.000000   0.000000
     20       0.000000   0.000000   0.000000   0.000000   0.000000   0.000000
     21       0.000000   0.000000   0.000000   0.000000   0.000000   0.000000
     22       0.000000   0.000000   0.000000   0.000000   0.000000   0.000000
     23       0.000000   0.000000   0.000000   0.000000   0.000000   0.000000
     24       0.000000   0.000000   0.000000   0.000000   0.000000   0.000000
     25       0.000000   0.000000   0.000000   0.000000   0.000000   0.000000
     26       0.000000   0.000000   0.000000   0.000000   0.000000   0.000000
     27       0.000000   0.000000   0.000000   0.000000   0.000000   0.000000
     28       0.000000   0.000000   0.000000   0.000000   0.000000   0.000000
     29       0.000000   0.000000   0.000000   0.000000   0.000000   0.000000
     30       0.000000   0.000000   0.000000   0.000000   0.000000   0.000000
     31       0.000000   0.000000   0.000000   0.000000   0.000000   0.000000
     32       0.000000   0.000000   0.000000   0.000000   0.000000   0.000000
     33       0.000000   0.000000   0.000000   0.000000   0.000000   0.000000
     34       0.000000   0.000000   0.000000   0.000000   0.000000   0.000000
     35       0.000000   0.000000   0.000000   0.000000   0.000000   0.000000
     36       0.000000   0.000000   0.000000   0.000000   0.000000   0.000000
     37       0.000000   0.000000   0.000000   0.000000   0.000000   0.000000
     38       0.000000   0.000000   0.000000   0.000000   0.000000   0.000000
     39       0.000000   0.000000   0.000000   0.000000   0.000000   0.000000
     40       0.000000   0.000000   0.000000   0.000000   0.000000   0.000000
     41       0.000000   0.000000   0.000000   0.000000   0.000000   0.000000
     42       0.000000   0.000000   0.000000   0.000000   0.000000   0.000000
     43       0.000000   0.000000   0.000000   0.000000   0.000000   0.000000
     44       0.000000   0.000000   0.000000   0.000000   0.000000   0.000000
     45       0.000000   0.000000   0.000000   0.000000   0.000000   0.000000
     46       0.000000   0.000000   0.000000   0.000000   0.000000   0.000000
     47       0.000000   0.000000   0.000000   0.000000   0.000000   0.000000
     48       0.000000   0.000000   0.000000   0.000000   0.000000   0.000000
     49       0.000000   0.000000   0.000000   0.000000   0.000000   0.000000
     50       0.000000   0.000000   0.000000   0.000000   0.000000   0.000000
                  6          7          8          9         10         11    
      0      -0.007089   0.051453  -0.036738   0.016479  -0.156524   0.070962
      1       0.015234  -0.030877   0.040107   0.035202   0.020611   0.019452
      2      -0.006559  -0.029189   0.035485   0.154963  -0.000587   0.015434
      3       0.000775  -0.130239   0.081966  -0.014189   0.012050   0.024878
      4       0.009114   0.062004  -0.034079  -0.064663  -0.009573   0.059103
      5      -0.010433   0.023977  -0.010838   0.064907  -0.001203   0.042679
      6       0.008482   0.025479  -0.018265   0.055337   0.221829   0.044641
      7       0.005042  -0.021597   0.019562  -0.082007  -0.129953   0.043665
      8      -0.014081  -0.026830   0.008873  -0.074637  -0.000033   0.054145
      9       0.006648   0.030947  -0.020062  -0.013294  -0.076024  -0.035601
     10       0.009806  -0.015686   0.024452   0.052713  -0.008924   0.070923
     11      -0.015846  -0.030938   0.008761  -0.096343   0.081098   0.078855
     12      -0.036036  -0.022508  -0.043492   0.066588  -0.032144   0.195486
     13      -0.000907   0.019489   0.022549   0.165953   0.011168  -0.206421
     14       0.026741   0.027758  -0.012409  -0.120741   0.002142  -0.112199
     15       0.065151   0.069964   0.092024  -0.057493   0.014778  -0.043576
     16      -0.049920  -0.035763  -0.076934  -0.011610   0.049388  -0.053856
     17       0.002643   0.007908  -0.039468  -0.063126  -0.014902  -0.060644
     18      -0.039127  -0.024439  -0.039914  -0.057691   0.015088  -0.245039
     19       0.011945   0.021152  -0.004997  -0.099552   0.071407   0.063277
     20       0.018032   0.029490   0.006131   0.131662  -0.066134  -0.021906
     21      -0.014420  -0.141263   0.090136  -0.031331  -0.306361   0.066514
     22       0.018838   0.069606  -0.027619   0.044520   0.106756   0.024007
     23      -0.002411   0.030987   0.009951   0.302449  -0.021654  -0.002358
     24      -0.004359   0.424709  -0.275266   0.098553  -0.163463   0.121979
     25       0.015559  -0.225972   0.180049   0.129981  -0.046148  -0.028775
     26      -0.007831  -0.143644   0.104983   0.097877   0.018046   0.004718
     27       0.001476  -0.470448   0.305025  -0.073151   0.058434  -0.011853
     28       0.006848   0.236465  -0.160465  -0.143443   0.020729   0.093047
     29      -0.010290   0.125146  -0.074696   0.103967  -0.026156   0.050777
     30       0.017249   0.121447  -0.077372   0.185807   0.731699   0.157736
     31      -0.002004  -0.082796   0.051196  -0.245365  -0.373436  -0.002345
     32      -0.018217  -0.054338   0.021991  -0.162871  -0.093988   0.038788
     33       0.039182  -0.158489  -0.228457  -0.065092   0.019179  -0.370979
     34      -0.274288   0.114069   0.108581  -0.197889   0.098218  -0.027458
     35       0.377611  -0.198372  -0.296937   0.221262  -0.086393  -0.066117
     36       0.120560   0.063644   0.080511   0.062015  -0.032382   0.384439
     37      -0.096890  -0.031350  -0.046240   0.247920  -0.010070  -0.322658
     38       0.000263   0.008485  -0.051574  -0.322300   0.057087  -0.145479
     39      -0.298560  -0.204116  -0.303941   0.207216  -0.072549   0.240698
     40       0.151637   0.129027   0.190159   0.265346  -0.013188  -0.239085
     41       0.075645   0.065292   0.051372   0.025071  -0.035646  -0.126476
     42       0.329718   0.244258   0.330247  -0.170114   0.050138  -0.067245
     43      -0.202661  -0.144554  -0.236109  -0.085489   0.064039  -0.038621
     44      -0.045024  -0.031929  -0.104896  -0.182852   0.013961  -0.054619
     45      -0.451929   0.156982   0.211651  -0.035856   0.008173  -0.287142
     46       0.288258  -0.084841  -0.137618   0.032480   0.039083   0.115181
     47       0.033728   0.034255   0.023764   0.243267  -0.094209  -0.002447
     48       0.249035  -0.166980  -0.238084  -0.074653   0.019205  -0.233304
     49       0.052159   0.097620   0.092617  -0.209377   0.100170   0.192071
     50      -0.346701   0.260587   0.322666   0.094797  -0.056442   0.034569
                 12         13         14         15         16         17    
[...]
Total Energy       :         -309.21434322 Eh           -8414.15005 eV
  Last Energy change         ...   -2.4078e-09  Tolerance :   1.0000e-08
  Last MAX-Density change    ...    4.4409e-15  Tolerance :   1.0000e-07
             **** THE GBW FILE WAS UPDATED (xtb2d_ts_guess_orca_opt.gbw) ****
             **** DENSITY FILE WAS UPDATED (xtb2d_ts_guess_orca_opt.scfp.tmp) ****
             **** ENERGY FILE WAS UPDATED (xtb2d_ts_guess_orca_opt.en.tmp) ****
Total SCF time: 0 days 0 hours 0 min 5 sec 


-------------------------------------------------------------------------------
                          DFT DISPERSION CORRECTION                            
                                                                               
                              DFTD3 V3.1  Rev 1                                
                          USING Becke-Johnson damping                          
-------------------------------------------------------------------------------
-------------------------   ----------------
Dispersion correction           -0.010914311
-------------------------   ----------------


-------------------------   --------------------
FINAL SINGLE POINT ENERGY      -309.225257528066
-------------------------   --------------------



           ************************************************************
           *        Program running with 8 parallel MPI-processes     *
           *              working on a common directory               *
           ************************************************************
------------------------------------------------------------------------------
                         ORCA SCF GRADIENT CALCULATION
------------------------------------------------------------------------------

Gradient of the Kohn-Sham DFT energy:
Kohn-Sham wavefunction type      ... RKS
Hartree-Fock exchange scaling    ...    0.250
Number of operators              ...    1
Number of atoms                  ...   17
Basis set dimensions             ...  148
Integral neglect threshold       ... 2.5e-11
Integral primitive cutoff        ... 2.5e-12

Nuclear repulsion gradient       ... done
One Electron Gradient            ... done
Pre-screening matrix             ... done
RI-J gradient                    ... done
COSX-gradient                    ... done
Exchange-correlation gradient    ... done
Dispersion correction            ... done

------------------
CARTESIAN GRADIENT
------------------

   1   C   :   -0.000193544   -0.000153924   -0.000068721
   2   C   :   -0.000101551    0.000169257   -0.000042824
   3   C   :    0.000357170   -0.000181905    0.000676885
   4   O   :   -0.000555283    0.000267288   -0.000644116
   5   C   :   -0.000060918    0.000096813   -0.000161824
   6   C   :   -0.000030830    0.000142315    0.000155568
   7   C   :   -0.000038954   -0.000003230    0.000103645
   8   H   :   -0.000085362    0.000089541   -0.000257935
   9   H   :   -0.000198124    0.000017644   -0.000119284
  10   H   :   -0.000017192    0.000195369   -0.000018307
  11   H   :    0.000012737    0.000056370    0.000250791
  12   H   :   -0.000075692   -0.000123391    0.000501607
  13   H   :   -0.000051146    0.000116514   -0.000169910
  14   H   :   -0.000007751    0.000216234    0.000014569
  15   H   :   -0.000132822   -0.000184290   -0.000045859
  16   H   :   -0.000020364    0.000073710    0.000282223
  17   H   :   -0.000098399   -0.000129220    0.000244667

Difference to translation invariance:
           :   -0.0012980248    0.0006650939    0.0007011739

Norm of the cartesian gradient     ...    0.0015645704
RMS gradient                       ...    0.0002190837
MAX gradient                       ...    0.0006768853

-------
TIMINGS
-------

Total SCF gradient time            ...        1.646 sec

One electron gradient       ....       0.019 sec  (  1.1%)
Prescreening matrices       ....       0.015 sec  (  0.9%)
RI-J Coulomb gradient       ....       0.235 sec  ( 14.3%)
COSX gradient               ....       0.581 sec  ( 35.3%)
XC gradient                 ....       0.292 sec  ( 17.7%)
------------------------------------------------------------------------------
                         ORCA GEOMETRY RELAXATION STEP
------------------------------------------------------------------------------

Reading the OPT-File                    .... done
Getting information on internals        .... done
Copying old internal coords+grads       .... done
Making the new internal coordinates     .... (new redundants).... done
Validating the new internal coordinates .... (new redundants).... done
Calculating the B-matrix                .... done
Calculating the G,G- and P matrices     .... done
Transforming gradient to internals      .... done
Projecting the internal gradient        .... done
Number of atoms                         ....  17
Number of internal coordinates          ....  89
Current Energy                          ....  -309.225257528 Eh
Current gradient norm                   ....     0.001564570 Eh/bohr
Maximum allowed component of the step   ....  0.300
Current trust radius                    ....  0.100
Updating the Hessian (Bofill)          .... Diagonalizing the Hessian               .... done
Dimension of the hessian                ....  89
Lowest eigenvalues of the Hessian:
 -0.001237679 -0.000334132  0.000863524  0.001345448  0.001776482
Hessian has   2 negative eigenvalues
Taking P-RFO step
Searching for lambda that maximizes along the lowest mode
TS mode is mode number   0 with eigenvalue  -0.00123768 and components:
   1.   -0.00171449
   2.    0.00333051
   3.    0.00049820
   4.    0.41160576
   5.   -0.17334229
   6.    0.00061223
   7.    0.00021360
   8.    0.00058117
   9.    0.00049212
  10.   -0.00025407
  11.    0.00004977
  12.    0.00073902
  13.    0.07614832
  14.    0.06502190
  15.   -0.00010316
  16.    0.00003690
  17.    0.00075686
  18.    0.01325670
  19.    0.00071040
  20.   -0.00012416
  21.   -0.00042497
  22.   -0.00193364
  23.    0.00236286
  24.   -0.00243892
  25.    0.00159089
  26.    0.00116330
  27.   -0.00594121
  28.    0.00263692
  29.    0.00411230
  30.    0.00516739
  31.   -0.00607290
  32.    0.00346668
  33.    0.00038989
  34.   -0.00251773
  35.   -0.00036486
  36.    0.00287355
  37.    0.00206630
  38.   -0.00117510
  39.   -0.00072554
  40.    0.00233972
  41.    0.00152453
  42.    0.00032991
  43.   -0.00044656
  44.   -0.00118603
  45.   -0.00249648
  46.   -0.21552338
  47.   -0.00555728
  48.    0.05512227
  49.   -0.04365469
  50.    0.22821533
  51.    0.01144211
  52.   -0.00181107
  53.   -0.00015654
  54.    0.01309664
  55.    0.00949176
  56.   -0.00320089
  57.    0.01276176
  58.    0.00409842
  59.    0.00006912
  60.    0.01679107
  61.   -0.00754521
  62.   -0.01522168
  63.    0.00056009
  64.    0.00238834
  65.   -0.00615994
  66.   -0.00798820
  67.    0.01421213
  68.    0.00587737
  69.    0.01430619
  70.    0.00597143
  71.    0.01582563
  72.    0.00749086
  73.    0.16275552
  74.    0.16119267
  75.   -0.31063387
  76.   -0.00458403
  77.   -0.01102887
  78.   -0.29699624
  79.   -0.29241221
  80.   -0.02984042
  81.   -0.30344108
  82.    0.00784225
  83.    0.00919830
  84.    0.00685649
  85.   -0.02885466
  86.   -0.02749861
  87.   -0.48065076
  88.    0.13020106
  89.    0.13791840

Lambda that maximizes along the TS mode:       0.00008252
Searching for lambda that minimizes along all other modes
In cycle   1: lambdaN =  -0.00000280   step =  -0.05033133
In cycle   2: lambdaN =  -0.00000175   step =  -0.00000105
In cycle   3: lambdaN =  -0.00000175   step =  -0.00000000
UNABLE TO DETERMINE LAMBDA
Bisect method failed
iter: 9999 fct1    0.0503 fct2 99990.0503 fct3    0.0000 lambda1   -0.0503 lambda2 -99990.0503
Using lambda anyway
Hessian diagonal increased by    0.0005
Searching for lambda that maximizes along the lowest mode
TS mode is mode number   0 with eigenvalue  -0.00070355 and components:
   1.   -0.00171449
   2.    0.00333051
   3.    0.00049820
   4.    0.41160576
   5.   -0.17334229
   6.    0.00061223
   7.    0.00021360
   8.    0.00058117
   9.    0.00049212
  10.   -0.00025407
  11.    0.00004977
  12.    0.00073902
  13.    0.07614832
  14.    0.06502190
  15.   -0.00010316
  16.    0.00003690
  17.    0.00075686
  18.    0.01325670
  19.    0.00071040
  20.   -0.00012416
  21.   -0.00042497
  22.   -0.00193364
  23.    0.00236286
  24.   -0.00243892
  25.    0.00159089
  26.    0.00116330
  27.   -0.00594121
  28.    0.00263692
  29.    0.00411230
  30.    0.00516739
  31.   -0.00607290
  32.    0.00346668
  33.    0.00038989
  34.   -0.00251773
  35.   -0.00036486
  36.    0.00287355
  37.    0.00206630
  38.   -0.00117510
  39.   -0.00072554
  40.    0.00233972
  41.    0.00152453
  42.    0.00032991
  43.   -0.00044656
  44.   -0.00118603
  45.   -0.00249648
  46.   -0.21552338
  47.   -0.00555728
  48.    0.05512227
  49.   -0.04365469
  50.    0.22821533
  51.    0.01144211
  52.   -0.00181107
  53.   -0.00015654
  54.    0.01309664
  55.    0.00949176
  56.   -0.00320089
  57.    0.01276176
  58.    0.00409842
  59.    0.00006912
  60.    0.01679107
  61.   -0.00754521
  62.   -0.01522168
  63.    0.00056009
  64.    0.00238834
  65.   -0.00615994
  66.   -0.00798820
  67.    0.01421213
  68.    0.00587737
  69.    0.01430619
  70.    0.00597143
  71.    0.01582563
  72.    0.00749086
  73.    0.16275552
  74.    0.16119267
  75.   -0.31063387
  76.   -0.00458403
  77.   -0.01102887
  78.   -0.29699624
  79.   -0.29241221
  80.   -0.02984042
  81.   -0.30344108
  82.    0.00784225
  83.    0.00919830
  84.    0.00685649
  85.   -0.02885466
  86.   -0.02749861
  87.   -0.48065076
  88.    0.13020106
  89.    0.13791840

Lambda that maximizes along the TS mode:       0.00013061
Searching for lambda that minimizes along all other modes
In cycle   1: lambdaN =  -0.00002680   step =   0.00002680
In cycle   2: lambdaN =  -0.00002708   step =   0.00000028
In cycle   3: lambdaN =  -0.00002708   step =   0.00000000
Lambda that minimizes along all other modes:  -0.00002708
Calculated stepsize too large (   0.4817 >    0.1000). Scaled with    0.2076.
The final length of the internal step   ....       0.1000
Converting the step to cartesian space:
 Initial RMS(Int)=    0.0105999788
Transforming coordinates:
 Iter   0:  RMS(Cart)=    0.0259503771 RMS(Int)=    0.0106221486
 Iter   1:  RMS(Cart)=    0.0003625767 RMS(Int)=    0.0002424320
 Iter   2:  RMS(Cart)=    0.0000068671 RMS(Int)=    0.0000041853
 Iter   3:  RMS(Cart)=    0.0000001437 RMS(Int)=    0.0000000895
 Iter   4:  RMS(Cart)=    0.0000000038 RMS(Int)=    0.0000000027
done
Storing new coordinates                 .... done
The predicted energy change is          ....     0.000016990
Previously predicted energy change      ....     0.000014545
Actually observed energy change         ....     0.000013687
Ratio of predicted to observed change   ....     0.941023336
New trust radius                        ....     0.150000000

                                .--------------------.
          ----------------------|Geometry convergence|-------------------------
          Item                value                   Tolerance       Converged
          ---------------------------------------------------------------------
          Energy change       0.0000136875            0.0000050000      NO
          RMS gradient        0.0001012303            0.0001000000      NO
          MAX gradient        0.0007295973            0.0003000000      NO
          RMS step            0.0105999788            0.0020000000      NO
          MAX step            0.0360736783            0.0040000000      NO
          ........................................................
          Max(Bonds)      0.0187      Max(Angles)    1.74
          Max(Dihed)        2.07      Max(Improp)    0.00
          ---------------------------------------------------------------------

The optimization has not yet converged - more geometry cycles are needed


    ---------------------------------------------------------------------------
                         Redundant Internal Coordinates
                            (Angstroem and degrees)

        Definition                    Value    dE/dq     Step     New-Value  comp.(TS mode)
    ----------------------------------------------------------------------------
     1. B(C   1,C   0)                1.3368 -0.000167  0.0001    1.3369   
     2. B(C   2,C   1)                1.4799 -0.000081 -0.0001    1.4798   
     3. B(O   3,C   2)                1.2076  0.000730 -0.0002    1.2074   
     4. B(C   4,C   0)                3.9099 -0.000170 -0.0187    3.8913          0.41
     5. B(C   4,C   2)                4.0038  0.000105  0.0180    4.0217   
     6. B(C   5,C   4)                1.3339 -0.000165 -0.0000    1.3339   
     7. B(C   6,C   5)                1.4921 -0.000009 -0.0000    1.4921   
     8. B(H   7,C   0)                1.0923  0.000000 -0.0000    1.0923   
     9. B(H   8,C   0)                1.0944  0.000059 -0.0000    1.0944   
    10. B(H   9,C   1)                1.0946  0.000008  0.0000    1.0946   
    11. B(H  10,C   2)                1.1189  0.000050 -0.0000    1.1189   
    12. B(H  11,C   6)                1.1021 -0.000080  0.0000    1.1021   
    13. B(H  11,O   3)                2.6086 -0.000128 -0.0029    2.6057   
    14. B(H  11,C   2)                3.3257  0.000059  0.0115    3.3373   
    15. B(H  12,C   4)                1.0936  0.000003  0.0000    1.0936   
    16. B(H  13,C   4)                1.0954 -0.000007  0.0000    1.0954   
    17. B(H  14,C   5)                1.0969 -0.000023 -0.0000    1.0969   
    18. B(H  14,H   8)                2.9108  0.000006 -0.0071    2.9037   
    19. B(H  15,C   6)                1.1009  0.000007 -0.0000    1.1009   
    20. B(H  16,C   6)                1.1024 -0.000024  0.0000    1.1024   
    21. A(C   1,C   0,H   8)          119.32  0.000000    0.03    119.36   
    22. A(H   7,C   0,H   8)          118.42  0.000008   -0.01    118.41   
    23. A(C   1,C   0,H   7)          122.26 -0.000009   -0.03    122.23   
    24. A(C   0,C   1,C   2)          120.67 -0.000021    0.02    120.69   
    25. A(C   2,C   1,H   9)          117.50  0.000010   -0.02    117.48   
    26. A(C   0,C   1,H   9)          121.81  0.000010   -0.01    121.81   
    27. A(H  10,C   2,H  11)           93.04  0.000012    0.80     93.84   
    28. A(O   3,C   2,H  10)          120.64  0.000063   -0.02    120.62   
    29. A(C   1,C   2,H  11)          133.86 -0.000019   -0.30    133.57   
    30. A(O   3,C   2,H  11)           44.65  0.000068   -0.73     43.92   
    31. A(C   1,C   2,O   3)          124.14 -0.000037    0.04    124.18   
    32. A(C   1,C   2,H  10)          115.22 -0.000026   -0.02    115.20   
    33. A(C   2,O   3,H  11)          116.36 -0.000211    0.95    117.31   
    34. A(H  12,C   4,H  13)          117.07  0.000012    0.01    117.08   
    35. A(C   5,C   4,H  13)          121.29  0.000018   -0.01    121.29   
    36. A(C   5,C   4,H  12)          121.63 -0.000029    0.00    121.63   
    37. A(C   4,C   5,H  14)          118.56 -0.000011    0.01    118.56   
    38. A(C   4,C   5,C   6)          125.85 -0.000011    0.00    125.85   
    39. A(C   6,C   5,H  14)          115.58  0.000022   -0.01    115.58   
    40. A(C   5,C   6,H  11)          109.78  0.000011   -0.02    109.75   
    41. A(H  15,C   6,H  16)          107.95  0.000011   -0.01    107.95   
    42. A(H  11,C   6,H  16)          106.89 -0.000067    0.03    106.93   
    43. A(C   5,C   6,H  16)          111.26  0.000011    0.01    111.27   
    44. A(H  11,C   6,H  15)          108.79  0.000044   -0.02    108.78   
    45. A(C   5,C   6,H  15)          112.00 -0.000014    0.00    112.00   
    46. A(C   0,H   8,H  14)          130.84  0.000081    1.74    132.58   
    47. A(C   2,H  11,O   3)           18.99  0.000143   -0.22     18.76   
    48. A(O   3,H  11,C   6)          122.69 -0.000006   -0.12    122.56   
    49. A(C   2,H  11,C   6)          117.85 -0.000000    0.36    118.21   
    50. A(C   5,H  14,H   8)          110.69 -0.000116   -1.30    109.39   
    51. D(C   2,C   1,C   0,H   7)    179.13  0.000000    0.01    179.14   
    52. D(H   9,C   1,C   0,H   7)      0.69 -0.000003    0.01      0.70   
    53. D(H   9,C   1,C   0,H   8)   -178.76 -0.000007    0.00   -178.75   
    54. D(C   2,C   1,C   0,H   8)     -0.31 -0.000004    0.00     -0.31   
    55. D(H  10,C   2,C   1,H   9)      5.19 -0.000006   -0.19      4.99   
    56. D(H  10,C   2,C   1,C   0)   -173.32 -0.000009   -0.19   -173.51   
    57. D(H  11,C   2,C   1,H   9)    127.46 -0.000044    0.84    128.30   
    58. D(O   3,C   2,C   1,C   0)      6.24  0.000019   -0.19      6.05   
    59. D(H  11,C   2,C   1,C   0)    -51.05 -0.000047    0.85    -50.20   
    60. D(O   3,C   2,C   1,H   9)   -175.25  0.000022   -0.19   -175.45   
    61. D(H  11,O   3,C   2,H  10)     59.21  0.000014    0.63     59.84   
    62. D(H  11,O   3,C   2,C   1)   -120.32 -0.000015    0.63   -119.70   
    63. D(C   6,C   5,C   4,H  13)     -1.16 -0.000011   -0.02     -1.18   
    64. D(C   6,C   5,C   4,H  12)    179.27 -0.000009   -0.02    179.25   
    65. D(H  14,C   5,C   4,H  12)      0.67 -0.000002    0.02      0.69   
    66. D(H  14,C   5,C   4,H  13)   -179.76 -0.000005    0.03   -179.74   
    67. D(H  16,C   6,C   5,H  14)    -59.04 -0.000021    0.18    -58.86   
    68. D(H  16,C   6,C   5,C   4)    122.32 -0.000014    0.22    122.54   
    69. D(H  15,C   6,C   5,H  14)   -179.96 -0.000034    0.18   -179.78   
    70. D(H  15,C   6,C   5,C   4)      1.40 -0.000027    0.22      1.62   
    71. D(H  11,C   6,C   5,H  14)     59.08 -0.000089    0.21     59.29   
    72. D(H  11,C   6,C   5,C   4)   -119.56 -0.000082    0.26   -119.31   
    73. D(H  14,H   8,C   0,H   7)   -121.96  0.000009   -0.49   -122.45   
    74. D(H  14,H   8,C   0,C   1)     57.50  0.000013   -0.49     57.01   
    75. D(C   6,H  11,O   3,C   2)     80.87  0.000178    1.24     82.11          0.31
    76. D(O   3,H  11,C   2,H  10)   -132.25 -0.000031    0.46   -131.79   
    77. D(O   3,H  11,C   2,C   1)     97.75  0.000013   -0.24     97.51   
    78. D(C   6,H  11,C   2,H  10)    117.78  0.000058    1.71    119.48          0.30
    79. D(C   6,H  11,C   2,O   3)   -109.97  0.000089    1.24   -108.73          0.29
    80. D(C   2,H  11,C   6,C   5)     28.71  0.000104    0.10     28.81   
    81. D(C   6,H  11,C   2,C   1)    -12.22  0.000102    1.00    -11.22          0.30
    82. D(O   3,H  11,C   6,H  16)    128.20 -0.000089    0.21    128.40   
    83. D(O   3,H  11,C   6,H  15)   -115.47 -0.000088    0.21   -115.26   
    84. D(O   3,H  11,C   6,C   5)      7.41 -0.000069    0.19      7.59   
    85. D(C   2,H  11,C   6,H  16)    149.50  0.000084    0.12    149.62   
    86. D(C   2,H  11,C   6,H  15)    -94.16  0.000085    0.12    -94.04   
    87. D(C   5,H  14,H   8,C   0)      0.07  0.000120    2.07      2.13          0.48
    88. D(H   8,H  14,C   5,C   6)   -121.64  0.000022   -0.61   -122.25   
    89. D(H   8,H  14,C   5,C   4)     57.10  0.000016   -0.65     56.45   
    ----------------------------------------------------------------------------




    ----------------------------------------------------------------------------
                                   ERROR !!!
       The optimization did not converge but reached the maximum 
       number of optimization cycles.
       As a subsequent Frequencies calculation has been requested
       ORCA will abort at this point of the run.
       Please restart the calculation with the lowest energy geometry and/or
       a larger maxiter for the geometry optimization.
    ----------------------------------------------------------------------------


[file orca_main/run.cpp, line 9757]: ORCA finished with error return - aborting the run
