
                                 *****************
                                 * O   R   C   A *
                                 *****************

           --- An Ab Initio, DFT and Semiempirical electronic structure package ---

                  #######################################################
                  #                        -***-                        #
                  #          Department of theory and spectroscopy      #
                  #               Directorship: Frank Neese             #
                  #        Max Planck Institute fuer Kohlenforschung    #
                  #                Kaiser Wilhelm Platz 1               #
                  #                 D-45470 Muelheim/Ruhr               #
                  #                      Germany                        #
                  #                                                     #
                  #                  All rights reserved                #
                  #                        -***-                        #
                  #######################################################


                         Program Version 4.1.1  - RELEASE  -


 With contributions from (in alphabetic order):
   Daniel Aravena         : Magnetic Properties
   Michael Atanasov       : Ab Initio Ligand Field Theory
   Alexander A. Auer      : GIAO ZORA
   Ute Becker             : Parallelization
   Giovanni Bistoni       : ED, Open-shell LED
   Martin Brehm           : Molecular dynamics
   Dmytro Bykov           : SCF Hessian
   Vijay G. Chilkuri      : MRCI spin determinant printing
   Dipayan Datta          : RHF DLPNO-CCSD density
   Achintya Kumar Dutta   : EOM-CC, STEOM-CC
   Dmitry Ganyushin       : Spin-Orbit,Spin-Spin,Magnetic field MRCI
   Miquel Garcia          : C-PCM Hessian
   Yang Guo               : DLPNO-NEVPT2, CIM, IAO-localization
   Andreas Hansen         : Spin unrestricted coupled pair/coupled cluster methods
   Benjamin Helmich-Paris : CASSCF linear response (MC-RPA)
   Lee Huntington         : MR-EOM, pCC
   Robert Izsak           : Overlap fitted RIJCOSX, COSX-SCS-MP3, EOM
   Christian Kollmar      : KDIIS, OOCD, Brueckner-CCSD(T), CCSD density
   Simone Kossmann        : Meta GGA functionals, TD-DFT gradient, OOMP2, MP2 Hessian
   Martin Krupicka        : AUTO-CI
   Lucas Lang             : DCDCAS
   Dagmar Lenk            : GEPOL surface, SMD
   Dimitrios Liakos       : Extrapolation schemes; parallel MDCI
   Dimitrios Manganas     : ROCIS; embedding schemes
   Dimitrios Pantazis     : SARC Basis sets
   Taras Petrenko         : DFT Hessian,TD-DFT gradient, ASA, ECA, R-Raman, ABS, FL, XAS/XES, NRVS
   Peter Pinski           : DLPNO-MP2, DLPNO-MP2 Gradient
   Christoph Reimann      : Effective Core Potentials
   Marius Retegan         : Local ZFS, SOC
   Christoph Riplinger    : Optimizer, TS searches, QM/MM, DLPNO-CCSD(T), (RO)-DLPNO pert. Triples
   Tobias Risthaus        : Range-separated hybrids, TD-DFT gradient, RPA, STAB
   Michael Roemelt        : Restricted open shell CIS
   Masaaki Saitow         : Open-shell DLPNO
   Barbara Sandhoefer     : DKH picture change effects
   Avijit Sen             : IP-ROCIS
   Kantharuban Sivalingam : CASSCF convergence, NEVPT2, FIC-MRCI
   Bernardo de Souza      : ESD, SOC TD-DFT
   Georgi Stoychev        : AutoAux, RI-MP2 NMR
   Willem Van den Heuvel  : Paramagnetic NMR
   Boris Wezisla          : Elementary symmetry handling
   Frank Wennmohs         : Technical directorship


 We gratefully acknowledge several colleagues who have allowed us to
 interface, adapt or use parts of their codes:
   Stefan Grimme, W. Hujo, H. Kruse,             : VdW corrections, initial TS optimization,
                  C. Bannwarth                     DFT functionals, gCP, sTDA/sTD-DF
   Ed Valeev                                     : LibInt (2-el integral package), F12 methods
   Garnet Chan, S. Sharma, J. Yang, R. Olivares  : DMRG
   Ulf Ekstrom                                   : XCFun DFT Library
   Mihaly Kallay                                 : mrcc  (arbitrary order and MRCC methods)
   Andreas Klamt, Michael Diedenhofen            : otool_cosmo (COSMO solvation model)
   Jiri Pittner, Ondrej Demel                    : Mk-CCSD
   Frank Weinhold                                : gennbo (NPA and NBO analysis)
   Christopher J. Cramer and Donald G. Truhlar   : smd solvation model
   Lars Goerigk                                  : TD-DFT with DH, B97 family of functionals
   V. Asgeirsson, H. Jonsson                     : NEB implementation
   FAccTs GmbH                                   : IRC, NEB, NEB-TS, Multilevel


 Your calculation uses the libint2 library for the computation of 2-el integrals
 For citations please refer to: http://libint.valeyev.net

 This ORCA versions uses:
   CBLAS   interface :  Fast vector & matrix operations
   LAPACKE interface :  Fast linear algebra routines
   SCALAPACK package :  Parallel linear algebra routines


Your calculation utilizes the atom-pairwise dispersion correction
with the Becke-Johnson damping scheme (D3BJ)
Cite in your paper:
S.Grimme, S.Ehrlich, L.Goerigk, J Comput Chem, (2011), 32, 1456–1465 
S.Grimme, J.Antony, S.Ehrlich and H.Krieg, J.Chem.Phys., 132, (2010), 154104 
   

----- Orbital basis set information -----
Your calculation utilizes the basis: def2-SVP
   F. Weigend and R. Ahlrichs, Phys. Chem. Chem. Phys. 7, 3297 (2005).

----- AuxJ basis set information -----
Your calculation utilizes the auxiliary basis: def2/J
   F. Weigend, Phys. Chem. Chem. Phys. 8, 1057 (2006).

================================================================================
                                        WARNINGS
                       Please study these warnings very carefully!
================================================================================


WARNING: Geometry Optimization
  ===> : Switching off AutoStart
         For restart on a previous wavefunction, please use MOREAD

INFO   : the flag for use of LIBINT has been found!

================================================================================
                                       INPUT FILE
================================================================================
NAME = default_orca_scan.inp
|  1> ! LooseOpt PBE RI D3BJ def2-SVP def2/J PAL8
|  2> %geom Scan
|  3>     B 5 4 = 1.451, 2.951, 10
|  4>     end
|  5> end
|  6> %scf 
|  7> maxiter 250 
|  8> end
|  9> % maxcore 4000
| 10> *xyz 1 1
| 11> N	0.0	0.0	0.0
| 12> H	-0.30085221913179844	-0.3606364559060228	-0.9222801195488362
| 13> H	-0.3003057257937051	-0.6820310520494992	0.7342240292279792
| 14> H	-0.35629931341089727	0.9661347586604492	0.16887441301463751
| 15> N	4.3392	0.34529999999999994	0.052800000000010616
| 16> C	2.8928000000000003	0.23019999999999996	0.035200000000009
| 17> H	4.6648000000000005	0.9749	0.8267000000000082
| 18> H	4.7785	-0.5939000000000001	0.0842000000000156
| 19> H	4.640600000000001	0.8210999999999999	-0.8380999999999914
| 20> H	2.4624000000000006	0.020799999999999957	1.0105000000000133
| 21> H	2.4617000000000004	1.2103	-0.31209999999998095
| 22> H	2.6168000000000005	-0.5055000000000001	-0.7344999999999913
| 23> *
| 24> 
| 25>                          ****END OF INPUT****
================================================================================

                       ******************************
                       *    Relaxed Surface Scan    *
                       ******************************

                      Bond (  5,   4):   range=   1.45100000 ..   2.95100000  steps =   10

There is 1 parameter to be scanned.
There will be   10 constrained geometry optimizations.


         *************************************************************
         *               RELAXED SURFACE SCAN STEP   1               *
         *                                                           *
         *                 Bond (  5,   4)  :   1.45100000           *
         *************************************************************

Geometry optimization settings:
Update method            Update   .... BFGS
Choice of coordinates    CoordSys .... Z-matrix Internals
Initial Hessian          InHess   .... Almoef's Model

Convergence Tolerances:
Energy Change            TolE     ....  3.0000e-05 Eh
Max. Gradient            TolMAXG  ....  2.0000e-03 Eh/bohr
RMS Gradient             TolRMSG  ....  5.0000e-04 Eh/bohr
Max. Displacement        TolMAXD  ....  1.0000e-02 bohr
RMS Displacement         TolRMSD  ....  7.0000e-03 bohr

------------------------------------------------------------------------------
                        ORCA OPTIMIZATION COORDINATE SETUP
------------------------------------------------------------------------------

The optimization will be done in new redundant internal coordinates
Making redundant internal coordinates   ...  (new redundants) done
Evaluating the initial hessian          ...  (Almloef) done
Evaluating the coordinates              ...  done
Calculating the B-matrix                .... done
Calculating the G-matrix                .... done
Diagonalizing the G-matrix              .... done
Imposing constraints:
 Iter   0:  RMS(Cart)=    0.0000407137 RMS(Int)=    0.0000000000
 Iter   1:  RMS(Cart)=    0.0000000000 RMS(Int)=    0.0000000000
CONVERGED
The first mode is                       ....   43
The number of degrees of freedom        ....   30
Storing new coordinates                 .... done

    -----------------------------------------------------------------
                    Redundant Internal Coordinates


    -----------------------------------------------------------------
         Definition                    Initial Value    Approx d2E/dq
    -----------------------------------------------------------------
      1. B(H   1,N   0)                  1.0350         0.394776   
      2. B(H   2,N   0)                  1.0462         0.378893   
      3. B(H   3,N   0)                  1.0435         0.382608   
      4. B(C   5,H   2)                  3.3936         0.000076   
      5. B(C   5,N   0)                  2.9022         0.002164   
      6. B(C   5,H   1)                  3.3860         0.000078   
      7. B(C   5,H   3)                  3.3341         0.000095   
      8. B(C   5,N   4)                  1.4510         0.447124 C 
      9. B(H   6,N   4)                  1.0494         0.374339   
     10. B(H   7,N   4)                  1.0373         0.391364   
     11. B(H   8,N   4)                  1.0540         0.368116   
     12. B(H   9,H   2)                  2.8641         0.000102   
     13. B(H   9,H   3)                  3.0898         0.000044   
     14. B(H   9,C   5)                  1.0864         0.364871   
     15. B(H   9,N   0)                  2.6618         0.001002   
     16. B(H   9,H   1)                  3.3936         0.000015   
     17. B(H  10,H   1)                  3.2360         0.000026   
     18. B(H  10,C   5)                  1.1256         0.315911   
     19. B(H  10,H   3)                  2.8692         0.000100   
     20. B(H  10,N   0)                  2.7608         0.000696   
     21. B(H  11,H   1)                  2.9273         0.000081   
     22. B(H  11,C   5)                  1.0999         0.347187   
     23. B(H  11,H   2)                  3.2708         0.000023   
     24. B(H  11,H   3)                  3.4382         0.000012   
     25. B(H  11,N   0)                  2.7645         0.000687   
     26. A(H   2,N   0,C   5)          109.2282         0.161719   
     27. A(H   1,N   0,H   2)          108.3488         0.292640   
     28. A(H   2,N   0,H   3)          113.0798         0.291202   
     29. A(H   1,N   0,C   5)          109.1593         0.162398   
     30. A(H   1,N   0,H   3)          111.5662         0.293090   
     31. A(H   3,N   0,C   5)          105.3636         0.161880   
     32. A(C   5,N   4,H   8)          108.0947         0.330439   
     33. A(H   6,N   4,H   8)          105.2942         0.288894   
     34. A(C   5,N   4,H   6)          111.4562         0.331357   
     35. A(C   5,N   4,H   7)          110.5285         0.333809   
     36. A(H   6,N   4,H   7)          112.9213         0.291684   
     37. A(H   7,N   4,H   8)          108.2522         0.290917   
     38. A(N   4,C   5,H  11)          108.1590         0.330071   
     39. A(H   9,C   5,H  11)          113.5701         0.289775   
     40. A(H  10,C   5,H  11)          105.6865         0.283333   
     41. A(N   0,C   5,H   9)           66.4664         0.161951   
     42. A(N   4,C   5,H   9)          113.5336         0.332797   
     43. A(N   0,C   5,H  10)           71.5531         0.159611   
     44. A(N   0,C   5,H  11)           71.8410         0.161136   
     45. A(N   4,C   5,H  10)          108.4469         0.324974   
     46. A(H   9,C   5,H  10)          107.0423         0.285531   
     47. D(H   8,N   4,N   0,H   3)    -73.1417         0.001500   
     48. D(H   7,N   4,N   0,H   1)    -71.5135         0.001500   
     49. D(H   8,N   4,N   0,H   2)    165.0961         0.001500   
     50. D(H   7,N   4,N   0,H   2)     46.7895         0.001500   
     51. D(H   6,N   4,N   0,H   2)    -79.6529         0.001500   
     52. D(H   6,N   4,N   0,H   3)     42.1093         0.001500   
     53. D(H   6,N   4,N   0,H   1)    162.0442         0.001500   
     54. D(H   7,N   4,N   0,H   3)    168.5516         0.001500   
     55. D(H   8,N   4,N   0,H   1)     46.7932         0.001500   
     56. D(H  10,C   5,N   0,H   3)    -28.5934         0.001501   
     57. D(H  10,C   5,N   4,H   8)    -44.5483         0.022645   
     58. D(H  11,C   5,N   4,H   7)    -48.6900         0.022645   
     59. D(H  11,C   5,N   0,H   2)     95.4795         0.001501   
     60. D(H   9,C   5,N   0,H   3)     90.2392         0.001501   
     61. D(H  11,C   5,N   4,H   6)   -175.1324         0.022645   
     62. D(H  10,C   5,N   0,H   1)     91.3415         0.001501   
     63. D(H   9,C   5,N   4,H   8)   -163.3809         0.022645   
     64. D(H  10,C   5,N   0,H   2)   -150.3556         0.001501   
     65. D(H   9,C   5,N   4,H   6)    -48.1299         0.022645   
     66. D(H  10,C   5,N   4,H   6)     70.7027         0.022645   
     67. D(H  10,C   5,N   4,H   7)   -162.8549         0.022645   
     68. D(H  11,C   5,N   0,H   3)   -142.7583         0.001501   
     69. D(H   9,C   5,N   0,H   1)   -149.8259         0.001501   
     70. D(H   9,C   5,N   4,H   7)     78.3125         0.022645   
     71. D(H  11,C   5,N   4,H   8)     69.6166         0.022645   
     72. D(H  11,C   5,N   0,H   1)    -22.8234         0.001501   
     73. D(H   9,C   5,N   0,H   2)    -31.5230         0.001501   
    -----------------------------------------------------------------

Number of atoms                         .... 12
Number of degrees of freedom            .... 73

         *************************************************************
         *                GEOMETRY OPTIMIZATION CYCLE   1            *
         *************************************************************
---------------------------------
CARTESIAN COORDINATES (ANGSTROEM)
---------------------------------
  N      0.000026    0.000002    0.000000
  H     -0.300826   -0.360634   -0.922280
  H     -0.300279   -0.682029    0.734224
  H     -0.356273    0.966137    0.168875
  N      4.339147    0.345296    0.052799
  C      2.892826    0.230202    0.035200
  H      4.664747    0.974896    0.826699
  H      4.778447   -0.593904    0.084199
  H      4.640547    0.821096   -0.838101
  H      2.462426    0.020802    1.010500
  H      2.461726    1.210302   -0.312100
  H      2.616826   -0.505498   -0.734500

----------------------------
CARTESIAN COORDINATES (A.U.)
----------------------------
  NO LB      ZA    FRAG     MASS         X           Y           Z
   0 N     7.0000    0    14.007    0.000050    0.000004    0.000000
   1 H     1.0000    0     1.008   -0.568479   -0.681500   -1.742856
   2 H     1.0000    0     1.008   -0.567446   -1.288848    1.387483
   3 H     1.0000    0     1.008   -0.673258    1.825734    0.319127
   4 N     7.0000    0    14.007    8.199800    0.652514    0.099776
   5 C     6.0000    0    12.011    5.466649    0.435019    0.066519
   6 H     1.0000    0     1.008    8.815095    1.842286    1.562236
   7 H     1.0000    0     1.008    9.029957   -1.122316    0.159114
   8 H     1.0000    0     1.008    8.769364    1.551646   -1.583781
   9 H     1.0000    0     1.008    4.653311    0.039310    1.909569
  10 H     1.0000    0     1.008    4.651989    2.287139   -0.589783
  11 H     1.0000    0     1.008    4.945085   -0.955253   -1.388003

--------------------------------
INTERNAL COORDINATES (ANGSTROEM)
--------------------------------
 N      0   0   0     0.000000000000     0.00000000     0.00000000
 H      1   0   0     1.034974072139     0.00000000     0.00000000
 H      1   2   0     1.046152383738   108.34877282     0.00000000
 H      1   2   3     1.043496114032   111.56623250   234.88703956
 N      1   2   3     4.353237481461   109.15930301   118.85216761
 C      5   1   2     1.451079160487     0.00000000     0.00000000
 H      5   1   2     1.049444009941   111.45624090   162.04419855
 H      5   1   2     1.037336536520   110.52852907   288.48654773
 H      5   1   2     1.054006835841   108.09473686    46.79317777
 H      6   5   8     1.086417327734   113.53362213    78.31245207
 H      6   5   8     1.125637823636   108.44688743   197.14505558
 H      6   5   8     1.099940262014   108.15897877   311.30995260

---------------------------
INTERNAL COORDINATES (A.U.)
---------------------------
 N      0   0   0     0.000000000000     0.00000000     0.00000000
 H      1   0   0     1.955817552052     0.00000000     0.00000000
 H      1   2   0     1.976941499613   108.34877282     0.00000000
 H      1   2   3     1.971921877332   111.56623250   234.88703956
 N      1   2   3     8.226426635883   109.15930301   118.85216761
 C      5   1   2     2.742142211961     0.00000000     0.00000000
 H      5   1   2     1.983161771672   111.45624090   162.04419855
 H      5   1   2     1.960281962734   110.52852907   288.48654773
 H      5   1   2     1.991784263021   108.09473686    46.79317777
 H      6   5   8     2.053031216563   113.53362213    78.31245207
 H      6   5   8     2.127147212655   108.44688743   197.14505558
 H      6   5   8     2.078585858881   108.15897877   311.30995260

---------------------
BASIS SET INFORMATION
---------------------
There are 3 groups of distinct atoms

 Group   1 Type N   : 7s4p1d contracted to 3s2p1d pattern {511/31/1}
 Group   2 Type H   : 4s1p contracted to 2s1p pattern {31/1}
 Group   3 Type C   : 7s4p1d contracted to 3s2p1d pattern {511/31/1}

Atom   0N    basis set group =>   1
Atom   1H    basis set group =>   2
Atom   2H    basis set group =>   2
Atom   3H    basis set group =>   2
Atom   4N    basis set group =>   1
Atom   5C    basis set group =>   3
Atom   6H    basis set group =>   2
Atom   7H    basis set group =>   2
Atom   8H    basis set group =>   2
Atom   9H    basis set group =>   2
Atom  10H    basis set group =>   2
Atom  11H    basis set group =>   2
-------------------------------
AUXILIARY BASIS SET INFORMATION
-------------------------------
There are 3 groups of distinct atoms

 Group   1 Type N   : 12s5p4d2f1g contracted to 6s4p3d1f1g pattern {711111/2111/211/2/1}
 Group   2 Type H   : 5s2p1d contracted to 3s1p1d pattern {311/2/1}
 Group   3 Type C   : 12s5p4d2f1g contracted to 6s4p3d1f1g pattern {711111/2111/211/2/1}

Atom   0N    basis set group =>   1
Atom   1H    basis set group =>   2
Atom   2H    basis set group =>   2
Atom   3H    basis set group =>   2
Atom   4N    basis set group =>   1
Atom   5C    basis set group =>   3
Atom   6H    basis set group =>   2
Atom   7H    basis set group =>   2
Atom   8H    basis set group =>   2
Atom   9H    basis set group =>   2
Atom  10H    basis set group =>   2
Atom  11H    basis set group =>   2


           ************************************************************
           *        Program running with 8 parallel MPI-processes     *
           *              working on a common directory               *
           ************************************************************
------------------------------------------------------------------------------
                           ORCA GTO INTEGRAL CALCULATION
                           -- RI-GTO INTEGRALS CHOSEN --
------------------------------------------------------------------------------

                         BASIS SET STATISTICS AND STARTUP INFO

Gaussian basis set:
 # of primitive gaussian shells          ...   81
 # of primitive gaussian functions       ...  135
 # of contracted shells                  ...   45
 # of contracted basis functions         ...   87
 Highest angular momentum                ...    2
 Maximum contraction depth               ...    5
Auxiliary gaussian basis set:
 # of primitive gaussian shells          ...  144
 # of primitive gaussian functions       ...  354
 # of contracted shells                  ...   90
 # of contracted aux-basis functions     ...  246
 Highest angular momentum                ...    4
 Maximum contraction depth               ...    7
Ratio of auxiliary to basis functions    ...  2.83
Integral package used                  ... LIBINT
 One Electron integrals                  ... done
 Ordering auxiliary basis shells         ... done
 Integral threshhold             Thresh  ...  2.500e-11
 Primitive cut-off               TCut    ...  2.500e-12
 Pre-screening matrix                    ... done
 Shell pair data                         ... 
 Ordering of the shell pairs             ... done (   0.000 sec) 988 of 1035 pairs
 Determination of significant pairs      ... done (   0.000 sec)
 Creation of shell pair data             ... done (   0.000 sec)
 Storage of shell pair data              ... done (   0.039 sec)
 Shell pair data done in (   0.040 sec)
 Computing two index integrals           ... done
 Cholesky decomposition of the V-matrix  ... done


Timings:
 Total evaluation time                   ...   0.190 sec (  0.003 min)
 One electron matrix time                ...   0.011 sec (  0.000 min) =  5.6%
 Schwartz matrix evaluation time         ...   0.115 sec (  0.002 min) = 60.4%
 Two index repulsion integral time       ...   0.002 sec (  0.000 min) =  0.9%
 Cholesky decomposition of V             ...   0.001 sec (  0.000 min) =  0.7%
 Three index repulsion integral time     ...   0.000 sec (  0.000 min) =  0.0%



           ************************************************************
           *        Program running with 8 parallel MPI-processes     *
           *              working on a common directory               *
           ************************************************************
-------------------------------------------------------------------------------
                                 ORCA SCF
-------------------------------------------------------------------------------

------------
SCF SETTINGS
------------
Hamiltonian:
 Density Functional     Method          .... DFT(GTOs)
 Exchange Functional    Exchange        .... PBE
   PBE kappa parameter   XKappa         ....  0.804000
   PBE mue parameter    XMuePBE         ....  0.219520
 Correlation Functional Correlation     .... PBE
   PBE beta parameter  CBetaPBE         ....  0.066725
 LDA part of GGA corr.  LDAOpt          .... PW91-LDA
 Gradients option       PostSCFGGA      .... off
   Density functional embedding theory  .... OFF
   NL short-range parameter             ....  6.400000
 RI-approximation to the Coulomb term is turned on
   Number of auxiliary basis functions  .... 246


General Settings:
 Integral files         IntName         .... default_orca_scan
 Hartree-Fock type      HFTyp           .... RHF
 Total Charge           Charge          ....    1
 Multiplicity           Mult            ....    1
 Number of Electrons    NEL             ....   28
 Basis Dimension        Dim             ....   87
 Nuclear Repulsion      ENuc            ....     87.3093305201 Eh

Convergence Acceleration:
 DIIS                   CNVDIIS         .... on
   Start iteration      DIISMaxIt       ....    12
   Startup error        DIISStart       ....  0.200000
   # of expansion vecs  DIISMaxEq       ....     5
   Bias factor          DIISBfac        ....   1.050
   Max. coefficient     DIISMaxC        ....  10.000
 Newton-Raphson         CNVNR           .... off
 SOSCF                  CNVSOSCF        .... on
   Start iteration      SOSCFMaxIt      ....   150
   Startup grad/error   SOSCFStart      ....  0.003300
 Level Shifting         CNVShift        .... on
   Level shift para.    LevelShift      ....    0.2500
   Turn off err/grad.   ShiftErr        ....    0.0010
 Zerner damping         CNVZerner       .... off
 Static damping         CNVDamp         .... on
   Fraction old density DampFac         ....    0.7000
   Max. Damping (<1)    DampMax         ....    0.9800
   Min. Damping (>=0)   DampMin         ....    0.0000
   Turn off err/grad.   DampErr         ....    0.1000
 Fernandez-Rico         CNVRico         .... off

SCF Procedure:
 Maximum # iterations   MaxIter         ....   250
 SCF integral mode      SCFMode         .... Direct
   Integral package                     .... LIBINT
 Reset frequency        DirectResetFreq ....    20
 Integral Threshold     Thresh          ....  2.500e-11 Eh
 Primitive CutOff       TCut            ....  2.500e-12 Eh

Convergence Tolerance:
 Convergence Check Mode ConvCheckMode   .... Total+1el-Energy
 Convergence forced     ConvForced      .... 0
 Energy Change          TolE            ....  1.000e-08 Eh
 1-El. energy change                    ....  1.000e-05 Eh
 Orbital Gradient       TolG            ....  1.000e-05
 Orbital Rotation angle TolX            ....  1.000e-05
 DIIS Error             TolErr          ....  5.000e-07


Diagonalization of the overlap matrix:
Smallest eigenvalue                        ... 6.370e-03
Time for diagonalization                   ...    0.003 sec
Threshold for overlap eigenvalues          ... 1.000e-08
Number of eigenvalues below threshold      ... 0
Time for construction of square roots      ...    0.002 sec
Total time needed                          ...    0.005 sec

-------------------
DFT GRID GENERATION
-------------------

General Integration Accuracy     IntAcc      ...  4.340
Radial Grid Type                 RadialGrid  ... Gauss-Chebyshev
Angular Grid (max. acc.)         AngularGrid ... Lebedev-110
Angular grid pruning method      GridPruning ... 3 (G Style)
Weight generation scheme         WeightScheme... Becke
Basis function cutoff            BFCut       ...    1.0000e-11
Integration weight cutoff        WCut        ...    1.0000e-14
Grids for H and He will be reduced by one unit

# of grid points (after initial pruning)     ...  12206 (   0.0 sec)
# of grid points (after weights+screening)   ...  11614 (   0.0 sec)
nearest neighbour list constructed           ...    0.0 sec
Grid point re-assignment to atoms done       ...    0.0 sec
Grid point division into batches done        ...    0.0 sec
Reduced shell lists constructed in    0.0 sec

Total number of grid points                  ...    11614
Total number of batches                      ...      189
Average number of points per batch           ...       61
Average number of grid points per atom       ...      968
Average number of shells per batch           ...    32.12 (71.38%)
Average number of basis functions per batch  ...    57.88 (66.53%)
Average number of large shells per batch     ...    26.60 (82.81%)
Average number of large basis fcns per batch ...    47.24 (81.62%)
Maximum spatial batch extension              ...  14.68, 16.73, 13.94 au
Average spatial batch extension              ...   0.47,  0.49,  0.40 au

Time for grid setup =    0.034 sec

------------------------------
INITIAL GUESS: MODEL POTENTIAL
------------------------------
Loading Hartree-Fock densities                     ... done
Calculating cut-offs                               ... done
Setting up the integral package                    ... done
Initializing the effective Hamiltonian             ... done
Starting the Coulomb interaction                   ... done (   0.0 sec)
Reading the grid                                   ... done
Mapping shells                                     ... done
Starting the XC term evaluation                    ... done (   0.0 sec)
  promolecular density results
     # of electrons  =     28.991885598
     EX              =    -20.834050160
     EC              =     -0.910805745
     EX+EC           =    -21.744855905
Transforming the Hamiltonian                       ... done (   0.0 sec)
Diagonalizing the Hamiltonian                      ... done (   0.0 sec)
Back transforming the eigenvectors                 ... done (   0.0 sec)
Now organizing SCF variables                       ... done
                      ------------------
                      INITIAL GUESS DONE (   0.2 sec)
                      ------------------
--------------
SCF ITERATIONS
--------------
ITER       Energy         Delta-E        Max-DP      RMS-DP      [F,P]     Damp
               ***  Starting incremental Fock matrix formation  ***
  0   -152.3187363422   0.000000000000 0.10090100  0.00403602  0.2694358 0.7000
  1   -152.3870065852  -0.068270243030 0.07136601  0.00282313  0.1023560 0.7000
                               ***Turning on DIIS***
  2   -152.4078871271  -0.020880541820 0.10201726  0.00381105  0.0214012 0.0000
  3   -152.4432909480  -0.035403820940 0.05540608  0.00188354  0.0668437 0.0000
  4   -152.4520519640  -0.008761016018 0.01620058  0.00056042  0.0084673 0.0000
                      *** Initiating the SOSCF procedure ***
                           *** Shutting down DIIS ***
                      *** Re-Reading the Fockian *** 
                      *** Removing any level shift *** 
ITER      Energy       Delta-E        Grad      Rot      Max-DP    RMS-DP
  5   -152.45248638  -0.0004344118  0.001102  0.001102  0.005547  0.000225
               *** Restarting incremental Fock matrix formation ***
  6   -152.45252498  -0.0000386061  0.000406  0.003225  0.005198  0.000173
  7   -152.45252853  -0.0000035493  0.000352  0.000469  0.001166  0.000039
  8   -152.45253072  -0.0000021857  0.000107  0.000732  0.001281  0.000042
  9   -152.45253109  -0.0000003711  0.000089  0.000108  0.000175  0.000008
 10   -152.45253112  -0.0000000292  0.000052  0.000079  0.000144  0.000005
 11   -152.45253113  -0.0000000159  0.000013  0.000038  0.000061  0.000002
 12   -152.45253114  -0.0000000048  0.000006  0.000006  0.000016  0.000001
 13   -152.45253114   0.0000000005  0.000003  0.000006  0.000013  0.000001
                  ***Gradient check signals convergence***
              ***Rediagonalizing the Fockian in SOSCF/NRSCF***

               *****************************************************
               *                     SUCCESS                       *
               *           SCF CONVERGED AFTER  14 CYCLES          *
               *****************************************************

Setting up the final grid:

General Integration Accuracy     IntAcc      ...  4.670
Radial Grid Type                 RadialGrid  ... Gauss-Chebyshev
Angular Grid (max. acc.)         AngularGrid ... Lebedev-302
Angular grid pruning method      GridPruning ... 3 (G Style)
Weight generation scheme         WeightScheme... Becke
Basis function cutoff            BFCut       ...    1.0000e-11
Integration weight cutoff        WCut        ...    1.0000e-14
Grids for H and He will be reduced by one unit

# of grid points (after initial pruning)     ...  49182 (   0.0 sec)
# of grid points (after weights+screening)   ...  46338 (   0.0 sec)
nearest neighbour list constructed           ...    0.0 sec
Grid point re-assignment to atoms done       ...    0.0 sec
Grid point division into batches done        ...    0.1 sec
Reduced shell lists constructed in    0.2 sec

Total number of grid points                  ...    46338
Total number of batches                      ...      731
Average number of points per batch           ...       63
Average number of grid points per atom       ...     3862
Average number of shells per batch           ...    29.88 (66.40%)
Average number of basis functions per batch  ...    54.29 (62.40%)
Average number of large shells per batch     ...    24.16 (80.86%)
Average number of large basis fcns per batch ...    41.84 (77.06%)
Maximum spatial batch extension              ...  12.80, 14.72, 14.32 au
Average spatial batch extension              ...   0.29,  0.33,  0.28 au

Final grid set up in    0.2 sec
Final integration                            ... done (   0.0 sec)
Change in XC energy                          ...    -0.000843195
Integrated number of electrons               ...    27.999984646
Previous integrated no of electrons          ...    27.994642748

----------------
TOTAL SCF ENERGY
----------------

Total Energy       :         -152.45337433 Eh           -4148.46722 eV

Components:
Nuclear Repulsion  :           87.30933052 Eh            2375.80767 eV
Electronic Energy  :         -239.76270485 Eh           -6524.27489 eV
One Electron Energy:         -371.84573641 Eh          -10118.43690 eV
Two Electron Energy:          132.08303155 Eh            3594.16201 eV

Virial components:
Potential Energy   :         -303.12888368 Eh           -8248.55627 eV
Kinetic Energy     :          150.67550935 Eh            4100.08905 eV
Virial Ratio       :            2.01179930


DFT components:
N(Alpha)           :       13.999992323077 electrons
N(Beta)            :       13.999992323077 electrons
N(Total)           :       27.999984646154 electrons
E(X)               :      -21.149152956658 Eh       
E(C)               :       -0.903298738705 Eh       
E(XC)              :      -22.052451695363 Eh       
DFET-embed. en.    :        0.000000000000 Eh       

---------------
SCF CONVERGENCE
---------------

  Last Energy change         ...   -8.7411e-10  Tolerance :   1.0000e-08
  Last MAX-Density change    ...    3.1078e-06  Tolerance :   1.0000e-07
  Last RMS-Density change    ...    1.5582e-07  Tolerance :   5.0000e-09
  Last Orbital Gradient      ...    1.8526e-06  Tolerance :   1.0000e-05
  Last Orbital Rotation      ...    1.5526e-06  Tolerance :   1.0000e-05

             **** THE GBW FILE WAS UPDATED (default_orca_scan.gbw) ****
             **** DENSITY FILE WAS UPDATED (default_orca_scan.scfp.tmp) ****
             **** ENERGY FILE WAS UPDATED (default_orca_scan.en.tmp) ****
----------------
ORBITAL ENERGIES
----------------

  NO   OCC          E(Eh)            E(eV) 
   0   2.0000     -14.329302      -389.9201 
   1   2.0000     -14.102607      -383.7514 
   2   2.0000     -10.125049      -275.5166 
   3   2.0000      -1.118527       -30.4367 
   4   2.0000      -0.871247       -23.7078 
   5   2.0000      -0.832094       -22.6424 
   6   2.0000      -0.743530       -20.2325 
   7   2.0000      -0.729025       -19.8378 
   8   2.0000      -0.638637       -17.3782 
   9   2.0000      -0.547480       -14.8977 
  10   2.0000      -0.538137       -14.6435 
  11   2.0000      -0.528604       -14.3840 
  12   2.0000      -0.525335       -14.2951 
  13   2.0000      -0.332287        -9.0420 
  14   0.0000      -0.207468        -5.6455 
  15   0.0000      -0.152318        -4.1448 
  16   0.0000      -0.142687        -3.8827 
  17   0.0000      -0.109601        -2.9824 
  18   0.0000      -0.066481        -1.8090 
  19   0.0000      -0.060381        -1.6430 
  20   0.0000      -0.051241        -1.3944 
  21   0.0000      -0.028875        -0.7857 
  22   0.0000      -0.002889        -0.0786 
  23   0.0000      -0.001732        -0.0471 
  24   0.0000       0.164068         4.4645 
  25   0.0000       0.173766         4.7284 
  26   0.0000       0.197962         5.3868 
  27   0.0000       0.286709         7.8017 
  28   0.0000       0.302480         8.2309 
  29   0.0000       0.329983         8.9793 
  30   0.0000       0.360068         9.7979 
  31   0.0000       0.374219        10.1830 
  32   0.0000       0.419080        11.4037 
  33   0.0000       0.425245        11.5715 
  34   0.0000       0.437284        11.8991 
  35   0.0000       0.446563        12.1516 
  36   0.0000       0.472745        12.8641 
  37   0.0000       0.516142        14.0449 
  38   0.0000       0.520127        14.1534 
  39   0.0000       0.588347        16.0097 
  40   0.0000       0.653184        17.7740 
  41   0.0000       0.656609        17.8672 
  42   0.0000       0.678825        18.4718 
  43   0.0000       0.805334        21.9143 
  44   0.0000       0.824511        22.4361 
  45   0.0000       0.873590        23.7716 
  46   0.0000       0.979496        26.6535 
  47   0.0000       1.042817        28.3765 
  48   0.0000       1.064027        28.9536 
  49   0.0000       1.095857        29.8198 
  50   0.0000       1.109568        30.1929 
  51   0.0000       1.216858        33.1124 
  52   0.0000       1.267976        34.5034 
  53   0.0000       1.363275        37.0966 
  54   0.0000       1.492234        40.6058 
  55   0.0000       1.494378        40.6641 
  56   0.0000       1.506707        40.9996 
  57   0.0000       1.523318        41.4516 
  58   0.0000       1.549231        42.1567 
  59   0.0000       1.600523        43.5524 
  60   0.0000       1.610078        43.8124 
  61   0.0000       1.640454        44.6390 
  62   0.0000       1.650933        44.9242 
  63   0.0000       1.664429        45.2914 
  64   0.0000       1.766520        48.0695 
  65   0.0000       1.794148        48.8212 
  66   0.0000       1.813198        49.3396 
  67   0.0000       1.890715        51.4490 
  68   0.0000       1.902818        51.7783 
  69   0.0000       2.010332        54.7039 
  70   0.0000       2.096643        57.0525 
  71   0.0000       2.108703        57.3807 
  72   0.0000       2.119223        57.6670 
  73   0.0000       2.135508        58.1101 
  74   0.0000       2.366787        64.4035 
  75   0.0000       2.390733        65.0552 
  76   0.0000       2.413545        65.6759 
  77   0.0000       2.545197        69.2583 
  78   0.0000       2.567576        69.8673 
  79   0.0000       2.683861        73.0316 
  80   0.0000       2.701191        73.5031 
  81   0.0000       2.731877        74.3381 
  82   0.0000       2.783805        75.7512 
  83   0.0000       2.929489        79.7154 
  84   0.0000       2.942272        80.0633 
  85   0.0000       3.031511        82.4916 
  86   0.0000       3.072533        83.6079 

                    ********************************
                    * MULLIKEN POPULATION ANALYSIS *
                    ********************************

-----------------------
MULLIKEN ATOMIC CHARGES
-----------------------
   0 N :   -0.314205
   1 H :    0.126434
   2 H :    0.132684
   3 H :    0.133511
   4 N :    0.017386
   5 C :   -0.058895
   6 H :    0.222277
   7 H :    0.220546
   8 H :    0.219028
   9 H :    0.106138
  10 H :    0.096203
  11 H :    0.098893
Sum of atomic charges:    1.0000000

--------------------------------
MULLIKEN REDUCED ORBITAL CHARGES
--------------------------------
  0 N s       :     3.429558  s :     3.429558
      pz      :     1.085477  p :     3.873964
      px      :     1.720106
      py      :     1.068381
      dz2     :     0.001766  d :     0.010682
      dxz     :     0.002662
      dyz     :     0.002454
      dx2y2   :     0.000726
      dxy     :     0.003074
  1 H s       :     0.828806  s :     0.828806
      pz      :     0.020193  p :     0.044760
      px      :     0.014311
      py      :     0.010256
  2 H s       :     0.823462  s :     0.823462
      pz      :     0.015802  p :     0.043853
      px      :     0.013841
      py      :     0.014210
  3 H s       :     0.822612  s :     0.822612
      pz      :     0.008679  p :     0.043877
      px      :     0.014315
      py      :     0.020882
  4 N s       :     3.314819  s :     3.314819
      pz      :     1.212342  p :     3.649863
      px      :     1.247352
      py      :     1.190169
      dz2     :     0.002288  d :     0.017932
      dxz     :     0.004585
      dyz     :     0.002700
      dx2y2   :     0.002567
      dxy     :     0.005791
  5 C s       :     3.067381  s :     3.067381
      pz      :     1.112424  p :     2.956413
      px      :     0.731302
      py      :     1.112687
      dz2     :     0.007130  d :     0.035101
      dxz     :     0.005376
      dyz     :     0.004317
      dx2y2   :     0.013132
      dxy     :     0.005147
  6 H s       :     0.735291  s :     0.735291
      pz      :     0.018960  p :     0.042433
      px      :     0.008860
      py      :     0.014614
  7 H s       :     0.736366  s :     0.736366
      pz      :     0.008140  p :     0.043088
      px      :     0.010765
      py      :     0.024182
  8 H s       :     0.738085  s :     0.738085
      pz      :     0.022000  p :     0.042887
      px      :     0.008942
      py      :     0.011945
  9 H s       :     0.869764  s :     0.869764
      pz      :     0.012170  p :     0.024099
      px      :     0.006389
      py      :     0.005540
 10 H s       :     0.881381  s :     0.881381
      pz      :     0.005578  p :     0.022416
      px      :     0.005690
      py      :     0.011149
 11 H s       :     0.877838  s :     0.877838
      pz      :     0.009231  p :     0.023270
      px      :     0.004655
      py      :     0.009383


                     *******************************
                     * LOEWDIN POPULATION ANALYSIS *
                     *******************************

----------------------
LOEWDIN ATOMIC CHARGES
----------------------
   0 N :   -0.145415
   1 H :    0.071795
   2 H :    0.077336
   3 H :    0.075657
   4 N :    0.287519
   5 C :   -0.001365
   6 H :    0.153389
   7 H :    0.148085
   8 H :    0.155805
   9 H :    0.055228
  10 H :    0.063613
  11 H :    0.058353

-------------------------------
LOEWDIN REDUCED ORBITAL CHARGES
-------------------------------
  0 N s       :     3.136663  s :     3.136663
      pz      :     1.153151  p :     3.982163
      px      :     1.688434
      py      :     1.140578
      dz2     :     0.006029  d :     0.026590
      dxz     :     0.004443
      dyz     :     0.008529
      dx2y2   :     0.002109
      dxy     :     0.005480
  1 H s       :     0.812582  s :     0.812582
      pz      :     0.052469  p :     0.115623
      px      :     0.041562
      py      :     0.021592
  2 H s       :     0.810368  s :     0.810368
      pz      :     0.037832  p :     0.112296
      px      :     0.039821
      py      :     0.034644
  3 H s       :     0.811111  s :     0.811111
      pz      :     0.016679  p :     0.113232
      px      :     0.041743
      py      :     0.054811
  4 N s       :     3.012035  s :     3.012035
      pz      :     1.213681  p :     3.653162
      px      :     1.240038
      py      :     1.199443
      dz2     :     0.007617  d :     0.047284
      dxz     :     0.009300
      dyz     :     0.008748
      dx2y2   :     0.008734
      dxy     :     0.012885
  5 C s       :     2.852625  s :     2.852625
      pz      :     1.113507  p :     3.061598
      px      :     0.831885
      py      :     1.116206
      dz2     :     0.018295  d :     0.087142
      dxz     :     0.012690
      dyz     :     0.011578
      dx2y2   :     0.032927
      dxy     :     0.011653
  6 H s       :     0.741860  s :     0.741860
      pz      :     0.045743  p :     0.104751
      px      :     0.023329
      py      :     0.035679
  7 H s       :     0.743899  s :     0.743899
      pz      :     0.017083  p :     0.108016
      px      :     0.028848
      py      :     0.062085
  8 H s       :     0.740974  s :     0.740974
      pz      :     0.054101  p :     0.103221
      px      :     0.022581
      py      :     0.026539
  9 H s       :     0.872553  s :     0.872553
      pz      :     0.038638  p :     0.072219
      px      :     0.018098
      py      :     0.015483
 10 H s       :     0.872472  s :     0.872472
      pz      :     0.014899  p :     0.063915
      px      :     0.015052
      py      :     0.033964
 11 H s       :     0.873353  s :     0.873353
      pz      :     0.028306  p :     0.068294
      px      :     0.012395
      py      :     0.027593


                      *****************************
                      * MAYER POPULATION ANALYSIS *
                      *****************************

  NA   - Mulliken gross atomic population
  ZA   - Total nuclear charge
  QA   - Mulliken gross atomic charge
  VA   - Mayer's total valence
  BVA  - Mayer's bonded valence
  FA   - Mayer's free valence

  ATOM       NA         ZA         QA         VA         BVA        FA
  0 N      7.3142     7.0000    -0.3142     3.0968     3.0968     0.0000
  1 H      0.8736     1.0000     0.1264     0.9895     0.9895     0.0000
  2 H      0.8673     1.0000     0.1327     0.9878     0.9878    -0.0000
  3 H      0.8665     1.0000     0.1335     0.9873     0.9873     0.0000
  4 N      6.9826     7.0000     0.0174     3.7334     3.7334    -0.0000
  5 C      6.0589     6.0000    -0.0589     3.8941     3.8941    -0.0000
  6 H      0.7777     1.0000     0.2223     0.9545     0.9545    -0.0000
  7 H      0.7795     1.0000     0.2205     0.9556     0.9556    -0.0000
  8 H      0.7810     1.0000     0.2190     0.9554     0.9554    -0.0000
  9 H      0.8939     1.0000     0.1061     1.0235     1.0235    -0.0000
 10 H      0.9038     1.0000     0.0962     1.0121     1.0121    -0.0000
 11 H      0.9011     1.0000     0.0989     1.0156     1.0156     0.0000

  Mayer bond orders larger than 0.1
B(  0-N ,  1-H ) :   0.9836 B(  0-N ,  2-H ) :   0.9812 B(  0-N ,  3-H ) :   0.9801 
B(  4-N ,  5-C ) :   0.9403 B(  4-N ,  6-H ) :   0.9268 B(  4-N ,  7-H ) :   0.9299 
B(  4-N ,  8-H ) :   0.9309 B(  5-C ,  9-H ) :   0.9643 B(  5-C , 10-H ) :   0.9651 
B(  5-C , 11-H ) :   0.9655 

-------
TIMINGS
-------

Total SCF time: 0 days 0 hours 0 min 2 sec 

Total time                  ....       2.368 sec
Sum of individual times     ....       2.246 sec  ( 94.8%)

Fock matrix formation       ....       1.870 sec  ( 79.0%)
  Split-RI-J                ....       1.601 sec  ( 85.6% of F)
  XC integration            ....       0.241 sec  ( 12.9% of F)
    Basis function eval.    ....       0.089 sec  ( 36.8% of XC)
    Density eval.           ....       0.030 sec  ( 12.6% of XC)
    XC-Functional eval.     ....       0.024 sec  ( 10.0% of XC)
    XC-Potential eval.      ....       0.046 sec  ( 19.2% of XC)
Diagonalization             ....       0.006 sec  (  0.2%)
Density matrix formation    ....       0.001 sec  (  0.1%)
Population analysis         ....       0.003 sec  (  0.1%)
Initial guess               ....       0.118 sec  (  5.0%)
Orbital Transformation      ....       0.000 sec  (  0.0%)
Orbital Orthonormalization  ....       0.000 sec  (  0.0%)
DIIS solution               ....       0.002 sec  (  0.1%)
SOSCF solution              ....       0.005 sec  (  0.2%)
Grid generation             ....       0.240 sec  ( 10.1%)


-------------------------------------------------------------------------------
                          DFT DISPERSION CORRECTION                            
                                                                               
                              DFTD3 V3.1  Rev 1                                
                          USING Becke-Johnson damping                          
-------------------------------------------------------------------------------
The PBE functional is recognized
Active option DFTDOPT                   ...         4   

molecular C6(AA) [au] = 780.012864 


            DFT-D V3
 parameters
 s6 scaling factor         :     1.0000 
 a1 scaling factor         :     0.4289 
 s8 scaling factor         :     0.7875 
 a2 scaling factor         :     4.4407 
 ad hoc parameters k1-k3   :    16.0000     1.3333    -4.0000 

 Edisp/kcal,au: -3.471242618729  -0.005531776638 
 E6   /kcal   :  -2.599565126 
 E8   /kcal   :  -0.871677492 
 % E8         :  25.111396357 

-------------------------   ----------------
Dispersion correction           -0.005531777
-------------------------   ----------------


-------------------------   --------------------
FINAL SINGLE POINT ENERGY      -152.458906109777
-------------------------   --------------------



           ************************************************************
           *        Program running with 8 parallel MPI-processes     *
           *              working on a common directory               *
           ************************************************************
------------------------------------------------------------------------------
                         ORCA SCF GRADIENT CALCULATION
------------------------------------------------------------------------------

Gradient of the Kohn-Sham DFT energy:
Kohn-Sham wavefunction type      ... RKS
Hartree-Fock exchange scaling    ...    0.000
Number of operators              ...    1
Number of atoms                  ...   12
Basis set dimensions             ...   87
Integral neglect threshold       ... 2.5e-11
Integral primitive cutoff        ... 2.5e-12

Nuclear repulsion gradient       ... done
One Electron Gradient            ... done
Pre-screening matrix             ... done
RI-J gradient                    ... done
Exchange-correlation gradient    ... done
Dispersion correction            ... done

------------------
CARTESIAN GRADIENT
------------------

   1   N   :   -0.008183721    0.003349793   -0.004297390
   2   H   :    0.003628455   -0.006442690   -0.008598502
   3   H   :    0.002212681   -0.016155310    0.011078050
   4   H   :    0.003555807    0.019064365    0.001745223
   5   N   :   -0.026880594   -0.018506929    0.008109670
   6   C   :    0.035912869   -0.020522874    0.021539086
   7   H   :   -0.003202647    0.011447598    0.004271272
   8   H   :   -0.007383963   -0.004685313   -0.005386775
   9   H   :   -0.003126598    0.009084679   -0.010112496
  10   H   :    0.002067856    0.008058275   -0.008422631
  11   H   :   -0.003407912    0.010738818   -0.006022417
  12   H   :    0.004807766    0.004569586   -0.003903090

Difference to translation invariance:
           :    0.0000000000    0.0000000000    0.0000000000

Norm of the cartesian gradient     ...    0.0715605712
RMS gradient                       ...    0.0119267619
MAX gradient                       ...    0.0359128695

-------
TIMINGS
-------

Total SCF gradient time            ...        0.552 sec

One electron gradient       ....       0.007 sec  (  1.2%)
Prescreening matrices       ....       0.004 sec  (  0.7%)
RI-J Coulomb gradient       ....       0.122 sec  ( 22.2%)
XC gradient                 ....       0.119 sec  ( 21.6%)
------------------------------------------------------------------------------
                         ORCA GEOMETRY RELAXATION STEP
------------------------------------------------------------------------------

Reading the OPT-File                    .... done
Getting information on internals        .... done
Copying old internal coords+grads       .... done
Making the new internal coordinates     .... (new redundants).... done
Validating the new internal coordinates .... (new redundants).... done
Calculating the B-matrix                .... done
Calculating the G,G- and P matrices     .... done
Transforming gradient to internals      .... done
Projecting the internal gradient        .... done
Number of atoms                         ....  12
Number of internal coordinates          ....  73
Current Energy                          ....  -152.458906110 Eh
Current gradient norm                   ....     0.071560571 Eh/bohr
Maximum allowed component of the step   ....  0.300
Current trust radius                    ....  0.300
Evaluating the initial hessian          ....  (Almloef) done
Projecting the Hessian                  .... done
Forming the augmented Hessian           .... done
Diagonalizing the augmented Hessian     .... done
Last element of RFO vector              ....  0.978425772
Lowest eigenvalues of augmented Hessian:
 -0.007050476  0.000385198  0.001381753  0.009348479  0.009863774
Length of the computed step             ....  0.211154152
The final length of the internal step   ....  0.211154152
Converting the step to cartesian space:
 Initial RMS(Int)=    0.0247137242
Transforming coordinates:
 Iter   0:  RMS(Cart)=    0.0314125175 RMS(Int)=    0.0249082364
 Iter   1:  RMS(Cart)=    0.0007370587 RMS(Int)=    0.0006208304
 Iter   2:  RMS(Cart)=    0.0000191585 RMS(Int)=    0.0000179769
 Iter   3:  RMS(Cart)=    0.0000009856 RMS(Int)=    0.0000005616
 Iter   4:  RMS(Cart)=    0.0000000506 RMS(Int)=    0.0000000387
Imposing constraints:
 Iter   0:  RMS(Cart)=    0.0000000001 RMS(Int)=    0.0000000000
CONVERGED
done
Storing new coordinates                 .... done

                                .--------------------.
          ----------------------|Geometry convergence|-------------------------
          Item                value                   Tolerance       Converged
          ---------------------------------------------------------------------
          RMS gradient        0.0050188297            0.0005000000      NO
          MAX gradient        0.0178967582            0.0020000000      NO
          RMS step            0.0247137242            0.0070000000      NO
          MAX step            0.0476452802            0.0100000000      NO
          ........................................................
          Max(Bonds)      0.0252      Max(Angles)    2.66
          Max(Dihed)        2.70      Max(Improp)    0.00
          ---------------------------------------------------------------------

The optimization has not yet converged - more geometry cycles are needed


    ---------------------------------------------------------------------------
                         Redundant Internal Coordinates
                            (Angstroem and degrees)

        Definition                    Value    dE/dq     Step     New-Value
    ----------------------------------------------------------------------------
     1. B(H   1,N   0)                1.0350  0.008648 -0.0120    1.0230   
     2. B(H   2,N   0)                1.0462  0.017897 -0.0244    1.0217   
     3. B(H   3,N   0)                1.0435  0.016054 -0.0232    1.0203   
     4. B(C   5,H   2)                3.3936 -0.000674  0.0112    3.4048   
     5. B(C   5,N   0)                2.9022  0.000391 -0.0034    2.8987   
     6. B(C   5,H   1)                3.3860 -0.001190  0.0136    3.3996   
     7. B(C   5,H   3)                3.3341 -0.000629  0.0167    3.3508   
     8. B(C   5,N   4)                1.4510 -0.040712 -0.0000    1.4510 C 
     9. B(H   6,N   4)                1.0494  0.009028 -0.0125    1.0369   
    10. B(H   7,N   4)                1.0373  0.000950 -0.0013    1.0361   
    11. B(H   8,N   4)                1.0540  0.011753 -0.0166    1.0374   
    12. B(H   9,H   2)                2.8641 -0.001399  0.0059    2.8700   
    13. B(H   9,H   3)                3.0898 -0.000068  0.0163    3.1062   
    14. B(H   9,C   5)                1.0864 -0.010537  0.0142    1.1006   
    15. B(H   9,N   0)                2.6618  0.000820 -0.0071    2.6547   
    16. B(H   9,H   1)                3.3936  0.000855  0.0025    3.3962   
    17. B(H  10,H   1)                3.2360  0.002335  0.0058    3.2418   
    18. B(H  10,C   5)                1.1256  0.010614 -0.0204    1.1053   
    19. B(H  10,H   3)                2.8692 -0.006147  0.0252    2.8944   
    20. B(H  10,N   0)                2.7608  0.003647 -0.0103    2.7505   
    21. B(H  11,H   1)                2.9273 -0.003426  0.0183    2.9456   
    22. B(H  11,C   5)                1.0999 -0.003500  0.0024    1.1023   
    23. B(H  11,H   2)                3.2708  0.001135  0.0045    3.2752   
    24. B(H  11,H   3)                3.4382  0.003795  0.0048    3.4429   
    25. B(H  11,N   0)                2.7645  0.000671 -0.0072    2.7573   
    26. A(H   2,N   0,C   5)          109.23 -0.007270    1.96    111.19   
    27. A(H   1,N   0,H   2)          108.35  0.004153   -0.75    107.60   
    28. A(H   2,N   0,H   3)          113.08  0.006985   -2.65    110.43   
    29. A(H   1,N   0,C   5)          109.16 -0.004193    1.63    110.79   
    30. A(H   1,N   0,H   3)          111.57  0.005216   -2.01    109.56   
    31. A(H   3,N   0,C   5)          105.36 -0.005878    2.13    107.49   
    32. A(C   5,N   4,H   8)          108.09 -0.007231    1.82    109.91   
    33. A(H   6,N   4,H   8)          105.29  0.003994    0.13    105.43   
    34. A(C   5,N   4,H   6)          111.46 -0.004795    0.70    112.15   
    35. A(C   5,N   4,H   7)          110.53 -0.008194    1.09    111.62   
    36. A(H   6,N   4,H   7)          112.92  0.009024   -2.66    110.26   
    37. A(H   7,N   4,H   8)          108.25  0.007544   -0.99    107.26   
    38. A(N   4,C   5,H  11)          108.16 -0.004343    1.08    109.24   
    39. A(H   9,C   5,H  11)          113.57  0.002400   -1.73    111.84   
    40. A(H  10,C   5,H  11)          105.69 -0.000581    0.79    106.48   
    41. A(N   0,C   5,H   9)           66.47  0.000083   -0.18     66.28   
    42. A(N   4,C   5,H   9)          113.53  0.004864   -1.22    112.31   
    43. A(N   0,C   5,H  10)           71.55  0.001174   -0.29     71.27   
    44. A(N   0,C   5,H  11)           71.84  0.000268   -0.22     71.62   
    45. A(N   4,C   5,H  10)          108.45 -0.002355    0.95    109.39   
    46. A(H   9,C   5,H  10)          107.04 -0.000495    0.37    107.42   
    47. D(H   8,N   4,N   0,H   3)    -73.14  0.000751   -1.09    -74.23   
    48. D(H   7,N   4,N   0,H   1)    -71.51  0.002611   -2.17    -73.68   
    49. D(H   8,N   4,N   0,H   2)    165.10 -0.001111   -0.01    165.08   
    50. D(H   7,N   4,N   0,H   2)     46.79  0.000663   -0.97     45.82   
    51. D(H   6,N   4,N   0,H   2)    -79.65 -0.003303    1.78    -77.88   
    52. D(H   6,N   4,N   0,H   3)     42.11 -0.001441    0.70     42.81   
    53. D(H   6,N   4,N   0,H   1)    162.04 -0.001355    0.58    162.62   
    54. D(H   7,N   4,N   0,H   3)    168.55  0.002525   -2.05    166.50   
    55. D(H   8,N   4,N   0,H   1)     46.79  0.000837   -1.21     45.58   
    56. D(H  10,C   5,N   0,H   3)    -28.59 -0.000327    0.35    -28.24   
    57. D(H  10,C   5,N   4,H   8)    -44.55  0.002885   -1.82    -46.37   
    58. D(H  11,C   5,N   4,H   7)    -48.69 -0.001321   -0.38    -49.07   
    59. D(H  11,C   5,N   0,H   2)     95.48  0.000118    0.03     95.51   
    60. D(H   9,C   5,N   0,H   3)     90.24 -0.001799    1.13     91.37   
    61. D(H  11,C   5,N   4,H   6)   -175.13 -0.003283    1.75   -173.38   
    62. D(H  10,C   5,N   0,H   1)     91.34  0.000363    0.02     91.37   
    63. D(H   9,C   5,N   4,H   8)   -163.38  0.002092   -2.17   -165.56   
    64. D(H  10,C   5,N   0,H   2)   -150.36 -0.001297    1.21   -149.14   
    65. D(H   9,C   5,N   4,H   6)    -48.13  0.000030   -0.56    -48.69   
    66. D(H  10,C   5,N   4,H   6)     70.70  0.000823   -0.21     70.49   
    67. D(H  10,C   5,N   4,H   7)   -162.85  0.002785   -2.34   -165.20   
    68. D(H  11,C   5,N   0,H   3)   -142.76  0.001089   -0.83   -143.59   
    69. D(H   9,C   5,N   0,H   1)   -149.83 -0.001109    0.80   -149.02   
    70. D(H   9,C   5,N   4,H   7)     78.31  0.001992   -2.70     75.62   
    71. D(H  11,C   5,N   4,H   8)     69.62 -0.001221    0.14     69.76   
    72. D(H  11,C   5,N   0,H   1)    -22.82  0.001779   -1.16    -23.99   
    73. D(H   9,C   5,N   0,H   2)    -31.52 -0.002770    1.99    -29.53   
    ----------------------------------------------------------------------------

         *************************************************************
         *                GEOMETRY OPTIMIZATION CYCLE   2            *
         *************************************************************
---------------------------------
CARTESIAN COORDINATES (ANGSTROEM)
---------------------------------
  N      0.005681   -0.000050    0.005040
  H     -0.327914   -0.348828   -0.897206
  H     -0.311824   -0.653452    0.723862
  H     -0.380374    0.929363    0.174495
  N      4.340688    0.355786    0.047988
  C      2.894734    0.240880    0.010391
  H      4.664426    0.964767    0.822284
  H      4.795915   -0.573023    0.107438
  H      4.681211    0.809922   -0.820381
  H      2.468347    0.004655    0.997209
  H      2.458767    1.202368   -0.316745
  H      2.609686   -0.505720   -0.748856

----------------------------
CARTESIAN COORDINATES (A.U.)
----------------------------
  NO LB      ZA    FRAG     MASS         X           Y           Z
   0 N     7.0000    0    14.007    0.010736   -0.000095    0.009525
   1 H     1.0000    0     1.008   -0.619667   -0.659188   -1.695475
   2 H     1.0000    0     1.008   -0.589262   -1.234845    1.367901
   3 H     1.0000    0     1.008   -0.718802    1.756241    0.329748
   4 N     7.0000    0    14.007    8.202712    0.672337    0.090684
   5 C     6.0000    0    12.011    5.470254    0.455197    0.019635
   6 H     1.0000    0     1.008    8.814487    1.823146    1.553891
   7 H     1.0000    0     1.008    9.062966   -1.082857    0.203028
   8 H     1.0000    0     1.008    8.846206    1.530531   -1.550295
   9 H     1.0000    0     1.008    4.664499    0.008796    1.884452
  10 H     1.0000    0     1.008    4.646396    2.272145   -0.598561
  11 H     1.0000    0     1.008    4.931591   -0.955672   -1.415133

--------------------------------
INTERNAL COORDINATES (ANGSTROEM)
--------------------------------
 N      0   0   0     0.000000000000     0.00000000     0.00000000
 H      1   0   0     1.023220584123     0.00000000     0.00000000
 H      1   2   0     1.021982813014   107.51680374     0.00000000
 H      1   2   3     1.020569120338   109.48130161   240.08853174
 N      1   2   3     4.349798734550   111.19273798   121.44056443
 C      5   1   2     1.450999999831     0.93104936    28.82360190
 H      5   1   2     1.036918013615   111.50402329   162.62882216
 H      5   1   2     1.036075069702   111.41453917   286.30690383
 H      5   1   2     1.037429277820   110.77300805    45.58832233
 H      6   5   8     1.100644928336   112.32223705    75.62336425
 H      6   5   8     1.105234541214   109.38189958   194.79314763
 H      6   5   8     1.102324199085   109.21849770   310.94324715

---------------------------
INTERNAL COORDINATES (A.U.)
---------------------------
 N      0   0   0     0.000000000000     0.00000000     0.00000000
 H      1   0   0     1.933606678584     0.00000000     0.00000000
 H      1   2   0     1.931267630172   107.51680374     0.00000000
 H      1   2   3     1.928596138176   109.48130161   240.08853174
 N      1   2   3     8.219928345977   111.19273798   121.44056443
 C      5   1   2     2.741992620000     0.93104936    28.82360190
 H      5   1   2     1.959491069062   111.50402329   162.62882216
 H      5   1   2     1.957898135921   111.41453917   286.30690383
 H      5   1   2     1.960457218392   110.77300805    45.58832233
 H      6   5   8     2.079917485244   112.32223705    75.62336425
 H      6   5   8     2.088590596644   109.38189958   194.79314763
 H      6   5   8     2.083090847064   109.21849770   310.94324715



           ************************************************************
           *        Program running with 8 parallel MPI-processes     *
           *              working on a common directory               *
           ************************************************************
 One Electron integrals                  ... done
 Pre-screening matrix                    ... done


           ************************************************************
           *        Program running with 8 parallel MPI-processes     *
           *              working on a common directory               *
           ************************************************************

Diagonalization of the overlap matrix:
Smallest eigenvalue                        ... 6.410e-03
Time for diagonalization                   ...    0.003 sec
Threshold for overlap eigenvalues          ... 1.000e-08
Number of eigenvalues below threshold      ... 0
Time for construction of square roots      ...    0.001 sec
Total time needed                          ...    0.005 sec

-------------------
DFT GRID GENERATION
-------------------

General Integration Accuracy     IntAcc      ...  4.340
Radial Grid Type                 RadialGrid  ... Gauss-Chebyshev
Angular Grid (max. acc.)         AngularGrid ... Lebedev-110
Angular grid pruning method      GridPruning ... 3 (G Style)
Weight generation scheme         WeightScheme... Becke
Basis function cutoff            BFCut       ...    1.0000e-11
Integration weight cutoff        WCut        ...    1.0000e-14
Grids for H and He will be reduced by one unit

# of grid points (after initial pruning)     ...  12206 (   0.0 sec)
# of grid points (after weights+screening)   ...  11613 (   0.0 sec)
nearest neighbour list constructed           ...    0.0 sec
Grid point re-assignment to atoms done       ...    0.0 sec
Grid point division into batches done        ...    0.0 sec
Reduced shell lists constructed in    0.0 sec

Total number of grid points                  ...    11613
Total number of batches                      ...      187
Average number of points per batch           ...       62
Average number of grid points per atom       ...      968
Average number of shells per batch           ...    32.20 (71.56%)
Average number of basis functions per batch  ...    58.28 (66.99%)
Average number of large shells per batch     ...    26.64 (82.73%)
Average number of large basis fcns per batch ...    47.28 (81.13%)
Maximum spatial batch extension              ...  14.68, 16.69, 14.31 au
Average spatial batch extension              ...   0.44,  0.48,  0.41 au

Time for grid setup =    0.028 sec

--------------
SCF ITERATIONS
--------------
ITER       Energy         Delta-E        Max-DP      RMS-DP      [F,P]     Damp
               ***  Starting incremental Fock matrix formation  ***
  0   -152.4561854394   0.000000000000 0.00499213  0.00022447  0.0090327 0.7000
                      *** Initiating the SOSCF procedure ***
                      *** Re-Reading the Fockian *** 
                      *** Removing any level shift *** 
ITER      Energy       Delta-E        Grad      Rot      Max-DP    RMS-DP
  1   -152.45648805  -0.0003026107  0.001170  0.001170  0.014024  0.000629
               *** Restarting incremental Fock matrix formation ***
  2   -152.45714529  -0.0006572357  0.001325  0.002237  0.006604  0.000266
  3   -152.45710700   0.0000382904  0.002417  0.001512  0.004177  0.000174
  4   -152.45717164  -0.0000646423  0.000083  0.000174  0.000356  0.000018
  5   -152.45717166  -0.0000000236  0.000142  0.000115  0.000213  0.000009
  6   -152.45717188  -0.0000002197  0.000047  0.000061  0.000114  0.000004
  7   -152.45717188  -0.0000000013  0.000036  0.000027  0.000055  0.000002
                  ***Gradient check signals convergence***
              ***Rediagonalizing the Fockian in SOSCF/NRSCF***

               *****************************************************
               *                     SUCCESS                       *
               *           SCF CONVERGED AFTER   8 CYCLES          *
               *****************************************************

Setting up the final grid:

General Integration Accuracy     IntAcc      ...  4.670
Radial Grid Type                 RadialGrid  ... Gauss-Chebyshev
Angular Grid (max. acc.)         AngularGrid ... Lebedev-302
Angular grid pruning method      GridPruning ... 3 (G Style)
Weight generation scheme         WeightScheme... Becke
Basis function cutoff            BFCut       ...    1.0000e-11
Integration weight cutoff        WCut        ...    1.0000e-14
Grids for H and He will be reduced by one unit

# of grid points (after initial pruning)     ...  49182 (   0.0 sec)
# of grid points (after weights+screening)   ...  46325 (   0.0 sec)
nearest neighbour list constructed           ...    0.0 sec
Grid point re-assignment to atoms done       ...    0.0 sec
Grid point division into batches done        ...    0.1 sec
Reduced shell lists constructed in    0.1 sec

Total number of grid points                  ...    46325
Total number of batches                      ...      730
Average number of points per batch           ...       63
Average number of grid points per atom       ...     3860
Average number of shells per batch           ...    29.90 (66.45%)
Average number of basis functions per batch  ...    54.25 (62.35%)
Average number of large shells per batch     ...    24.32 (81.34%)
Average number of large basis fcns per batch ...    42.22 (77.82%)
Maximum spatial batch extension              ...  12.49, 14.58, 14.38 au
Average spatial batch extension              ...   0.30,  0.34,  0.28 au

Final grid set up in    0.2 sec
Final integration                            ... done (   0.0 sec)
Change in XC energy                          ...    -0.000824176
Integrated number of electrons               ...    27.999988252
Previous integrated no of electrons          ...    27.994679089
Total Energy       :         -152.45799607 Eh           -4148.59298 eV
  Last Energy change         ...   -1.6883e-08  Tolerance :   1.0000e-08
  Last MAX-Density change    ...    1.1187e-05  Tolerance :   1.0000e-07
             **** THE GBW FILE WAS UPDATED (default_orca_scan.gbw) ****
             **** DENSITY FILE WAS UPDATED (default_orca_scan.scfp.tmp) ****
             **** ENERGY FILE WAS UPDATED (default_orca_scan.en.tmp) ****
Total SCF time: 0 days 0 hours 0 min 1 sec 


-------------------------------------------------------------------------------
                          DFT DISPERSION CORRECTION                            
                                                                               
                              DFTD3 V3.1  Rev 1                                
                          USING Becke-Johnson damping                          
-------------------------------------------------------------------------------
-------------------------   ----------------
Dispersion correction           -0.005522155
-------------------------   ----------------


-------------------------   --------------------
FINAL SINGLE POINT ENERGY      -152.463518229352
-------------------------   --------------------



           ************************************************************
           *        Program running with 8 parallel MPI-processes     *
           *              working on a common directory               *
           ************************************************************
------------------------------------------------------------------------------
                         ORCA SCF GRADIENT CALCULATION
------------------------------------------------------------------------------

Gradient of the Kohn-Sham DFT energy:
Kohn-Sham wavefunction type      ... RKS
Hartree-Fock exchange scaling    ...    0.000
Number of operators              ...    1
Number of atoms                  ...   12
Basis set dimensions             ...   87
Integral neglect threshold       ... 2.5e-11
Integral primitive cutoff        ... 2.5e-12

Nuclear repulsion gradient       ... done
One Electron Gradient            ... done
Pre-screening matrix             ... done
RI-J gradient                    ... done
Exchange-correlation gradient    ... done
Dispersion correction            ... done

------------------
CARTESIAN GRADIENT
------------------

   1   N   :   -0.017177497    0.003012505    0.002479312
   2   H   :    0.004912501   -0.001579810    0.001029263
   3   H   :    0.005844817   -0.001276178   -0.002518471
   4   H   :    0.007625911   -0.000310389   -0.000959624
   5   N   :   -0.025812449   -0.007039421    0.003762511
   6   C   :    0.034942793   -0.004367925    0.006968957
   7   H   :   -0.003332035    0.003545722   -0.002246923
   8   H   :   -0.004499832   -0.001760902   -0.003998197
   9   H   :   -0.003911354    0.002417523    0.000612049
  10   H   :   -0.000923390    0.004575663    0.000226894
  11   H   :    0.000031180    0.000119542   -0.001958198
  12   H   :    0.002299357    0.002663668   -0.003397575

Difference to translation invariance:
           :    0.0000000000    0.0000000000    0.0000000000

Norm of the cartesian gradient     ...    0.0509618473
RMS gradient                       ...    0.0084936412
MAX gradient                       ...    0.0349427929

-------
TIMINGS
-------

Total SCF gradient time            ...        0.540 sec

One electron gradient       ....       0.007 sec  (  1.3%)
Prescreening matrices       ....       0.005 sec  (  0.9%)
RI-J Coulomb gradient       ....       0.110 sec  ( 20.3%)
XC gradient                 ....       0.118 sec  ( 21.8%)
------------------------------------------------------------------------------
                         ORCA GEOMETRY RELAXATION STEP
------------------------------------------------------------------------------

Reading the OPT-File                    .... done
Getting information on internals        .... done
Copying old internal coords+grads       .... done
Making the new internal coordinates     .... (new redundants).... done
Validating the new internal coordinates .... (new redundants).... done
Calculating the B-matrix                .... done
Calculating the G,G- and P matrices     .... done
Transforming gradient to internals      .... done
Projecting the internal gradient        .... done
Number of atoms                         ....  12
Number of internal coordinates          ....  73
Current Energy                          ....  -152.463518229 Eh
Current gradient norm                   ....     0.050961847 Eh/bohr
Maximum allowed component of the step   ....  0.300
Current trust radius                    ....  0.300
Updating the Hessian (BFGS)             .... done
Forming the augmented Hessian           .... done
Diagonalizing the augmented Hessian     .... done
Last element of RFO vector              ....  0.965563014
Lowest eigenvalues of augmented Hessian:
 -0.003017882  0.000405521  0.001381768  0.009349576  0.009869794
Length of the computed step             ....  0.269448291
The final length of the internal step   ....  0.269448291
Converting the step to cartesian space:
 Initial RMS(Int)=    0.0315365371
Transforming coordinates:
 Iter   0:  RMS(Cart)=    0.0315082383 RMS(Int)=    0.0317633510
 Iter   1:  RMS(Cart)=    0.0006655918 RMS(Int)=    0.0005979792
 Iter   2:  RMS(Cart)=    0.0000195209 RMS(Int)=    0.0000172510
 Iter   3:  RMS(Cart)=    0.0000011558 RMS(Int)=    0.0000008965
 Iter   4:  RMS(Cart)=    0.0000000408 RMS(Int)=    0.0000000353
Imposing constraints:
 Iter   0:  RMS(Cart)=    0.0000000169 RMS(Int)=    0.0000000000
CONVERGED
done
Storing new coordinates                 .... done

                                .--------------------.
          ----------------------|Geometry convergence|-------------------------
          Item                value                   Tolerance       Converged
          ---------------------------------------------------------------------
          Energy change      -0.0046121196            0.0000300000      NO
          RMS gradient        0.0017080455            0.0005000000      NO
          MAX gradient        0.0049620463            0.0020000000      NO
          RMS step            0.0315365371            0.0070000000      NO
          MAX step            0.0743770330            0.0100000000      NO
          ........................................................
          Max(Bonds)      0.0394      Max(Angles)    3.21
          Max(Dihed)        3.75      Max(Improp)    0.00
          ---------------------------------------------------------------------

The optimization has not yet converged - more geometry cycles are needed


    ---------------------------------------------------------------------------
                         Redundant Internal Coordinates
                            (Angstroem and degrees)

        Definition                    Value    dE/dq     Step     New-Value
    ----------------------------------------------------------------------------
     1. B(H   1,N   0)                1.0232 -0.000391  0.0002    1.0234   
     2. B(H   2,N   0)                1.0220 -0.000904 -0.0013    1.0207   
     3. B(H   3,N   0)                1.0206 -0.000581 -0.0004    1.0201   
     4. B(C   5,H   2)                3.4045 -0.001788  0.0264    3.4309   
     5. B(C   5,N   0)                2.8991  0.002404 -0.0076    2.8914   
     6. B(C   5,H   1)                3.3996 -0.001091  0.0210    3.4205   
     7. B(C   5,H   3)                3.3507 -0.001478  0.0339    3.3847   
     8. B(C   5,N   4)                1.4510 -0.037702 -0.0000    1.4510 C 
     9. B(H   6,N   4)                1.0369 -0.000632 -0.0021    1.0349   
    10. B(H   7,N   4)                1.0361 -0.000630  0.0009    1.0369   
    11. B(H   8,N   4)                1.0374 -0.000740 -0.0029    1.0345   
    12. B(H   9,H   2)                2.8700 -0.000960  0.0212    2.8913   
    13. B(H   9,H   3)                3.1060 -0.001602  0.0394    3.1453   
    14. B(H   9,C   5)                1.1006 -0.000724  0.0047    1.1054   
    15. B(H   9,N   0)                2.6550  0.002568 -0.0078    2.6472   
    16. B(H   9,H   1)                3.3960 -0.000285  0.0119    3.4079   
    17. B(H  10,H   1)                3.2417 -0.000629  0.0138    3.2555   
    18. B(H  10,C   5)                1.1052  0.000125 -0.0069    1.0984   
    19. B(H  10,H   3)                2.8942 -0.001627  0.0319    2.9261   
    20. B(H  10,N   0)                2.7508  0.002341 -0.0145    2.7364   
    21. B(H  11,H   1)                2.9455 -0.000888  0.0228    2.9684   
    22. B(H  11,C   5)                1.1023 -0.000308  0.0008    1.1031   
    23. B(H  11,H   2)                3.2750 -0.000670  0.0175    3.2925   
    24. B(H  11,H   3)                3.4427 -0.000644  0.0235    3.4663   
    25. B(H  11,N   0)                2.7577  0.003059 -0.0127    2.7450   
    26. A(H   2,N   0,C   5)          111.19 -0.002313    2.37    113.56   
    27. A(H   1,N   0,H   2)          107.52  0.001373   -1.06    106.45   
    28. A(H   2,N   0,H   3)          110.36  0.002801   -3.21    107.15   
    29. A(H   1,N   0,C   5)          110.78 -0.002051    1.95    112.73   
    30. A(H   1,N   0,H   3)          109.48  0.002467   -2.56    106.92   
    31. A(H   3,N   0,C   5)          107.52 -0.002168    2.75    110.27   
    32. A(C   5,N   4,H   8)          109.88 -0.003969    2.03    111.91   
    33. A(H   6,N   4,H   8)          105.39  0.001946    0.39    105.79   
    34. A(C   5,N   4,H   6)          112.15 -0.002191    0.60    112.74   
    35. A(C   5,N   4,H   7)          111.61 -0.004379    1.05    112.67   
    36. A(H   6,N   4,H   7)          110.27  0.004973   -3.02    107.25   
    37. A(H   7,N   4,H   8)          107.23  0.004212   -0.98    106.25   
    38. A(N   4,C   5,H  11)          109.22 -0.002211    1.05    110.27   
    39. A(H   9,C   5,H  11)          111.84  0.001808   -2.21    109.63   
    40. A(H  10,C   5,H  11)          106.46 -0.000611    1.17    107.63   
    41. A(N   0,C   5,H   9)           66.28  0.000157   -0.03     66.25   
[...]
Average number of points per batch           ...       63
Average number of grid points per atom       ...     3869
Average number of shells per batch           ...    30.20 (67.12%)
Average number of basis functions per batch  ...    55.52 (63.81%)
Average number of large shells per batch     ...    26.14 (86.54%)
Average number of large basis fcns per batch ...    48.31 (87.02%)
Maximum spatial batch extension              ...  13.05, 14.84, 14.29 au
Average spatial batch extension              ...   0.29,  0.34,  0.31 au

Final grid set up in    0.2 sec
Final integration                            ... done (   0.0 sec)
Change in XC energy                          ...    -0.001038394
Integrated number of electrons               ...    28.000094585
Previous integrated no of electrons          ...    27.992074901

----------------
TOTAL SCF ENERGY
----------------

Total Energy       :         -152.46318247 Eh           -4148.73411 eV

Components:
Nuclear Repulsion  :           85.88719928 Eh            2337.10951 eV
Electronic Energy  :         -238.35038174 Eh           -6485.84362 eV
One Electron Energy:         -369.03429920 Eh          -10041.93380 eV
Two Electron Energy:          130.68391746 Eh            3556.09018 eV

Virial components:
Potential Energy   :         -303.17568146 Eh           -8249.82971 eV
Kinetic Energy     :          150.71249900 Eh            4101.09559 eV
Virial Ratio       :            2.01161605


DFT components:
N(Alpha)           :       14.000047292396 electrons
N(Beta)            :       14.000047292396 electrons
N(Total)           :       28.000094584792 electrons
E(X)               :      -21.151403698039 Eh       
E(C)               :       -0.901003704310 Eh       
E(XC)              :      -22.052407402349 Eh       
DFET-embed. en.    :        0.000000000000 Eh       

---------------
SCF CONVERGENCE
---------------

  Last Energy change         ...   -2.2403e-09  Tolerance :   1.0000e-08
  Last MAX-Density change    ...    5.4745e-06  Tolerance :   1.0000e-07
  Last RMS-Density change    ...    2.9560e-07  Tolerance :   5.0000e-09
  Last Orbital Gradient      ...    1.7400e-06  Tolerance :   1.0000e-05
  Last Orbital Rotation      ...    3.9240e-06  Tolerance :   1.0000e-05

             **** THE GBW FILE WAS UPDATED (default_orca_scan.gbw) ****
             **** DENSITY FILE WAS UPDATED (default_orca_scan.scfp.tmp) ****
             **** ENERGY FILE WAS UPDATED (default_orca_scan.en.tmp) ****
----------------
ORBITAL ENERGIES
----------------

  NO   OCC          E(Eh)            E(eV) 
   0   2.0000     -14.325156      -389.8073 
   1   2.0000     -14.103204      -383.7677 
   2   2.0000     -10.130204      -275.6569 
   3   2.0000      -1.107416       -30.1343 
   4   2.0000      -0.885251       -24.0889 
   5   2.0000      -0.831740       -22.6328 
   6   2.0000      -0.727104       -19.7855 
   7   2.0000      -0.727052       -19.7841 
   8   2.0000      -0.632828       -17.2201 
   9   2.0000      -0.543836       -14.7985 
  10   2.0000      -0.543611       -14.7924 
  11   2.0000      -0.523917       -14.2565 
  12   2.0000      -0.523786       -14.2529 
  13   2.0000      -0.349327        -9.5057 
  14   0.0000      -0.202238        -5.5032 
  15   0.0000      -0.138250        -3.7620 
  16   0.0000      -0.136900        -3.7252 
  17   0.0000      -0.108952        -2.9647 
  18   0.0000      -0.069389        -1.8882 
  19   0.0000      -0.058245        -1.5849 
  20   0.0000      -0.057633        -1.5683 
  21   0.0000      -0.056589        -1.5399 
  22   0.0000      -0.003985        -0.1084 
  23   0.0000      -0.002492        -0.0678 
  24   0.0000       0.162215         4.4141 
  25   0.0000       0.164574         4.4783 
  26   0.0000       0.219999         5.9865 
  27   0.0000       0.297596         8.0980 
  28   0.0000       0.300449         8.1756 
  29   0.0000       0.332371         9.0443 
  30   0.0000       0.358171         9.7463 
  31   0.0000       0.360037         9.7971 
  32   0.0000       0.420451        11.4411 
  33   0.0000       0.430736        11.7209 
  34   0.0000       0.431787        11.7495 
  35   0.0000       0.461978        12.5711 
  36   0.0000       0.487389        13.2625 
  37   0.0000       0.519211        14.1285 
  38   0.0000       0.520102        14.1527 
  39   0.0000       0.584160        15.8958 
  40   0.0000       0.668232        18.1835 
  41   0.0000       0.669348        18.2139 
  42   0.0000       0.707080        19.2406 
  43   0.0000       0.817869        22.2554 
  44   0.0000       0.818118        22.2621 
  45   0.0000       0.862228        23.4624 
  46   0.0000       0.965827        26.2815 
  47   0.0000       1.010346        27.4929 
  48   0.0000       1.010526        27.4978 
  49   0.0000       1.080377        29.3986 
  50   0.0000       1.080753        29.4088 
  51   0.0000       1.243042        33.8249 
  52   0.0000       1.266343        34.4590 
  53   0.0000       1.423736        38.7418 
  54   0.0000       1.457618        39.6638 
  55   0.0000       1.490257        40.5519 
  56   0.0000       1.491140        40.5760 
  57   0.0000       1.538071        41.8530 
  58   0.0000       1.538947        41.8769 
  59   0.0000       1.586402        43.1682 
  60   0.0000       1.627490        44.2863 
  61   0.0000       1.628623        44.3171 
  62   0.0000       1.670992        45.4700 
  63   0.0000       1.672105        45.5003 
  64   0.0000       1.775742        48.3204 
  65   0.0000       1.776356        48.3371 
  66   0.0000       1.809526        49.2397 
  67   0.0000       1.866459        50.7889 
  68   0.0000       1.867023        50.8043 
  69   0.0000       2.003038        54.5054 
  70   0.0000       2.124439        57.8089 
  71   0.0000       2.124853        57.8202 
  72   0.0000       2.132454        58.0270 
  73   0.0000       2.302159        62.6449 
  74   0.0000       2.369588        64.4798 
  75   0.0000       2.401164        65.3390 
  76   0.0000       2.401312        65.3430 
  77   0.0000       2.566901        69.8489 
  78   0.0000       2.567212        69.8574 
  79   0.0000       2.624542        71.4174 
  80   0.0000       2.664878        72.5150 
  81   0.0000       2.665951        72.5442 
  82   0.0000       2.733122        74.3720 
  83   0.0000       2.954796        80.4041 
  84   0.0000       2.956855        80.4601 
  85   0.0000       3.115949        84.7893 
  86   0.0000       3.118133        84.8487 

                    ********************************
                    * MULLIKEN POPULATION ANALYSIS *
                    ********************************

-----------------------
MULLIKEN ATOMIC CHARGES
-----------------------
   0 N :   -0.007304
   1 H :    0.212085
   2 H :    0.212332
   3 H :    0.213827
   4 N :   -0.264361
   5 C :   -0.019886
   6 H :    0.111230
   7 H :    0.110224
   8 H :    0.110477
   9 H :    0.106667
  10 H :    0.107033
  11 H :    0.107677
Sum of atomic charges:    1.0000000

--------------------------------
MULLIKEN REDUCED ORBITAL CHARGES
--------------------------------
  0 N s       :     3.327047  s :     3.327047
      pz      :     1.205714  p :     3.663889
      px      :     1.252613
      py      :     1.205561
      dz2     :     0.002232  d :     0.016368
      dxz     :     0.005029
      dyz     :     0.001919
      dx2y2   :     0.002423
      dxy     :     0.004764
  1 H s       :     0.744598  s :     0.744598
      pz      :     0.025087  p :     0.043318
      px      :     0.009485
      py      :     0.008745
  2 H s       :     0.744479  s :     0.744479
      pz      :     0.011057  p :     0.043190
      px      :     0.008658
      py      :     0.023475
  3 H s       :     0.742933  s :     0.742933
      pz      :     0.014496  p :     0.043240
      px      :     0.010549
      py      :     0.018194
  4 N s       :     3.452929  s :     3.452929
      pz      :     1.092399  p :     3.797157
      px      :     1.611535
      py      :     1.093222
      dz2     :     0.001587  d :     0.014275
      dxz     :     0.004777
      dyz     :     0.002061
      dx2y2   :     0.000756
      dxy     :     0.005095
  5 C s       :     3.082222  s :     3.082222
      pz      :     1.112154  p :     2.906410
      px      :     0.686383
      py      :     1.107873
      dz2     :     0.006911  d :     0.031254
      dxz     :     0.004015
      dyz     :     0.003880
      dx2y2   :     0.012330
      dxy     :     0.004118
  6 H s       :     0.842554  s :     0.842554
      pz      :     0.014310  p :     0.046216
      px      :     0.014254
      py      :     0.017652
  7 H s       :     0.843503  s :     0.843503
      pz      :     0.011418  p :     0.046274
      px      :     0.015093
      py      :     0.019763
  8 H s       :     0.843205  s :     0.843205
      pz      :     0.021735  p :     0.046317
      px      :     0.014534
      py      :     0.010048
  9 H s       :     0.870092  s :     0.870092
      pz      :     0.013122  p :     0.023241
      px      :     0.005157
      py      :     0.004962
 10 H s       :     0.869858  s :     0.869858
      pz      :     0.006076  p :     0.023109
      px      :     0.004532
      py      :     0.012500
 11 H s       :     0.869070  s :     0.869070
      pz      :     0.007823  p :     0.023253
      px      :     0.005970
      py      :     0.009460


                     *******************************
                     * LOEWDIN POPULATION ANALYSIS *
                     *******************************

----------------------
LOEWDIN ATOMIC CHARGES
----------------------
   0 N :    0.277986
   1 H :    0.145984
   2 H :    0.146111
   3 H :    0.146397
   4 N :   -0.143311
   5 C :    0.029527
   6 H :    0.071556
   7 H :    0.071056
   8 H :    0.071221
   9 H :    0.060989
  10 H :    0.061319
  11 H :    0.061165

-------------------------------
LOEWDIN REDUCED ORBITAL CHARGES
-------------------------------
  0 N s       :     3.018551  s :     3.018551
      pz      :     1.212366  p :     3.660110
      px      :     1.235379
      py      :     1.212365
      dz2     :     0.007683  d :     0.043353
      dxz     :     0.010634
      dyz     :     0.006509
      dx2y2   :     0.008514
      dxy     :     0.010013
  1 H s       :     0.746211  s :     0.746211
      pz      :     0.062890  p :     0.107804
      px      :     0.026995
      py      :     0.017920
  2 H s       :     0.746205  s :     0.746205
      pz      :     0.024300  p :     0.107684
      px      :     0.024431
      py      :     0.058953
  3 H s       :     0.745795  s :     0.745795
      pz      :     0.033754  p :     0.107808
      px      :     0.030214
      py      :     0.043840
  4 N s       :     3.171197  s :     3.171197
      pz      :     1.158786  p :     3.940692
      px      :     1.621573
      py      :     1.160333
      dz2     :     0.005349  d :     0.031423
      dxz     :     0.008181
      dyz     :     0.007301
      dx2y2   :     0.001613
      dxy     :     0.008979
  5 C s       :     2.869124  s :     2.869124
      pz      :     1.118074  p :     3.024401
      px      :     0.790991
      py      :     1.115336
      dz2     :     0.017688  d :     0.076949
      dxz     :     0.009218
      dyz     :     0.010103
      dx2y2   :     0.030618
      dxy     :     0.009321
  6 H s       :     0.813092  s :     0.813092
      pz      :     0.031849  p :     0.115352
      px      :     0.041434
      py      :     0.042069
  7 H s       :     0.813619  s :     0.813619
      pz      :     0.023684  p :     0.115325
      px      :     0.044956
      py      :     0.046684
  8 H s       :     0.813315  s :     0.813315
      pz      :     0.052948  p :     0.115464
      px      :     0.042605
      py      :     0.019912
  9 H s       :     0.870782  s :     0.870782
      pz      :     0.041177  p :     0.068228
      px      :     0.013961
      py      :     0.013090
 10 H s       :     0.870566  s :     0.870566
      pz      :     0.017091  p :     0.068115
      px      :     0.012020
      py      :     0.039004
 11 H s       :     0.870599  s :     0.870599
      pz      :     0.022969  p :     0.068236
      px      :     0.016361
      py      :     0.028905


                      *****************************
                      * MAYER POPULATION ANALYSIS *
                      *****************************

  NA   - Mulliken gross atomic population
  ZA   - Total nuclear charge
  QA   - Mulliken gross atomic charge
  VA   - Mayer's total valence
  BVA  - Mayer's bonded valence
  FA   - Mayer's free valence

  ATOM       NA         ZA         QA         VA         BVA        FA
  0 N      7.0073     7.0000    -0.0073     3.7237     3.7237     0.0000
  1 H      0.7879     1.0000     0.2121     0.9599     0.9599    -0.0000
  2 H      0.7877     1.0000     0.2123     0.9596     0.9596    -0.0000
  3 H      0.7862     1.0000     0.2138     0.9592     0.9592    -0.0000
  4 N      7.2644     7.0000    -0.2644     3.0884     3.0884    -0.0000
  5 C      6.0199     6.0000    -0.0199     3.8553     3.8553     0.0000
  6 H      0.8888     1.0000     0.1112     0.9929     0.9929    -0.0000
  7 H      0.8898     1.0000     0.1102     0.9929     0.9929     0.0000
  8 H      0.8895     1.0000     0.1105     0.9929     0.9929    -0.0000
  9 H      0.8933     1.0000     0.1067     1.0123     1.0123     0.0000
 10 H      0.8930     1.0000     0.1070     1.0116     1.0116     0.0000
 11 H      0.8923     1.0000     0.1077     1.0120     1.0120     0.0000

  Mayer bond orders larger than 0.1
B(  0-N ,  1-H ) :   0.9354 B(  0-N ,  2-H ) :   0.9351 B(  0-N ,  3-H ) :   0.9347 
B(  0-N ,  5-C ) :   0.9052 B(  4-N ,  6-H ) :   0.9859 B(  4-N ,  7-H ) :   0.9864 
B(  4-N ,  8-H ) :   0.9858 B(  5-C ,  9-H ) :   0.9664 B(  5-C , 10-H ) :   0.9663 
B(  5-C , 11-H ) :   0.9662 

-------
TIMINGS
-------

Total SCF time: 0 days 0 hours 0 min 1 sec 

Total time                  ....       1.205 sec
Sum of individual times     ....       1.041 sec  ( 86.4%)

Fock matrix formation       ....       0.793 sec  ( 65.8%)
  Split-RI-J                ....       0.597 sec  ( 75.3% of F)
  XC integration            ....       0.118 sec  ( 14.9% of F)
    Basis function eval.    ....       0.028 sec  ( 24.2% of XC)
    Density eval.           ....       0.011 sec  (  9.0% of XC)
    XC-Functional eval.     ....       0.008 sec  (  7.1% of XC)
    XC-Potential eval.      ....       0.014 sec  ( 11.6% of XC)
Diagonalization             ....       0.001 sec  (  0.1%)
Density matrix formation    ....       0.002 sec  (  0.1%)
Population analysis         ....       0.002 sec  (  0.2%)
Initial guess               ....       0.004 sec  (  0.3%)
Orbital Transformation      ....       0.000 sec  (  0.0%)
Orbital Orthonormalization  ....       0.002 sec  (  0.2%)
DIIS solution               ....       0.000 sec  (  0.0%)
SOSCF solution              ....       0.003 sec  (  0.2%)
Grid generation             ....       0.236 sec  ( 19.6%)


-------------------------------------------------------------------------------
                          DFT DISPERSION CORRECTION                            
                                                                               
                              DFTD3 V3.1  Rev 1                                
                          USING Becke-Johnson damping                          
-------------------------------------------------------------------------------
The PBE functional is recognized
Active option DFTDOPT                   ...         4   

molecular C6(AA) [au] = 780.072455 


            DFT-D V3
 parameters
 s6 scaling factor         :     1.0000 
 a1 scaling factor         :     0.4289 
 s8 scaling factor         :     0.7875 
 a2 scaling factor         :     4.4407 
 ad hoc parameters k1-k3   :    16.0000     1.3333    -4.0000 

 Edisp/kcal,au: -3.370869609608  -0.005371822083 
 E6   /kcal   :  -2.524882411 
 E8   /kcal   :  -0.845987198 
 % E8         :  25.097001556 

-------------------------   ----------------
Dispersion correction           -0.005371822
-------------------------   ----------------


-------------------------   --------------------
FINAL SINGLE POINT ENERGY      -152.468554288756
-------------------------   --------------------

                                *** OPTIMIZATION RUN DONE ***

Storing optimized geometry in default_orca_scan.010.xyz ... done
Storing optimized geometry and energy in default_orca_scan.xyzall ... done
Storing actual gbw-file in default_orca_scan.010.gbw ... done

                            ***************************************
                            *     ORCA property calculations      *
                            ***************************************

                                    ---------------------
                                    Active property flags
                                    ---------------------
   (+) Dipole Moment


------------------------------------------------------------------------------
                       ORCA ELECTRIC PROPERTIES CALCULATION
------------------------------------------------------------------------------

Dipole Moment Calculation                       ... on
Quadrupole Moment Calculation                   ... off
Polarizability Calculation                      ... off
GBWName                                         ... default_orca_scan.gbw
Electron density file                           ... default_orca_scan.scfp.tmp
The origin for moment calculation is the CENTER OF MASS  = ( 4.287980,  0.375653  0.017331)

-------------
DIPOLE MOMENT
-------------
                                X             Y             Z
Electronic contribution:     -3.00283      -0.24758      -0.02634
Nuclear contribution   :      0.75470       0.04718      -0.00448
                        -----------------------------------------
Total Dipole Moment    :     -2.24812      -0.20040      -0.03082
                        -----------------------------------------
Magnitude (a.u.)       :      2.25725
Magnitude (Debye)      :      5.73747



--------------------
Rotational spectrum 
--------------------
 
Rotational constants in cm-1:     1.930540     0.088270     0.088269 
Rotational constants in MHz : 57876.126981  2646.271767  2646.227685 

 Dipole components along the rotational axes: 
x,y,z [a.u.] :    -2.257169    -0.018590    -0.002514 
x,y,z [Debye]:    -5.737268    -0.047253    -0.006390 

 
                   **** RELAXED SURFACE SCAN DONE ***

                    SUMMARY OF THE CALCULATED SURFACE

----------------------------
RELAXED SURFACE SCAN RESULTS
----------------------------

Column   1: NONAME

The Calculated Surface using the 'Actual Energy'
   1.45100000 -152.46662170
   1.61766667 -152.46590460
   1.78433333 -152.45580480
   1.95100000 -152.44763179
   2.11766667 -152.44829299
   2.28433333 -152.45640242
   2.45100000 -152.46306144
   2.61766667 -152.46688220
   2.78433333 -152.46844240
   2.95100000 -152.46855429

The Calculated Surface using the SCF energy
   1.45100000 -152.46119031
   1.61766667 -152.46042643
   1.78433333 -152.45019748
   1.95100000 -152.44175202
   2.11766667 -152.44228654
   2.28433333 -152.45043376
   2.45100000 -152.45720941
   2.61766667 -152.46117878
   2.78433333 -152.46290217
   2.95100000 -152.46318247


Timings for individual modules:

Sum of individual times         ...      331.761 sec (=   5.529 min)
GTO integral calculation        ...       68.045 sec (=   1.134 min)  20.5 %
SCF iterations                  ...      175.257 sec (=   2.921 min)  52.8 %
SCF Gradient evaluation         ...       84.711 sec (=   1.412 min)  25.5 %
Geometry relaxation             ...        3.748 sec (=   0.062 min)   1.1 %
                             ****ORCA TERMINATED NORMALLY****
TOTAL RUN TIME: 0 days 0 hours 5 minutes 43 seconds 984 msec
