
                                 *****************
                                 * O   R   C   A *
                                 *****************

           --- An Ab Initio, DFT and Semiempirical electronic structure package ---

                  #######################################################
                  #                        -***-                        #
                  #          Department of theory and spectroscopy      #
                  #               Directorship: Frank Neese             #
                  #        Max Planck Institute fuer Kohlenforschung    #
                  #                Kaiser Wilhelm Platz 1               #
                  #                 D-45470 Muelheim/Ruhr               #
                  #                      Germany                        #
                  #                                                     #
                  #                  All rights reserved                #
                  #                        -***-                        #
                  #######################################################


                         Program Version 4.1.1  - RELEASE  -


 With contributions from (in alphabetic order):
   Daniel Aravena         : Magnetic Properties
   Michael Atanasov       : Ab Initio Ligand Field Theory
   Alexander A. Auer      : GIAO ZORA
   Ute Becker             : Parallelization
   Giovanni Bistoni       : ED, Open-shell LED
   Martin Brehm           : Molecular dynamics
   Dmytro Bykov           : SCF Hessian
   Vijay G. Chilkuri      : MRCI spin determinant printing
   Dipayan Datta          : RHF DLPNO-CCSD density
   Achintya Kumar Dutta   : EOM-CC, STEOM-CC
   Dmitry Ganyushin       : Spin-Orbit,Spin-Spin,Magnetic field MRCI
   Miquel Garcia          : C-PCM Hessian
   Yang Guo               : DLPNO-NEVPT2, CIM, IAO-localization
   Andreas Hansen         : Spin unrestricted coupled pair/coupled cluster methods
   Benjamin Helmich-Paris : CASSCF linear response (MC-RPA)
   Lee Huntington         : MR-EOM, pCC
   Robert Izsak           : Overlap fitted RIJCOSX, COSX-SCS-MP3, EOM
   Christian Kollmar      : KDIIS, OOCD, Brueckner-CCSD(T), CCSD density
   Simone Kossmann        : Meta GGA functionals, TD-DFT gradient, OOMP2, MP2 Hessian
   Martin Krupicka        : AUTO-CI
   Lucas Lang             : DCDCAS
   Dagmar Lenk            : GEPOL surface, SMD
   Dimitrios Liakos       : Extrapolation schemes; parallel MDCI
   Dimitrios Manganas     : ROCIS; embedding schemes
   Dimitrios Pantazis     : SARC Basis sets
   Taras Petrenko         : DFT Hessian,TD-DFT gradient, ASA, ECA, R-Raman, ABS, FL, XAS/XES, NRVS
   Peter Pinski           : DLPNO-MP2, DLPNO-MP2 Gradient
   Christoph Reimann      : Effective Core Potentials
   Marius Retegan         : Local ZFS, SOC
   Christoph Riplinger    : Optimizer, TS searches, QM/MM, DLPNO-CCSD(T), (RO)-DLPNO pert. Triples
   Tobias Risthaus        : Range-separated hybrids, TD-DFT gradient, RPA, STAB
   Michael Roemelt        : Restricted open shell CIS
   Masaaki Saitow         : Open-shell DLPNO
   Barbara Sandhoefer     : DKH picture change effects
   Avijit Sen             : IP-ROCIS
   Kantharuban Sivalingam : CASSCF convergence, NEVPT2, FIC-MRCI
   Bernardo de Souza      : ESD, SOC TD-DFT
   Georgi Stoychev        : AutoAux, RI-MP2 NMR
   Willem Van den Heuvel  : Paramagnetic NMR
   Boris Wezisla          : Elementary symmetry handling
   Frank Wennmohs         : Technical directorship


 We gratefully acknowledge several colleagues who have allowed us to
 interface, adapt or use parts of their codes:
   Stefan Grimme, W. Hujo, H. Kruse,             : VdW corrections, initial TS optimization,
                  C. Bannwarth                     DFT functionals, gCP, sTDA/sTD-DF
   Ed Valeev                                     : LibInt (2-el integral package), F12 methods
   Garnet Chan, S. Sharma, J. Yang, R. Olivares  : DMRG
   Ulf Ekstrom                                   : XCFun DFT Library
   Mihaly Kallay                                 : mrcc  (arbitrary order and MRCC methods)
   Andreas Klamt, Michael Diedenhofen            : otool_cosmo (COSMO solvation model)
   Jiri Pittner, Ondrej Demel                    : Mk-CCSD
   Frank Weinhold                                : gennbo (NPA and NBO analysis)
   Christopher J. Cramer and Donald G. Truhlar   : smd solvation model
   Lars Goerigk                                  : TD-DFT with DH, B97 family of functionals
   V. Asgeirsson, H. Jonsson                     : NEB implementation
   FAccTs GmbH                                   : IRC, NEB, NEB-TS, Multilevel


 Your calculation uses the libint2 library for the computation of 2-el integrals
 For citations please refer to: http://libint.valeyev.net

 This ORCA versions uses:
   CBLAS   interface :  Fast vector & matrix operations
   LAPACKE interface :  Fast linear algebra routines
   SCALAPACK package :  Parallel linear algebra routines


Your calculation utilizes the atom-pairwise dispersion correction
with the Becke-Johnson damping scheme (D3BJ)
Cite in your paper:
S.Grimme, S.Ehrlich, L.Goerigk, J Comput Chem, (2011), 32, 1456–1465 
S.Grimme, J.Antony, S.Ehrlich and H.Krieg, J.Chem.Phys., 132, (2010), 154104 
   

----- Orbital basis set information -----
Your calculation utilizes the basis: def2-SVP
   F. Weigend and R. Ahlrichs, Phys. Chem. Chem. Phys. 7, 3297 (2005).

----- AuxJ basis set information -----
Your calculation utilizes the auxiliary basis: def2/J
   F. Weigend, Phys. Chem. Chem. Phys. 8, 1057 (2006).

================================================================================
                                        WARNINGS
                       Please study these warnings very carefully!
================================================================================


WARNING: Geometry Optimization
  ===> : Switching off AutoStart
         For restart on a previous wavefunction, please use MOREAD

INFO   : the flag for use of LIBINT has been found!

================================================================================
                                       INPUT FILE
================================================================================
NAME = get_orca_ts_guess_coarse_TS_orca_opt.inp
|  1> ! OptTS Freq PBE0 RIJCOSX D3BJ def2-SVP def2/J PAL8
|  2> %geom
|  3> Calc_Hess true
|  4> Recalc_Hess 40
|  5> Trust 0.2
|  6> MaxIter 100
|  7> end
|  8> %geom
|  9> modify_internal
| 10> { B 5 4 A } end
| 11> end
| 12> %scf 
| 13> maxiter 250 
| 14> end
| 15> % maxcore 4000
| 16> *xyz 1 1
| 17> N	0.219353	0.029634	-0.008657
| 18> H	-0.166631	0.123644	-0.958596
| 19> H	-0.09519	-0.883483	0.349246
| 20> H	-0.238659	0.748129	0.569885
| 21> N	4.399117	0.372034	0.025484
| 22> C	2.454508	0.214854	0.011658
| 23> H	4.695616	1.164233	0.6148
| 24> H	4.829702	-0.487763	0.397125
| 25> H	4.755742	0.526875	-0.929068
| 26> H	2.350276	0.076405	1.092764
| 27> H	2.27084	1.205492	-0.417513
| 28> H	2.42467	-0.663386	-0.641612
| 29> *
| 30> 
| 31>                          ****END OF INPUT****
================================================================================

                       *****************************
                       * Geometry Optimization Run *
                       *****************************

Geometry optimization settings:
Update method            Update   .... Bofill
Choice of coordinates    CoordSys .... Z-matrix Internals
Initial Hessian          InHess   .... Almoef's Model

Convergence Tolerances:
Energy Change            TolE     ....  5.0000e-06 Eh
Max. Gradient            TolMAXG  ....  3.0000e-04 Eh/bohr
RMS Gradient             TolRMSG  ....  1.0000e-04 Eh/bohr
Max. Displacement        TolMAXD  ....  4.0000e-03 bohr
RMS Displacement         TolRMSD  ....  2.0000e-03 bohr

------------------------------------------------------------------------------
                        ORCA OPTIMIZATION COORDINATE SETUP
------------------------------------------------------------------------------

The optimization will be done in new redundant internal coordinates
Making redundant internal coordinates   ...  (new redundants) Bond   5,  4 is already included
done
Following TS mode number                ...     0
Evaluating the initial hessian          ...  (Is done on the fly) done
Evaluating the coordinates              ...  done
Calculating the B-matrix                .... done
Calculating the G-matrix                .... done
Diagonalizing the G-matrix              .... done
The first mode is                       ....   41
The number of degrees of freedom        ....   30

    -----------------------------------------------------------------
                    Redundant Internal Coordinates


    -----------------------------------------------------------------
         Definition                    Initial Value    d2E/dq (diagonal element)
    -----------------------------------------------------------------
      1. B(H   1,N   0)                  1.0297         0.000000   
      2. B(H   2,N   0)                  1.0300         0.000000   
      3. B(H   3,N   0)                  1.0299         0.000000   
      4. B(C   5,N   0)                  2.2429         0.000000   
      5. B(C   5,H   3)                  2.8016         0.000000   
      6. B(C   5,H   1)                  2.7964         0.000000   
      7. B(C   5,H   2)                  2.7967         0.000000   
      8. B(C   5,N   4)                  1.9510         0.000000   
      9. B(H   6,N   4)                  1.0309         0.000000   
     10. B(H   7,N   4)                  1.0309         0.000000   
     11. B(H   8,N   4)                  1.0307         0.000000   
     12. B(H   9,N   0)                  2.3992         0.000000   
     13. B(H   9,H   3)                  2.7253         0.000000   
     14. B(H   9,H   2)                  2.7303         0.000000   
     15. B(H   9,C   5)                  1.0949         0.000000   
     16. B(H  10,N   0)                  2.3997         0.000000   
     17. B(H  10,H   3)                  2.7353         0.000000   
     18. B(H  10,C   5)                  1.0951         0.000000   
     19. B(H  10,H   1)                  2.7211         0.000000   
     20. B(H  11,N   0)                  2.3967         0.000000   
     21. B(H  11,H   2)                  2.7166         0.000000   
     22. B(H  11,C   5)                  1.0950         0.000000   
     23. B(H  11,H   1)                  2.7267         0.000000   
     24. A(H   2,N   0,C   5)          111.9874         0.000000   
     25. A(H   1,N   0,H   3)          106.7290         0.000000   
     26. A(H   2,N   0,H   3)          106.7068         0.000000   
     27. A(H   1,N   0,H   2)          106.6814         0.000000   
     28. A(H   1,N   0,C   5)          111.9863         0.000000   
     29. A(H   3,N   0,C   5)          112.3630         0.000000   
     30. A(C   5,N   4,H   8)          110.5125         0.000000   
     31. A(H   6,N   4,H   7)          108.3423         0.000000   
     32. A(C   5,N   4,H   7)          110.5895         0.000000   
     33. A(H   7,N   4,H   8)          108.3393         0.000000   
     34. A(C   5,N   4,H   6)          110.6480         0.000000   
     35. A(H   6,N   4,H   8)          108.3281         0.000000   
     36. A(H  10,C   5,H  11)          119.1546         0.000000   
     37. A(H   9,C   5,H  11)          119.0174         0.000000   
     38. A(N   4,C   5,H  11)           95.5092         0.000000   
     39. A(H   9,C   5,H  10)          119.0369         0.000000   
     40. A(N   4,C   5,H  10)           95.5702         0.000000   
     41. A(N   0,C   5,H  11)           84.3302         0.000000   
     42. A(N   0,C   5,H  10)           84.4921         0.000000   
     43. A(N   4,C   5,H   9)           95.6283         0.000000   
     44. A(N   0,C   5,H   9)           84.4700         0.000000   
     45. D(H   7,N   4,N   0,H   1)   -119.9889         0.000000   
     46. D(H   6,N   4,N   0,H   1)    119.9242         0.000000   
     47. D(H   7,N   4,N   0,H   3)    119.8729         0.000000   
     48. D(H   8,N   4,N   0,H   3)   -120.2214         0.000000   
     49. D(H   8,N   4,N   0,H   1)     -0.0832         0.000000   
     50. D(H   8,N   4,N   0,H   2)    119.6575         0.000000   
     51. D(H   6,N   4,N   0,H   2)   -120.3351         0.000000   
     52. D(H   6,N   4,N   0,H   3)     -0.2141         0.000000   
     53. D(H   7,N   4,N   0,H   2)     -0.2481         0.000000   
     54. D(H  10,C   5,N   0,H   2)    179.1037         0.000000   
     55. D(H  10,C   5,N   0,H   1)     59.3108         0.000000   
     56. D(H  11,C   5,N   4,H   6)   -179.3160         0.000000   
     57. D(H  10,C   5,N   4,H   8)    -59.3779         0.000000   
     58. D(H  10,C   5,N   0,H   3)    -60.8067         0.000000   
     59. D(H   9,C   5,N   0,H   3)     59.1431         0.000000   
     60. D(H   9,C   5,N   0,H   2)    -60.9465         0.000000   
     61. D(H   9,C   5,N   4,H   7)     60.6838         0.000000   
     62. D(H   9,C   5,N   0,H   1)    179.2605         0.000000   
     63. D(H   9,C   5,N   4,H   6)    -59.3694         0.000000   
     64. D(H   9,C   5,N   4,H   8)   -179.3547         0.000000   
     65. D(H  10,C   5,N   4,H   6)     60.6074         0.000000   
     66. D(H  10,C   5,N   4,H   7)   -179.3394         0.000000   
     67. D(H  11,C   5,N   0,H   3)    179.1002         0.000000   
     68. D(H  11,C   5,N   0,H   2)     59.0106         0.000000   
     69. D(H  11,C   5,N   4,H   7)    -59.2628         0.000000   
     70. D(H  11,C   5,N   4,H   8)     60.6987         0.000000   
     71. D(H  11,C   5,N   0,H   1)    -60.7824         0.000000   
    -----------------------------------------------------------------

Number of atoms                         .... 12
Number of degrees of freedom            .... 71

         *************************************************************
         *                GEOMETRY OPTIMIZATION CYCLE   1            *
         *************************************************************
---------------------------------
CARTESIAN COORDINATES (ANGSTROEM)
---------------------------------
  N      0.219353    0.029634   -0.008657
  H     -0.166631    0.123644   -0.958596
  H     -0.095190   -0.883483    0.349246
  H     -0.238659    0.748129    0.569885
  N      4.399117    0.372034    0.025484
  C      2.454508    0.214854    0.011658
  H      4.695616    1.164233    0.614800
  H      4.829702   -0.487763    0.397125
  H      4.755742    0.526875   -0.929068
  H      2.350276    0.076405    1.092764
  H      2.270840    1.205492   -0.417513
  H      2.424670   -0.663386   -0.641612

----------------------------
CARTESIAN COORDINATES (A.U.)
----------------------------
  NO LB      ZA    FRAG     MASS         X           Y           Z
   0 N     7.0000    0    14.007    0.414517    0.056000   -0.016359
   1 H     1.0000    0     1.008   -0.314887    0.233653   -1.811484
   2 H     1.0000    0     1.008   -0.179883   -1.669541    0.659979
   3 H     1.0000    0     1.008   -0.451000    1.413759    1.076927
   4 N     7.0000    0    14.007    8.313126    0.703042    0.048158
   5 C     6.0000    0    12.011    4.638348    0.406015    0.022030
   6 H     1.0000    0     1.008    8.873428    2.200082    1.161804
   7 H     1.0000    0     1.008    9.126814   -0.921738    0.750457
   8 H     1.0000    0     1.008    8.987050    0.995649   -1.755684
   9 H     1.0000    0     1.008    4.441378    0.144385    2.065025
  10 H     1.0000    0     1.008    4.291266    2.278050   -0.788985
  11 H     1.0000    0     1.008    4.581962   -1.253618   -1.212471

--------------------------------
INTERNAL COORDINATES (ANGSTROEM)
--------------------------------
 N      0   0   0     0.000000000000     0.00000000     0.00000000
 H      1   0   0     1.029662873021     0.00000000     0.00000000
 H      1   2   0     1.029958500109   106.68143603     0.00000000
 H      1   2   3     1.029913056007   106.72895783   246.20693565
 N      1   2   3     4.193903964515   111.94131946   122.78847372
 C      5   1   2     1.950999967595     0.08657638   126.69773642
 H      5   1   2     1.030914283759   110.73395414   119.92416995
 H      5   1   2     1.030908025148   110.55526556   240.01110399
 H      5   1   2     1.030692314229   110.46068645   359.91679704
 H      6   5   9     1.094907584530    95.62833597   180.64528129
 H      6   5   9     1.095118865014    95.57020787   300.62207541
 H      6   5   9     1.094969176162    95.50924981    60.69865275

---------------------------
INTERNAL COORDINATES (A.U.)
---------------------------
 N      0   0   0     0.000000000000     0.00000000     0.00000000
 H      1   0   0     1.945780840275     0.00000000     0.00000000
 H      1   2   0     1.946339494511   106.68143603     0.00000000
 H      1   2   3     1.946253617603   106.72895783   246.20693565
 N      1   2   3     7.925329924900   111.94131946   122.78847372
 C      5   1   2     3.686855626044     0.08657638   126.69773642
 H      5   1   2     1.948145663852   110.73395414   119.92416995
 H      5   1   2     1.948133836792   110.55526556   240.01110399
 H      5   1   2     1.947726202230   110.46068645   359.91679704
 H      6   5   9     2.069075476715    95.62833597   180.64528129
 H      6   5   9     2.069474738967    95.57020787   300.62207541
 H      6   5   9     2.069191868031    95.50924981    60.69865275

---------------------
BASIS SET INFORMATION
---------------------
There are 3 groups of distinct atoms

 Group   1 Type N   : 7s4p1d contracted to 3s2p1d pattern {511/31/1}
 Group   2 Type H   : 4s1p contracted to 2s1p pattern {31/1}
 Group   3 Type C   : 7s4p1d contracted to 3s2p1d pattern {511/31/1}

Atom   0N    basis set group =>   1
Atom   1H    basis set group =>   2
Atom   2H    basis set group =>   2
Atom   3H    basis set group =>   2
Atom   4N    basis set group =>   1
Atom   5C    basis set group =>   3
Atom   6H    basis set group =>   2
Atom   7H    basis set group =>   2
Atom   8H    basis set group =>   2
Atom   9H    basis set group =>   2
Atom  10H    basis set group =>   2
Atom  11H    basis set group =>   2
-------------------------------
AUXILIARY BASIS SET INFORMATION
-------------------------------
There are 3 groups of distinct atoms

 Group   1 Type N   : 12s5p4d2f1g contracted to 6s4p3d1f1g pattern {711111/2111/211/2/1}
 Group   2 Type H   : 5s2p1d contracted to 3s1p1d pattern {311/2/1}
 Group   3 Type C   : 12s5p4d2f1g contracted to 6s4p3d1f1g pattern {711111/2111/211/2/1}

Atom   0N    basis set group =>   1
Atom   1H    basis set group =>   2
Atom   2H    basis set group =>   2
Atom   3H    basis set group =>   2
Atom   4N    basis set group =>   1
Atom   5C    basis set group =>   3
Atom   6H    basis set group =>   2
Atom   7H    basis set group =>   2
Atom   8H    basis set group =>   2
Atom   9H    basis set group =>   2
Atom  10H    basis set group =>   2
Atom  11H    basis set group =>   2


           ************************************************************
           *        Program running with 8 parallel MPI-processes     *
           *              working on a common directory               *
           ************************************************************
------------------------------------------------------------------------------
                           ORCA GTO INTEGRAL CALCULATION
                           -- RI-GTO INTEGRALS CHOSEN --
------------------------------------------------------------------------------

                         BASIS SET STATISTICS AND STARTUP INFO

Gaussian basis set:
 # of primitive gaussian shells          ...   81
 # of primitive gaussian functions       ...  135
 # of contracted shells                  ...   45
 # of contracted basis functions         ...   87
 Highest angular momentum                ...    2
 Maximum contraction depth               ...    5
Auxiliary gaussian basis set:
 # of primitive gaussian shells          ...  144
 # of primitive gaussian functions       ...  354
 # of contracted shells                  ...   90
 # of contracted aux-basis functions     ...  246
 Highest angular momentum                ...    4
 Maximum contraction depth               ...    7
Ratio of auxiliary to basis functions    ...  2.83
Integral package used                  ... LIBINT
 One Electron integrals                  ... done
 Ordering auxiliary basis shells         ... done
 Integral threshhold             Thresh  ...  2.500e-11
 Primitive cut-off               TCut    ...  2.500e-12
 Pre-screening matrix                    ... done
 Shell pair data                         ... 
 Ordering of the shell pairs             ... done (   0.000 sec) 999 of 1035 pairs
 Determination of significant pairs      ... done (   0.000 sec)
 Creation of shell pair data             ... done (   0.000 sec)
 Storage of shell pair data              ... done (   0.000 sec)
 Shell pair data done in (   0.001 sec)
 Computing two index integrals           ... done
 Cholesky decomposition of the V-matrix  ... done


Timings:
 Total evaluation time                   ...   0.194 sec (  0.003 min)
 One electron matrix time                ...   0.011 sec (  0.000 min) =  5.7%
 Schwartz matrix evaluation time         ...   0.157 sec (  0.003 min) = 80.8%
 Two index repulsion integral time       ...   0.002 sec (  0.000 min) =  0.8%
 Cholesky decomposition of V             ...   0.001 sec (  0.000 min) =  0.7%
 Three index repulsion integral time     ...   0.000 sec (  0.000 min) =  0.0%



           ************************************************************
           *        Program running with 8 parallel MPI-processes     *
           *              working on a common directory               *
           ************************************************************
-------------------------------------------------------------------------------
                                 ORCA SCF
-------------------------------------------------------------------------------

------------
SCF SETTINGS
------------
Hamiltonian:
 Density Functional     Method          .... DFT(GTOs)
 Exchange Functional    Exchange        .... PBE
   PBE kappa parameter   XKappa         ....  0.804000
   PBE mue parameter    XMuePBE         ....  0.219520
 Correlation Functional Correlation     .... PBE
   PBE beta parameter  CBetaPBE         ....  0.066725
 LDA part of GGA corr.  LDAOpt          .... PW91-LDA
 Gradients option       PostSCFGGA      .... off
 Hybrid DFT is turned on
   Fraction HF Exchange ScalHFX         ....  0.250000
   Scaling of DF-GGA-X  ScalDFX         ....  0.750000
   Scaling of DF-GGA-C  ScalDFC         ....  1.000000
   Scaling of DF-LDA-C  ScalLDAC        ....  1.000000
   Perturbative correction              ....  0.000000
   Density functional embedding theory  .... OFF
   NL short-range parameter             ....  6.900000
 RI-approximation to the Coulomb term is turned on
   Number of auxiliary basis functions  .... 246
   RIJ-COSX (HFX calculated with COS-X)).... on


General Settings:
 Integral files         IntName         .... get_orca_ts_guess_coarse_TS_orca_opt
 Hartree-Fock type      HFTyp           .... RHF
 Total Charge           Charge          ....    1
 Multiplicity           Mult            ....    1
 Number of Electrons    NEL             ....   28
 Basis Dimension        Dim             ....   87
 Nuclear Repulsion      ENuc            ....     86.1663001529 Eh

Convergence Acceleration:
 DIIS                   CNVDIIS         .... on
   Start iteration      DIISMaxIt       ....    12
   Startup error        DIISStart       ....  0.200000
   # of expansion vecs  DIISMaxEq       ....     5
   Bias factor          DIISBfac        ....   1.050
   Max. coefficient     DIISMaxC        ....  10.000
 Newton-Raphson         CNVNR           .... off
 SOSCF                  CNVSOSCF        .... on
   Start iteration      SOSCFMaxIt      ....   150
   Startup grad/error   SOSCFStart      ....  0.003300
 Level Shifting         CNVShift        .... on
   Level shift para.    LevelShift      ....    0.2500
   Turn off err/grad.   ShiftErr        ....    0.0010
 Zerner damping         CNVZerner       .... off
 Static damping         CNVDamp         .... on
   Fraction old density DampFac         ....    0.7000
   Max. Damping (<1)    DampMax         ....    0.9800
   Min. Damping (>=0)   DampMin         ....    0.0000
   Turn off err/grad.   DampErr         ....    0.1000
 Fernandez-Rico         CNVRico         .... off

SCF Procedure:
 Maximum # iterations   MaxIter         ....   250
 SCF integral mode      SCFMode         .... Direct
   Integral package                     .... LIBINT
 Reset frequency        DirectResetFreq ....    20
 Integral Threshold     Thresh          ....  2.500e-11 Eh
 Primitive CutOff       TCut            ....  2.500e-12 Eh

Convergence Tolerance:
 Convergence Check Mode ConvCheckMode   .... Total+1el-Energy
 Convergence forced     ConvForced      .... 0
 Energy Change          TolE            ....  1.000e-08 Eh
 1-El. energy change                    ....  1.000e-05 Eh
 Orbital Gradient       TolG            ....  1.000e-05
 Orbital Rotation angle TolX            ....  1.000e-05
 DIIS Error             TolErr          ....  5.000e-07


Diagonalization of the overlap matrix:
Smallest eigenvalue                        ... 1.114e-02
Time for diagonalization                   ...    0.003 sec
Threshold for overlap eigenvalues          ... 1.000e-08
Number of eigenvalues below threshold      ... 0
Time for construction of square roots      ...    0.001 sec
Total time needed                          ...    0.005 sec

-------------------
DFT GRID GENERATION
-------------------

General Integration Accuracy     IntAcc      ...  4.340
Radial Grid Type                 RadialGrid  ... Gauss-Chebyshev
Angular Grid (max. acc.)         AngularGrid ... Lebedev-110
Angular grid pruning method      GridPruning ... 3 (G Style)
Weight generation scheme         WeightScheme... Becke
Basis function cutoff            BFCut       ...    1.0000e-11
Integration weight cutoff        WCut        ...    1.0000e-14
Grids for H and He will be reduced by one unit

# of grid points (after initial pruning)     ...  12206 (   0.0 sec)
# of grid points (after weights+screening)   ...  11630 (   0.0 sec)
nearest neighbour list constructed           ...    0.0 sec
Grid point re-assignment to atoms done       ...    0.0 sec
Grid point division into batches done        ...    0.0 sec
Reduced shell lists constructed in    0.0 sec

Total number of grid points                  ...    11630
Total number of batches                      ...      189
Average number of points per batch           ...       61
Average number of grid points per atom       ...      969
Average number of shells per batch           ...    32.44 (72.09%)
Average number of basis functions per batch  ...    58.92 (67.72%)
Average number of large shells per batch     ...    28.28 (87.18%)
Average number of large basis fcns per batch ...    51.64 (87.64%)
Maximum spatial batch extension              ...  13.88, 21.01, 13.57 au
Average spatial batch extension              ...   0.47,  0.53,  0.42 au

Time for grid setup =    0.031 sec

------------------------------
INITIAL GUESS: MODEL POTENTIAL
------------------------------
Loading Hartree-Fock densities                     ... done
Calculating cut-offs                               ... done
Setting up the integral package                    ... done
Initializing the effective Hamiltonian             ... done
Starting the Coulomb interaction                   ... done (   0.0 sec)
Reading the grid                                   ... done
Mapping shells                                     ... done
Starting the XC term evaluation                    ... done (   0.0 sec)
  promolecular density results
     # of electrons  =     28.981360355
     EX              =    -20.773271311
     EC              =     -0.901367888
     EX+EC           =    -21.674639199
Transforming the Hamiltonian                       ... done (   0.0 sec)
Diagonalizing the Hamiltonian                      ... done (   0.0 sec)
Back transforming the eigenvectors                 ... done (   0.0 sec)
Now organizing SCF variables                       ... done
                      ------------------
                      INITIAL GUESS DONE (   0.1 sec)
                      ------------------
--------------------
COSX GRID GENERATION
--------------------

General Integration Accuracy     IntAcc      ...  3.340
Radial Grid Type                 RadialGrid  ... Gauss-Chebyshev
Angular Grid (max. acc.)         AngularGrid ... Lebedev-50
Angular grid pruning method      GridPruning ... 3 (G Style)
Weight generation scheme         WeightScheme... Becke
Basis function cutoff            BFCut       ...    1.0000e-11
Integration weight cutoff        WCut        ...    1.0000e-14
Grids for H and He will be reduced by one unit

# of grid points (after initial pruning)     ...   4592 (   0.0 sec)
# of grid points (after weights+screening)   ...   4378 (   0.0 sec)
nearest neighbour list constructed           ...    0.0 sec
Grid point re-assignment to atoms done       ...    0.0 sec
Grid point division into batches done        ...    0.0 sec
Reduced shell lists constructed in    0.0 sec

Total number of grid points                  ...     4378
Total number of batches                      ...       74
Average number of points per batch           ...       59
Average number of grid points per atom       ...      365
Average number of shells per batch           ...    32.36 (71.92%)
Average number of basis functions per batch  ...    59.09 (67.92%)
Average number of large shells per batch     ...    28.09 (86.80%)
Average number of large basis fcns per batch ...    51.55 (87.23%)
Maximum spatial batch extension              ...  11.34, 18.45, 10.45 au
Average spatial batch extension              ...   0.60,  0.84,  0.61 au

Overlap Fitting                  UseSFitting ... on
Constructing numerical overlap ... done (      0.0 sec)
Inverting numerical overlap    ... done (      0.0 sec)
Obtaining analytic overlap     ... done (      0.0 sec)
Final contraction and storage  ... done (      0.0 sec)


General Integration Accuracy     IntAcc      ...  3.670
Radial Grid Type                 RadialGrid  ... Gauss-Chebyshev
Angular Grid (max. acc.)         AngularGrid ... Lebedev-50
Angular grid pruning method      GridPruning ... 3 (G Style)
Weight generation scheme         WeightScheme... Becke
Basis function cutoff            BFCut       ...    1.0000e-11
Integration weight cutoff        WCut        ...    1.0000e-14
Grids for H and He will be reduced by one unit

# of grid points (after initial pruning)     ...   6042 (   0.0 sec)
# of grid points (after weights+screening)   ...   5748 (   0.0 sec)
nearest neighbour list constructed           ...    0.0 sec
Grid point re-assignment to atoms done       ...    0.0 sec
Grid point division into batches done        ...    0.0 sec
Reduced shell lists constructed in    0.0 sec

Total number of grid points                  ...     5748
Total number of batches                      ...       97
Average number of points per batch           ...       59
Average number of grid points per atom       ...      479
Average number of shells per batch           ...    32.14 (71.43%)
Average number of basis functions per batch  ...    58.57 (67.32%)
Average number of large shells per batch     ...    27.50 (85.56%)
Average number of large basis fcns per batch ...    50.07 (85.49%)
Maximum spatial batch extension              ...  12.10, 20.22, 11.34 au
Average spatial batch extension              ...   0.55,  0.79,  0.55 au

Overlap Fitting                  UseSFitting ... on
Constructing numerical overlap ... done (      0.0 sec)
Inverting numerical overlap    ... done (      0.0 sec)
Obtaining analytic overlap     ... done (      0.0 sec)
Final contraction and storage  ... done (      0.0 sec)


General Integration Accuracy     IntAcc      ...  4.010
Radial Grid Type                 RadialGrid  ... Gauss-Chebyshev
Angular Grid (max. acc.)         AngularGrid ... Lebedev-110
Angular grid pruning method      GridPruning ... 3 (G Style)
Weight generation scheme         WeightScheme... Becke
Basis function cutoff            BFCut       ...    1.0000e-11
Integration weight cutoff        WCut        ...    1.0000e-14
Grids for H and He will be reduced by one unit

# of grid points (after initial pruning)     ...  10416 (   0.0 sec)
# of grid points (after weights+screening)   ...   9939 (   0.0 sec)
nearest neighbour list constructed           ...    0.0 sec
Grid point re-assignment to atoms done       ...    0.0 sec
Grid point division into batches done        ...    0.0 sec
Reduced shell lists constructed in    0.0 sec

Total number of grid points                  ...     9939
Total number of batches                      ...      163
Average number of points per batch           ...       60
Average number of grid points per atom       ...      828
Average number of shells per batch           ...    32.41 (72.02%)
Average number of basis functions per batch  ...    58.86 (67.66%)
Average number of large shells per batch     ...    28.09 (86.68%)
Average number of large basis fcns per batch ...    51.55 (87.57%)
Maximum spatial batch extension              ...  12.72, 19.87, 12.96 au
Average spatial batch extension              ...   0.47,  0.57,  0.45 au

Overlap Fitting                  UseSFitting ... on
Constructing numerical overlap ... done (      0.0 sec)
Inverting numerical overlap    ... done (      0.0 sec)
Obtaining analytic overlap     ... done (      0.0 sec)
Final contraction and storage  ... done (      0.0 sec)

Time for X-Grid setup             =    0.118 sec
--------------
SCF ITERATIONS
--------------
ITER       Energy         Delta-E        Max-DP      RMS-DP      [F,P]     Damp
               ***  Starting incremental Fock matrix formation  ***
  0   -152.3483466135   0.000000000000 0.08358262  0.00276181  0.2292935 0.7000
  1   -152.4002434808  -0.051896867233 0.04816282  0.00175079  0.1048962 0.7000
                               ***Turning on DIIS***
  2   -152.4197924300  -0.019548949247 0.06268456  0.00248576  0.0315195 0.0000
  3   -152.4490384314  -0.029246001419 0.03315221  0.00118479  0.0605936 0.0000
  4   -152.4566509199  -0.007612488470 0.00968659  0.00032570  0.0091560 0.0000
                      *** Initiating the SOSCF procedure ***
                           *** Shutting down DIIS ***
                      *** Re-Reading the Fockian *** 
                      *** Removing any level shift *** 
ITER      Energy       Delta-E        Grad      Rot      Max-DP    RMS-DP
  5   -152.45699252  -0.0003416003  0.000986  0.000986  0.001909  0.000101
               *** Restarting incremental Fock matrix formation ***
  6   -152.45701287  -0.0000203493  0.000289  0.000890  0.001162  0.000063
  7   -152.45701458  -0.0000017145  0.000208  0.000205  0.000518  0.000020
  8   -152.45701589  -0.0000013015  0.000064  0.000145  0.000164  0.000008
  9   -152.45701586   0.0000000235  0.000056  0.000072  0.000105  0.000003
 10   -152.45701588  -0.0000000155  0.000013  0.000028  0.000043  0.000002
 11   -152.45701589  -0.0000000112  0.000006  0.000005  0.000014  0.000000
 12   -152.45701589   0.0000000021  0.000005  0.000011  0.000007  0.000000
                 **** Energy Check signals convergence ****
              ***Rediagonalizing the Fockian in SOSCF/NRSCF***

               *****************************************************
               *                     SUCCESS                       *
               *           SCF CONVERGED AFTER  13 CYCLES          *
               *****************************************************

Setting up the final grid:

General Integration Accuracy     IntAcc      ...  4.670
Radial Grid Type                 RadialGrid  ... Gauss-Chebyshev
Angular Grid (max. acc.)         AngularGrid ... Lebedev-302
Angular grid pruning method      GridPruning ... 3 (G Style)
Weight generation scheme         WeightScheme... Becke
Basis function cutoff            BFCut       ...    1.0000e-11
Integration weight cutoff        WCut        ...    1.0000e-14
Grids for H and He will be reduced by one unit

# of grid points (after initial pruning)     ...  49182 (   0.0 sec)
# of grid points (after weights+screening)   ...  46355 (   0.0 sec)
nearest neighbour list constructed           ...    0.0 sec
Grid point re-assignment to atoms done       ...    0.0 sec
Grid point division into batches done        ...    0.1 sec
Reduced shell lists constructed in    0.1 sec

Total number of grid points                  ...    46355
Total number of batches                      ...      729
Average number of points per batch           ...       63
Average number of grid points per atom       ...     3863
Average number of shells per batch           ...    30.35 (67.46%)
Average number of basis functions per batch  ...    55.39 (63.66%)
Average number of large shells per batch     ...    25.78 (84.95%)
Average number of large basis fcns per batch ...    46.56 (84.06%)
Maximum spatial batch extension              ...  13.42, 15.87, 14.29 au
Average spatial batch extension              ...   0.30,  0.34,  0.31 au

Final grid set up in    0.2 sec
Final integration                            ... done (   0.0 sec)
Change in XC energy                          ...    -0.000854201
Integrated number of electrons               ...    27.999998196
Previous integrated no of electrons          ...    27.990766783
Old exchange energy                            =     -5.292850208 Eh
New exchange energy                            =     -5.292658470 Eh
Exchange energy change after final integration =      0.000191737 Eh
Total energy after final integration           =   -152.457678351 Eh
Final COS-X integration done in                =     0.165 sec

----------------
TOTAL SCF ENERGY
----------------

Total Energy       :         -152.45767835 Eh           -4148.58434 eV

Components:
Nuclear Repulsion  :           86.16630015 Eh            2344.70423 eV
Electronic Energy  :         -238.62397850 Eh           -6493.28857 eV
One Electron Energy:         -369.79111147 Eh          -10062.52771 eV
Two Electron Energy:          131.16713296 Eh            3569.23914 eV

Virial components:
Potential Energy   :         -303.02831006 Eh           -8245.81953 eV
Kinetic Energy     :          150.57063171 Eh            4097.23519 eV
Virial Ratio       :            2.01253263


DFT components:
N(Alpha)           :       13.999999097857 electrons
N(Beta)            :       13.999999097857 electrons
N(Total)           :       27.999998195715 electrons
E(X)               :      -15.823173678666 Eh       
E(C)               :       -0.896552625475 Eh       
E(XC)              :      -16.719726304141 Eh       
DFET-embed. en.    :        0.000000000000 Eh       

---------------
SCF CONVERGENCE
---------------

  Last Energy change         ...    2.4025e-10  Tolerance :   1.0000e-08
  Last MAX-Density change    ...    2.6645e-15  Tolerance :   1.0000e-07
  Last RMS-Density change    ...    4.1319e-17  Tolerance :   5.0000e-09
  Last Orbital Gradient      ...    1.1480e-06  Tolerance :   1.0000e-05
  Last Orbital Rotation      ...    3.4279e-06  Tolerance :   1.0000e-05

             **** THE GBW FILE WAS UPDATED (get_orca_ts_guess_coarse_TS_orca_opt.gbw) ****
             **** DENSITY FILE WAS UPDATED (get_orca_ts_guess_coarse_TS_orca_opt.scfp.tmp) ****
             **** ENERGY FILE WAS UPDATED (get_orca_ts_guess_coarse_TS_orca_opt.en.tmp) ****
----------------
ORBITAL ENERGIES
----------------

  NO   OCC          E(Eh)            E(eV) 
   0   2.0000     -14.636816      -398.2880 
   1   2.0000     -14.566299      -396.3691 
   2   2.0000     -10.491575      -285.4903 
   3   2.0000      -1.107707       -30.1422 
   4   2.0000      -1.045008       -28.4361 
   5   2.0000      -0.889732       -24.2108 
   6   2.0000      -0.715209       -19.4618 
   7   2.0000      -0.715099       -19.4588 
   8   2.0000      -0.655283       -17.8312 
   9   2.0000      -0.655226       -17.8296 
  10   2.0000      -0.617601       -16.8058 
  11   2.0000      -0.617450       -16.8017 
  12   2.0000      -0.586838       -15.9687 
  13   2.0000      -0.460468       -12.5300 
  14   0.0000      -0.170846        -4.6489 
  15   0.0000      -0.124648        -3.3919 
  16   0.0000      -0.082606        -2.2478 
  17   0.0000      -0.044413        -1.2085 
  18   0.0000      -0.043378        -1.1804 
  19   0.0000      -0.038815        -1.0562 
  20   0.0000      -0.023787        -0.6473 
  21   0.0000      -0.023361        -0.6357 
  22   0.0000      -0.006380        -0.1736 
  23   0.0000      -0.004850        -0.1320 
  24   0.0000       0.238091         6.4788 
  25   0.0000       0.238984         6.5031 
  26   0.0000       0.321790         8.7564 
  27   0.0000       0.322778         8.7832 
  28   0.0000       0.408447        11.1144 
  29   0.0000       0.430424        11.7124 
  30   0.0000       0.432953        11.7812 
  31   0.0000       0.433883        11.8066 
  32   0.0000       0.476457        12.9651 
  33   0.0000       0.507163        13.8006 
  34   0.0000       0.507977        13.8228 
  35   0.0000       0.545334        14.8393 
  36   0.0000       0.580004        15.7827 
  37   0.0000       0.602722        16.4009 
  38   0.0000       0.603045        16.4097 
  39   0.0000       0.643178        17.5018 
  40   0.0000       0.680503        18.5174 
  41   0.0000       0.680883        18.5278 
  42   0.0000       0.716682        19.5019 
  43   0.0000       0.967574        26.3290 
  44   0.0000       0.967745        26.3337 
  45   0.0000       0.973273        26.4841 
  46   0.0000       1.042058        28.3558 
  47   0.0000       1.042428        28.3659 
  48   0.0000       1.094446        29.7814 
  49   0.0000       1.114829        30.3361 
  50   0.0000       1.115134        30.3443 
  51   0.0000       1.289236        35.0819 
  52   0.0000       1.368343        37.2345 
  53   0.0000       1.428280        38.8655 
  54   0.0000       1.442400        39.2497 
  55   0.0000       1.484527        40.3960 
  56   0.0000       1.485063        40.4106 
  57   0.0000       1.623086        44.1664 
  58   0.0000       1.674079        45.5540 
  59   0.0000       1.674598        45.5681 
  60   0.0000       1.714858        46.6637 
  61   0.0000       1.715762        46.6883 
  62   0.0000       1.863727        50.7146 
  63   0.0000       1.864177        50.7268 
  64   0.0000       1.916162        52.1414 
  65   0.0000       1.916795        52.1586 
  66   0.0000       1.926398        52.4199 
  67   0.0000       1.955742        53.2185 
  68   0.0000       1.956459        53.2380 
  69   0.0000       2.035981        55.4019 
  70   0.0000       2.116134        57.5829 
  71   0.0000       2.117397        57.6173 
  72   0.0000       2.204269        59.9812 
  73   0.0000       2.288175        62.2644 
  74   0.0000       2.559164        69.6384 
  75   0.0000       2.559413        69.6452 
  76   0.0000       2.617759        71.2328 
  77   0.0000       2.618061        71.2411 
  78   0.0000       2.629681        71.5572 
  79   0.0000       2.700814        73.4929 
  80   0.0000       2.705543        73.6216 
  81   0.0000       2.706529        73.6484 
  82   0.0000       2.760735        75.1234 
  83   0.0000       3.099874        84.3519 
  84   0.0000       3.100526        84.3696 
  85   0.0000       3.161962        86.0414 
  86   0.0000       3.163963        86.0958 

                    ********************************
                    * MULLIKEN POPULATION ANALYSIS *
                    ********************************

-----------------------
MULLIKEN ATOMIC CHARGES
-----------------------
   0 N :   -0.276737
   1 H :    0.160565
   2 H :    0.160412
   3 H :    0.162068
   4 N :   -0.209636
   5 C :    0.029488
   6 H :    0.196395
   7 H :    0.196013
   8 H :    0.195493
   9 H :    0.128257
  10 H :    0.128555
  11 H :    0.129127
Sum of atomic charges:    1.0000000

--------------------------------
MULLIKEN REDUCED ORBITAL CHARGES
--------------------------------
  0 N s       :     3.426171  s :     3.426171
      pz      :     1.138106  p :     3.837276
      px      :     1.558724
      py      :     1.140447
      dz2     :     0.001999  d :     0.013289
      dxz     :     0.004197
      dyz     :     0.002104
      dx2y2   :     0.001171
      dxy     :     0.003818
  1 H s       :     0.793869  s :     0.793869
      pz      :     0.023958  p :     0.045567
      px      :     0.012677
      py      :     0.008932
  2 H s       :     0.794071  s :     0.794071
      pz      :     0.010892  p :     0.045517
      px      :     0.012092
      py      :     0.022533
  3 H s       :     0.792389  s :     0.792389
      pz      :     0.014387  p :     0.045542
      px      :     0.013456
      py      :     0.017699
  4 N s       :     3.399978  s :     3.399978
      pz      :     1.172165  p :     3.797206
      px      :     1.452261
      py      :     1.172780
      dz2     :     0.001993  d :     0.012452
      dxz     :     0.003240
      dyz     :     0.002687
      dx2y2   :     0.001059
      dxy     :     0.003473
  5 C s       :     3.219340  s :     3.219340
      pz      :     1.075595  p :     2.725943
      px      :     0.581584
      py      :     1.068763
      dz2     :     0.007417  d :     0.025230
      dxz     :     0.000554
      dyz     :     0.005608
      dx2y2   :     0.010787
      dxy     :     0.000864
  6 H s       :     0.759529  s :     0.759529
      pz      :     0.014685  p :     0.044077
      px      :     0.009715
      py      :     0.019677
  7 H s       :     0.759929  s :     0.759929
      pz      :     0.010860  p :     0.044058
      px      :     0.011204
      py      :     0.021994
  8 H s       :     0.760389  s :     0.760389
      pz      :     0.025025  p :     0.044118
      px      :     0.010294
      py      :     0.008799
  9 H s       :     0.848041  s :     0.848041
      pz      :     0.015875  p :     0.023702
      px      :     0.003296
      py      :     0.004531
 10 H s       :     0.847860  s :     0.847860
      pz      :     0.006089  p :     0.023585
      px      :     0.003637
      py      :     0.013859
 11 H s       :     0.847216  s :     0.847216
      pz      :     0.008583  p :     0.023657
      px      :     0.003112
      py      :     0.011963


                     *******************************
                     * LOEWDIN POPULATION ANALYSIS *
                     *******************************

----------------------
LOEWDIN ATOMIC CHARGES
----------------------
   0 N :   -0.022020
   1 H :    0.093017
   2 H :    0.092997
   3 H :    0.093375
   4 N :    0.099616
   5 C :    0.130659
   6 H :    0.116340
   7 H :    0.116241
   8 H :    0.116129
   9 H :    0.054509
  10 H :    0.054599
  11 H :    0.054540

-------------------------------
LOEWDIN REDUCED ORBITAL CHARGES
-------------------------------
  0 N s       :     3.127686  s :     3.127686
      pz      :     1.177435  p :     3.864415
      px      :     1.507448
      py      :     1.179532
      dz2     :     0.006125  d :     0.029920
      dxz     :     0.007311
      dyz     :     0.006896
      dx2y2   :     0.003078
      dxy     :     0.006511
  1 H s       :     0.789096  s :     0.789096
      pz      :     0.058707  p :     0.117887
      px      :     0.040452
      py      :     0.018729
  2 H s       :     0.789253  s :     0.789253
      pz      :     0.023903  p :     0.117750
      px      :     0.038265
      py      :     0.055583
  3 H s       :     0.788763  s :     0.788763
      pz      :     0.033196  p :     0.117862
      px      :     0.043054
      py      :     0.041612
  4 N s       :     3.091683  s :     3.091683
      pz      :     1.194334  p :     3.778768
      px      :     1.389328
      py      :     1.195106
      dz2     :     0.006283  d :     0.029933
      dxz     :     0.005701
      dyz     :     0.008106
      dx2y2   :     0.003546
      dxy     :     0.006297
  5 C s       :     2.970148  s :     2.970148
      pz      :     1.100864  p :     2.841544
      px      :     0.644023
      py      :     1.096658
      dz2     :     0.017457  d :     0.057649
      dxz     :     0.000855
      dyz     :     0.014143
      dx2y2   :     0.023623
      dxy     :     0.001572
  6 H s       :     0.767623  s :     0.767623
      pz      :     0.034598  p :     0.116037
      px      :     0.033017
      py      :     0.048423
  7 H s       :     0.767750  s :     0.767750
      pz      :     0.024404  p :     0.116009
      px      :     0.037700
      py      :     0.053905
  8 H s       :     0.767785  s :     0.767785
      pz      :     0.062219  p :     0.116086
      px      :     0.034918
      py      :     0.018949
  9 H s       :     0.875048  s :     0.875048
      pz      :     0.049244  p :     0.070443
      px      :     0.009292
      py      :     0.011906
 10 H s       :     0.875011  s :     0.875011
      pz      :     0.017223  p :     0.070390
      px      :     0.010272
      py      :     0.042895
 11 H s       :     0.875022  s :     0.875022
      pz      :     0.025134  p :     0.070438
      px      :     0.008752
      py      :     0.036551


                      *****************************
                      * MAYER POPULATION ANALYSIS *
                      *****************************

  NA   - Mulliken gross atomic population
  ZA   - Total nuclear charge
  QA   - Mulliken gross atomic charge
  VA   - Mayer's total valence
  BVA  - Mayer's bonded valence
  FA   - Mayer's free valence

  ATOM       NA         ZA         QA         VA         BVA        FA
  0 N      7.2767     7.0000    -0.2767     3.2768     3.2768     0.0000
  1 H      0.8394     1.0000     0.1606     0.9802     0.9802    -0.0000
  2 H      0.8396     1.0000     0.1604     0.9800     0.9800    -0.0000
  3 H      0.8379     1.0000     0.1621     0.9798     0.9798    -0.0000
  4 N      7.2096     7.0000    -0.2096     3.4593     3.4593    -0.0000
  5 C      5.9705     6.0000     0.0295     3.7587     3.7587    -0.0000
  6 H      0.8036     1.0000     0.1964     0.9668     0.9668    -0.0000
  7 H      0.8040     1.0000     0.1960     0.9670     0.9670     0.0000
  8 H      0.8045     1.0000     0.1955     0.9673     0.9673    -0.0000
  9 H      0.8717     1.0000     0.1283     0.9849     0.9849    -0.0000
 10 H      0.8714     1.0000     0.1286     0.9842     0.9842    -0.0000
 11 H      0.8709     1.0000     0.1291     0.9839     0.9839    -0.0000

  Mayer bond orders larger than 0.1
B(  0-N ,  1-H ) :   0.9694 B(  0-N ,  2-H ) :   0.9695 B(  0-N ,  3-H ) :   0.9691 
B(  0-N ,  5-C ) :   0.2864 B(  4-N ,  5-C ) :   0.5393 B(  4-N ,  6-H ) :   0.9524 
B(  4-N ,  7-H ) :   0.9525 B(  4-N ,  8-H ) :   0.9527 B(  5-C ,  9-H ) :   0.9722 
B(  5-C , 10-H ) :   0.9721 B(  5-C , 11-H ) :   0.9719 

-------
TIMINGS
-------

Total SCF time: 0 days 0 hours 0 min 3 sec 

Total time                  ....       3.903 sec
Sum of individual times     ....       3.771 sec  ( 96.6%)

Fock matrix formation       ....       3.283 sec  ( 84.1%)
  Split-RI-J                ....       1.565 sec  ( 47.7% of F)
  Chain of spheres X        ....       1.436 sec  ( 43.7% of F)
  COS-X 1 center corr.      ....       0.000 sec  (  0.0% of F)
  XC integration            ....       0.228 sec  (  6.9% of F)
    Basis function eval.    ....       0.050 sec  ( 22.0% of XC)
    Density eval.           ....       0.018 sec  (  8.1% of XC)
    XC-Functional eval.     ....       0.015 sec  (  6.6% of XC)
    XC-Potential eval.      ....       0.024 sec  ( 10.5% of XC)
Diagonalization             ....       0.005 sec  (  0.1%)
Density matrix formation    ....       0.002 sec  (  0.1%)
Population analysis         ....       0.002 sec  (  0.1%)
Initial guess               ....       0.114 sec  (  2.9%)
Orbital Transformation      ....       0.000 sec  (  0.0%)
Orbital Orthonormalization  ....       0.000 sec  (  0.0%)
DIIS solution               ....       0.002 sec  (  0.0%)
SOSCF solution              ....       0.004 sec  (  0.1%)
Grid generation             ....       0.360 sec  (  9.2%)


-------------------------------------------------------------------------------
                          DFT DISPERSION CORRECTION                            
                                                                               
                              DFTD3 V3.1  Rev 1                                
                          USING Becke-Johnson damping                          
-------------------------------------------------------------------------------
The PBE0 functional is recognized
Active option DFTDOPT                   ...         4   

molecular C6(AA) [au] = 794.097846 


            DFT-D V3
 parameters
 s6 scaling factor         :     1.0000 
 a1 scaling factor         :     0.4145 
 s8 scaling factor         :     1.2177 
 a2 scaling factor         :     4.8593 
 ad hoc parameters k1-k3   :    16.0000     1.3333    -4.0000 

 Edisp/kcal,au: -3.017283097226  -0.004808346169 
 E6   /kcal   :  -2.052081566 
 E8   /kcal   :  -0.965201531 
 % E8         :  31.989094158 

-------------------------   ----------------
Dispersion correction           -0.004808346
-------------------------   ----------------


-------------------------   --------------------
FINAL SINGLE POINT ENERGY      -152.462486696764
-------------------------   --------------------



           ************************************************************
           *        Program running with 8 parallel MPI-processes     *
           *              working on a common directory               *
           ************************************************************
------------------------------------------------------------------------------
                         ORCA SCF GRADIENT CALCULATION
------------------------------------------------------------------------------

Gradient of the Kohn-Sham DFT energy:
Kohn-Sham wavefunction type      ... RKS
Hartree-Fock exchange scaling    ...    0.250
Number of operators              ...    1
Number of atoms                  ...   12
Basis set dimensions             ...   87
Integral neglect threshold       ... 2.5e-11
Integral primitive cutoff        ... 2.5e-12

Nuclear repulsion gradient       ... done
One Electron Gradient            ... done
Pre-screening matrix             ... done
RI-J gradient                    ... done
COSX-gradient                    ... done
Exchange-correlation gradient    ... done
Dispersion correction            ... done

------------------
CARTESIAN GRADIENT
------------------

   1   N   :    0.006337595   -0.000717409    0.000209324
   2   H   :   -0.002102264    0.000638522   -0.007170188
   3   H   :   -0.001569032   -0.006913039    0.002459688
   4   H   :   -0.002738508    0.005889085    0.004431323
   5   N   :    0.016586213    0.000556428   -0.000150162
   6   C   :   -0.021132606   -0.000581626    0.000048835
   7   H   :    0.001772233    0.006058280    0.004115897
   8   H   :    0.002444392   -0.006392444    0.002548909
   9   H   :    0.002051546    0.001025719   -0.006933141
  10   H   :   -0.000452755   -0.000201931    0.005343883
  11   H   :   -0.000764144    0.005019295   -0.001937491
  12   H   :   -0.000061753   -0.004559854   -0.003212550

Difference to translation invariance:
           :    0.0003709173   -0.0001789748   -0.0002456731

Norm of the cartesian gradient     ...    0.0345013562
RMS gradient                       ...    0.0057502260
MAX gradient                       ...    0.0211326063

-------
TIMINGS
-------

Total SCF gradient time            ...        0.638 sec

One electron gradient       ....       0.004 sec  (  0.6%)
Prescreening matrices       ....       0.004 sec  (  0.6%)
RI-J Coulomb gradient       ....       0.105 sec  ( 16.5%)
COSX gradient               ....       0.112 sec  ( 17.6%)
XC gradient                 ....       0.123 sec  ( 19.3%)


           ************************************************************
           *        Program running with 8 parallel MPI-processes     *
           *              working on a common directory               *
           ************************************************************

-------------------------------------------------------------------------------
                               ORCA SCF HESSIAN
-------------------------------------------------------------------------------

Hessian of the Kohn-Sham DFT energy:
Kohn-Sham wavefunction type                      ... RKS
Hartree-Fock exchange scaling                    ...    0.250
Number of operators                              ...    1
Number of atoms                                  ...   12
Basis set dimensions                             ...   87
Integral neglect threshold                       ... 2.5e-11
Integral primitive cutoff                        ... 2.5e-12

Setting up DFT Hessian calculations              ... 
Electron density on the grid                     ... found on disk
Electron density on the final grid               ... found on disk
Building xc-kernel on the grid                   ... done   (      0.0 sec)
Building xc-kernel on the final grid             ... done   (      0.0 sec)
                                                     done   (      0.1 sec)

Nuclear repulsion Hessian                        ... done   (      0.0 sec)

----------------------------------------------
Forming right-hand sides of CP-SCF equations     ...
----------------------------------------------
One electron integral derivatives                ... done   (      0.1 sec)
Transforming the overlap derivative matrices     ... done   (      0.0 sec)
Making the Q(x) pseudodensities                  ... done   (      0.0 sec)
Adding the E*S(x)*S(y) terms to the Hessian      ... done   (      0.0 sec)
Calculating energy weighted overlap derivatives  ... done   (      0.0 sec)
Two electron integral derivatives (RI)           ... done   (      0.6 sec)
Exchange-correlation integral derivatives        ... done   (      1.6 sec)
tr(F(y)Q(x)) contribution to the Hessian         ... done   (      0.0 sec)
Response fock operator R(S(x)) (RIJCOSX)         ... done   (      0.9 sec)
XC Response fock operator R(S(x))                ... done   (      0.5 sec)
tr(F(y)S(x)) contribution to the Hessian         ... done   (      0.0 sec)
Transforming and finalizing RHSs                 ... done   (      0.0 sec)

----------------------------------------------
Solving the CP-SCF equations (RIJCOSX)           ...
----------------------------------------------
     CP-SCF ITERATION   0: 
     CP-SCF ITERATION   1:      0.000539604564
     CP-SCF ITERATION   2:      0.000079533716
     CP-SCF ITERATION   3:      0.000006043458
     CP-SCF ITERATION   4:      0.000000760727
     CP-SCF ITERATION   5:      0.000000014656
     CP-SCF ITERATION   6:      0.000000009754

                                                 ... done   (      4.5 sec)
Forming perturbed density Hessian contributions  ... done   (      0.0 sec)
2nd integral derivative contribs (RI)            ... done   (      2.1 sec)
Exchange-correlation Hessian                     ... done   (      2.2 sec)
Dispersion correction in the Hessian             ... done   (      1.2 sec)
Dipol derivatives                                ... done   (      0.2 sec)

Total SCF Hessian time: 0 days 0 hours 0 min 14 sec 

Writing the Hessian file to the disk             ... done


Maximum memory used throughout the entire calculation: 122.2 MB

-----------------------
VIBRATIONAL FREQUENCIES
-----------------------

Scaling factor for frequencies =  1.000000000  (already applied!)

   0:         0.00 cm**-1
   1:         0.00 cm**-1
   2:         0.00 cm**-1
   3:         0.00 cm**-1
   4:         0.00 cm**-1
   5:         0.00 cm**-1
   6:      -466.20 cm**-1 ***imaginary mode***
   7:       280.26 cm**-1
   8:       284.40 cm**-1
   9:       284.78 cm**-1
  10:       324.31 cm**-1
  11:       340.01 cm**-1
  12:       586.60 cm**-1
  13:       587.35 cm**-1
  14:       773.13 cm**-1
  15:       773.55 cm**-1
  16:      1127.94 cm**-1
  17:      1128.60 cm**-1
  18:      1190.48 cm**-1
  19:      1223.44 cm**-1
  20:      1284.06 cm**-1
  21:      1382.30 cm**-1
  22:      1382.95 cm**-1
  23:      1634.81 cm**-1
  24:      1635.30 cm**-1
  25:      1651.19 cm**-1
  26:      1651.80 cm**-1
  27:      3084.36 cm**-1
  28:      3301.00 cm**-1
  29:      3301.94 cm**-1
  30:      3387.65 cm**-1
  31:      3396.64 cm**-1
  32:      3519.48 cm**-1
  33:      3520.90 cm**-1
  34:      3523.43 cm**-1
  35:      3525.59 cm**-1


------------
NORMAL MODES
------------

These modes are the Cartesian displacements weighted by the diagonal matrix
M(i,i)=1/sqrt(m[i]) where m[i] is the mass of the displaced atom
Thus, these vectors are normalized but *not* orthogonal

                  0          1          2          3          4          5    
      0       0.000000   0.000000   0.000000   0.000000   0.000000   0.000000
      1       0.000000   0.000000   0.000000   0.000000   0.000000   0.000000
      2       0.000000   0.000000   0.000000   0.000000   0.000000   0.000000
      3       0.000000   0.000000   0.000000   0.000000   0.000000   0.000000
      4       0.000000   0.000000   0.000000   0.000000   0.000000   0.000000
      5       0.000000   0.000000   0.000000   0.000000   0.000000   0.000000
      6       0.000000   0.000000   0.000000   0.000000   0.000000   0.000000
      7       0.000000   0.000000   0.000000   0.000000   0.000000   0.000000
      8       0.000000   0.000000   0.000000   0.000000   0.000000   0.000000
      9       0.000000   0.000000   0.000000   0.000000   0.000000   0.000000
     10       0.000000   0.000000   0.000000   0.000000   0.000000   0.000000
     11       0.000000   0.000000   0.000000   0.000000   0.000000   0.000000
     12       0.000000   0.000000   0.000000   0.000000   0.000000   0.000000
     13       0.000000   0.000000   0.000000   0.000000   0.000000   0.000000
     14       0.000000   0.000000   0.000000   0.000000   0.000000   0.000000
     15       0.000000   0.000000   0.000000   0.000000   0.000000   0.000000
     16       0.000000   0.000000   0.000000   0.000000   0.000000   0.000000
     17       0.000000   0.000000   0.000000   0.000000   0.000000   0.000000
     18       0.000000   0.000000   0.000000   0.000000   0.000000   0.000000
     19       0.000000   0.000000   0.000000   0.000000   0.000000   0.000000
     20       0.000000   0.000000   0.000000   0.000000   0.000000   0.000000
     21       0.000000   0.000000   0.000000   0.000000   0.000000   0.000000
     22       0.000000   0.000000   0.000000   0.000000   0.000000   0.000000
     23       0.000000   0.000000   0.000000   0.000000   0.000000   0.000000
     24       0.000000   0.000000   0.000000   0.000000   0.000000   0.000000
     25       0.000000   0.000000   0.000000   0.000000   0.000000   0.000000
     26       0.000000   0.000000   0.000000   0.000000   0.000000   0.000000
     27       0.000000   0.000000   0.000000   0.000000   0.000000   0.000000
     28       0.000000   0.000000   0.000000   0.000000   0.000000   0.000000
     29       0.000000   0.000000   0.000000   0.000000   0.000000   0.000000
     30       0.000000   0.000000   0.000000   0.000000   0.000000   0.000000
     31       0.000000   0.000000   0.000000   0.000000   0.000000   0.000000
     32       0.000000   0.000000   0.000000   0.000000   0.000000   0.000000
     33       0.000000   0.000000   0.000000   0.000000   0.000000   0.000000
     34       0.000000   0.000000   0.000000   0.000000   0.000000   0.000000
     35       0.000000   0.000000   0.000000   0.000000   0.000000   0.000000
                  6          7          8          9         10         11    
      0      -0.188846  -0.373411  -0.007579   0.009275   0.001301  -0.000754
      1      -0.015316  -0.032171   0.060536  -0.092257   0.000291   0.000208
      2      -0.001438  -0.001971  -0.092718  -0.061105   0.000395  -0.000016
      3      -0.247289  -0.374479   0.234434   0.136239  -0.035546  -0.018703
      4      -0.024976  -0.029613   0.141171  -0.170074   0.426197   0.215390
      5       0.024850  -0.000456  -0.183621  -0.120637   0.057432   0.028530
      6      -0.249445  -0.365387  -0.238746   0.172188   0.019014   0.007551
      7       0.004123  -0.035239   0.103940  -0.173009  -0.162287  -0.081671
      8      -0.014282  -0.004983  -0.186443  -0.123077  -0.398997  -0.201700
      9      -0.250997  -0.372387  -0.031358  -0.254069   0.020052   0.008908
     10      -0.044894  -0.036523   0.120762  -0.211077  -0.262138  -0.131906
     11      -0.019849   0.002895  -0.186407  -0.123129   0.341131   0.171696
     12      -0.281981   0.338418  -0.001712   0.007747  -0.001184   0.000751
     13      -0.022896   0.025964   0.067633  -0.102286   0.000037   0.000295
     14      -0.002121   0.004028  -0.102516  -0.067584   0.000352  -0.000050
     15       0.666906   0.041059   0.012105  -0.022365  -0.000127  -0.000063
     16       0.054421   0.007774  -0.167636   0.254273  -0.000490  -0.000643
     17       0.005206  -0.002704   0.255139   0.168240  -0.000791   0.000150
     18      -0.276812   0.327322   0.014449   0.305080  -0.001413  -0.020922
     19      -0.013609   0.023777   0.131093  -0.169720  -0.004418   0.291886
     20       0.003723   0.010742  -0.196047  -0.127425   0.006456  -0.381218
     21      -0.274111   0.321566   0.234439  -0.147121  -0.000834  -0.016512
     22      -0.030957   0.018033   0.146851  -0.207025  -0.002617   0.183521
     23       0.003268   0.002321  -0.193962  -0.129765  -0.006203   0.444006
     24      -0.273095   0.328745  -0.266988  -0.111353  -0.000983   0.039368
     25      -0.021437   0.028469   0.107897  -0.207177   0.007461  -0.474232
     26      -0.011450   0.001944  -0.195565  -0.129323   0.001634  -0.062586
     27       0.057322   0.042269   0.082530   0.010861  -0.031637   0.019599
     28       0.010794   0.015474  -0.169716   0.277488   0.379509  -0.233244
     29      -0.052613   0.000762   0.269259   0.178220   0.044756  -0.027704
     30       0.060166   0.045493  -0.052523   0.019520   0.014786  -0.008969
     31      -0.043781   0.007737  -0.181813   0.273042  -0.150655   0.091266
     32       0.021652  -0.011219   0.267859   0.181834  -0.353815   0.216172
     33       0.050179   0.043861   0.008620  -0.101385   0.016451  -0.009523
     34       0.047262   0.001511  -0.183712   0.261057  -0.229779   0.139652
     35       0.032117   0.001634   0.277700   0.176845   0.306649  -0.188065
                 12         13         14         15         16         17    
      0      -0.005887   0.005135  -0.002159   0.001131  -0.000337   0.000985
      1       0.076638  -0.053515   0.026955  -0.010234   0.005252  -0.012690
      2      -0.053816  -0.076775  -0.010282  -0.027025  -0.012712  -0.005270
      3      -0.474843  -0.544968  -0.064227  -0.126111  -0.015926  -0.004540
      4      -0.219875   0.083715  -0.040047   0.003668  -0.001667   0.003551
      5       0.106443   0.159149   0.007777   0.025033  -0.008917  -0.001893
      6       0.717762  -0.171375   0.143702   0.002265   0.011199  -0.011012
      7      -0.100625   0.107976  -0.013757   0.013662   0.007621  -0.005879
      8       0.126097   0.181122   0.011010   0.034909  -0.000029   0.005189
      9      -0.201239   0.677478  -0.071762   0.119701   0.004449   0.016769
     10      -0.195313   0.168453  -0.037429   0.016836  -0.003924  -0.004973
     11       0.129886   0.177699   0.015526   0.031647   0.001642  -0.005377
     12       0.000782  -0.000875  -0.006472   0.003279   0.001023  -0.003796
     13      -0.010454   0.007327   0.084036  -0.031951  -0.018064   0.043875
     14       0.007299   0.010573  -0.032086  -0.084290   0.044112   0.018027
     15       0.002720  -0.001912   0.004266  -0.002302  -0.001281   0.003419
     16      -0.037454   0.026192  -0.054577   0.020779   0.018115  -0.044310
     17       0.026371   0.037336   0.020821   0.054691  -0.044484  -0.018128
     18      -0.056615   0.170691   0.383225  -0.603226   0.039252   0.151185
     19       0.044069  -0.015409  -0.154918  -0.003817   0.027748   0.000102
     20      -0.037320  -0.044566   0.096928   0.176824  -0.034874   0.005695
     21       0.169069  -0.035723  -0.690838  -0.027968   0.111681  -0.109039
     22       0.056719  -0.036676  -0.215973   0.077685   0.001860  -0.025078
     23      -0.031235  -0.051101   0.054967   0.205295  -0.030021  -0.027610
     24      -0.122957  -0.126771   0.349238   0.611190  -0.151660  -0.036895
     25       0.039878  -0.046607  -0.174805   0.133588   0.000082  -0.044672
     26      -0.030490  -0.044904   0.056676   0.165660  -0.005763  -0.007551
     27      -0.037611  -0.044995   0.105019   0.181743   0.763746   0.202827
     28      -0.032998   0.015703  -0.078258   0.048218   0.033328   0.109352
     29       0.026265   0.035381   0.032640   0.085640   0.028385   0.019985
     30       0.060167  -0.014460  -0.202662  -0.011290  -0.561332   0.552836
     31      -0.032772   0.020720  -0.100802   0.032274  -0.035785   0.089490
     32       0.024453   0.027536   0.030330   0.086114   0.065523   0.060884
     33      -0.015204   0.053710   0.117400  -0.180161  -0.195675  -0.763812
     34      -0.032486   0.031844  -0.076008   0.016479  -0.067089  -0.027257
     35       0.018068   0.034729   0.034788   0.084017   0.077788  -0.010593
                 18         19         20         21         22         23    
      0       0.089843   0.077025   0.002449  -0.000005   0.000020   0.000042
      1       0.007675   0.006810   0.000255  -0.000009  -0.000334  -0.000293
      2       0.000919   0.000953   0.000036  -0.000345   0.000030  -0.001525
      3      -0.273515  -0.434164  -0.036194  -0.002647   0.001459   0.005477
      4      -0.040940  -0.061742  -0.004908   0.001074  -0.017574   0.007340
      5       0.121774   0.168384   0.012436  -0.000476  -0.002311  -0.002425
      6      -0.282871  -0.447160  -0.037187   0.002257  -0.001516  -0.002134
      7       0.092678   0.123950   0.008864  -0.005321  -0.004533   0.007884
      8      -0.051199  -0.071675  -0.005414  -0.013828  -0.009067   0.017729
      9      -0.263576  -0.421145  -0.035286   0.000420   0.002968  -0.004054
     10      -0.123521  -0.175816  -0.013365   0.009625  -0.004918  -0.010522
     11      -0.080068  -0.111776  -0.008335  -0.012978   0.006135   0.008662
     12       0.052806  -0.037863   0.098929   0.000010  -0.000184  -0.001306
     13       0.004361  -0.003098   0.007830  -0.000493   0.002789   0.011881
     14       0.000476  -0.000324   0.000639   0.002757   0.000528   0.060361
     15       0.033610  -0.034521  -0.010929   0.000421  -0.007248  -0.000046
     16       0.002583  -0.002699  -0.000865  -0.013997   0.087409   0.000230
     17       0.000208  -0.000218  -0.000127   0.087849   0.013924   0.001623
     18      -0.041441   0.073461  -0.532173  -0.001234  -0.001191  -0.235116
     19       0.023399  -0.024241   0.118662   0.010382  -0.002261   0.373067
     20       0.019757  -0.022283   0.119763  -0.011287   0.007732  -0.327149
     21      -0.037406   0.068480  -0.503523  -0.000187   0.000948  -0.025144
     22      -0.033845   0.040387  -0.228105  -0.007052  -0.001223  -0.312168
     23       0.012489  -0.013953   0.074294  -0.012307  -0.009982  -0.670108
     24      -0.040231   0.071652  -0.520101   0.001075   0.001343   0.279574
     25       0.000935   0.000884  -0.014723   0.000968  -0.016823  -0.235617
     26      -0.033241   0.037748  -0.203814   0.003341  -0.002076   0.110026
     27      -0.479531   0.317627   0.128817   0.132337   0.069552  -0.021177
     28      -0.033094   0.021465   0.009076   0.029509  -0.786578   0.003944
     29      -0.051146   0.035277   0.014837   0.102740  -0.090771   0.001987
     30      -0.476600   0.316053   0.126984  -0.041299   0.124690   0.003715
     31      -0.082557   0.056017   0.023131  -0.317182  -0.080139   0.006361
     32       0.015198  -0.010721  -0.004382  -0.598877  -0.421756   0.015260
     33      -0.487547   0.322348   0.130168  -0.095806  -0.109609   0.016966
     34      -0.001078  -0.000332  -0.000664   0.451759  -0.161616  -0.004053
     35       0.024571  -0.017155  -0.007238  -0.536624   0.348412   0.009107
                 24         25         26         27         28         29    
      0      -0.000128   0.001625  -0.005383  -0.000398  -0.000079  -0.000047
      1       0.001506  -0.010297   0.062589  -0.000036   0.000926   0.000404
      2      -0.000297  -0.062765  -0.010409  -0.000000  -0.000407   0.000928
      3       0.003697   0.233965   0.140941  -0.001127  -0.002545   0.004267
      4      -0.018002   0.260261  -0.699579   0.000036   0.000529   0.000790
      5      -0.003591  -0.111288  -0.139442  -0.000930   0.000112   0.000378
      6      -0.006281  -0.093844  -0.261167  -0.001110   0.004958   0.000028
      7       0.001244   0.303719   0.049994  -0.000972   0.000638   0.000377
      8      -0.004848   0.666594  -0.215141   0.000349  -0.000032   0.000782
      9       0.004638  -0.163204   0.196775  -0.001250  -0.002493  -0.004240
     10      -0.006846  -0.417637  -0.239752   0.000663   0.000360  -0.000583
     11       0.013221   0.336697   0.502765   0.000577  -0.000586   0.000351
     12       0.004726   0.000039  -0.000124   0.000237  -0.000117  -0.000055
     13      -0.060204  -0.000269   0.001490   0.000016   0.001483   0.000647
     14       0.011929  -0.001513  -0.000248   0.000006  -0.000657   0.001489
     15       0.000104  -0.000047   0.000056  -0.012807   0.007357   0.004143
     16      -0.001599   0.000241  -0.000735  -0.000776  -0.095330  -0.040994
     17       0.000246   0.000726   0.000210  -0.000371   0.041149  -0.095531
     18       0.162420   0.006178  -0.004612  -0.000643   0.003418   0.005933
     19       0.279368  -0.009808  -0.006716   0.000167  -0.000155  -0.001201
     20      -0.506935   0.008686   0.012620   0.000154  -0.000779  -0.000987
     21      -0.262901   0.001012   0.007042  -0.000568  -0.006617  -0.000118
     22      -0.099550   0.008142   0.002445  -0.000325  -0.002376   0.000241
     23       0.190515   0.017065  -0.005366   0.000132   0.000715   0.000306
     24       0.031134  -0.007606  -0.000673  -0.000656   0.003366  -0.005927
     25       0.704887   0.005343  -0.018080  -0.000013   0.000439  -0.000082
     26       0.140842  -0.003085  -0.003519  -0.000291   0.001234  -0.001480
     27      -0.005846  -0.005988  -0.003654   0.052148   0.039148  -0.066281
     28      -0.016044  -0.006200   0.017450   0.072531   0.047126  -0.091618
     29      -0.001513  -0.002447   0.001620  -0.567464  -0.405438   0.694322
     30       0.021724   0.002105   0.006522   0.094809  -0.135214  -0.000248
     31      -0.000654  -0.006639   0.003510  -0.525450   0.732431   0.000517
     32      -0.001815  -0.017172   0.002669   0.227504  -0.317269  -0.006182
     33      -0.013721   0.004823  -0.005312   0.013237   0.011038   0.018632
     34      -0.009695   0.006775   0.009060   0.462887   0.323461   0.565427
     35       0.009549  -0.010509  -0.010610   0.344307   0.246511   0.417248
                 30         31         32         33         34         35    
      0      -0.005786  -0.039455  -0.000113  -0.000026   0.007052  -0.001018
      1      -0.000552  -0.003789   0.001266   0.000442  -0.079643   0.005534
      2       0.000041   0.000298   0.000116  -0.001080   0.005561   0.079973
      3       0.028532   0.181401   0.000170   0.004599  -0.059902  -0.293869
      4      -0.008473  -0.055410   0.000256  -0.001032   0.000069   0.077407
      5       0.081425   0.528777   0.000558   0.011147  -0.157241  -0.742866
      6       0.023009   0.145844  -0.003694  -0.002629   0.228226   0.073786
      7       0.079774   0.518841  -0.010522  -0.007686   0.681788   0.228108
      8      -0.031456  -0.204732   0.004250   0.002797  -0.272896  -0.073297
      9       0.035410   0.226079   0.005158  -0.001553  -0.266099   0.234151
     10      -0.063112  -0.410401  -0.007915   0.002487   0.422016  -0.382189
     11      -0.050500  -0.328157  -0.006554   0.001680   0.353053  -0.292277
     12      -0.037557   0.006081   0.006558   0.000372   0.000101  -0.000018
     13      -0.002964   0.000482  -0.080223  -0.014614  -0.001430   0.000021
     14      -0.000849   0.000141  -0.014596   0.080474   0.000292   0.001164
     15      -0.002235  -0.000901  -0.000037  -0.000017  -0.000014   0.000012
     16      -0.000193  -0.000056   0.000457   0.000058   0.000360  -0.000040
     17      -0.000043   0.000004   0.000072  -0.000450  -0.000032  -0.000356
     18       0.142369  -0.021694   0.200408  -0.101219   0.002521  -0.001837
     19       0.445308  -0.068742   0.554087  -0.289203   0.007202  -0.005425
     20       0.332332  -0.051320   0.419317  -0.202259   0.005548  -0.003895
     21       0.217848  -0.033347  -0.278477  -0.177935  -0.005574  -0.001623
     22      -0.487165   0.075261   0.571347   0.369051   0.011716   0.003449
     23       0.209357  -0.032327  -0.253527  -0.148446  -0.005094  -0.001376
     24       0.172970  -0.026389  -0.012493   0.274101   0.001591   0.003667
     25       0.083980  -0.012930  -0.017691   0.121970   0.000569   0.001726
     26      -0.529836   0.081724   0.035767  -0.760501  -0.004495  -0.010551
     27       0.002894   0.000860  -0.000195   0.003217  -0.000408  -0.002124
     28       0.000181   0.000180   0.000221   0.000418  -0.000298  -0.000204
     29       0.000544  -0.001049   0.000182  -0.001272   0.000117   0.000408
     30       0.002928   0.000971  -0.002755  -0.001801   0.002049   0.000685
     31       0.000504  -0.000889   0.000704   0.000550  -0.000279   0.000094
     32      -0.000100   0.000431  -0.000236  -0.000557   0.000145   0.000256
     33       0.002960   0.000774   0.002770  -0.001387  -0.001631   0.001409
     34       0.000163   0.000716   0.001238  -0.000324  -0.000493   0.000330
     35      -0.000027   0.000499   0.000593  -0.000467  -0.000093   0.000371


-----------
IR SPECTRUM
-----------

 Mode    freq (cm**-1)   T**2         TX         TY         TZ
-------------------------------------------------------------------
   7:       280.26    0.733351  (  0.855248   0.036783   0.023410)
   8:       284.40    7.224946  ( -0.088123   1.478056  -2.243330)
   9:       284.78    7.199514  (  0.191332  -2.228134  -1.482675)
  10:       324.31    0.000889  ( -0.011150   0.026549   0.007752)
  11:       340.01    0.000672  ( -0.018458  -0.010244  -0.015049)
  12:       586.60   25.943186  (  0.318930  -4.158872   2.923226)
  13:       587.35   25.999961  ( -0.296572   2.905057   4.180030)
  14:       773.13   44.885981  (  0.493706  -6.240730   2.386531)
  15:       773.55   45.332553  ( -0.251947   2.378124   6.293934)
  16:      1127.94    1.074695  ( -0.039131   0.401743  -0.954864)
  17:      1128.60    1.073745  (  0.039029  -0.963876  -0.378370)
  18:      1190.48    0.230997  ( -0.475347  -0.061826  -0.034919)
  19:      1223.44   93.526821  ( -9.632731  -0.851172  -0.113257)
  20:      1284.06  135.538497  (-11.604332  -0.934095  -0.073698)
  21:      1382.30   10.797849  ( -0.017803   0.513492  -3.245591)
[...]
     33      -0.016412  -0.000398   0.019145   0.020905  -0.009571  -0.000723
     34       0.001052  -0.002969  -0.280409  -0.229986   0.142487   0.006408
     35      -0.002985   0.005161   0.350681  -0.145701  -0.225085  -0.012241
                 12         13         14         15         16         17    
      0      -0.004094  -0.002000   0.004254  -0.000032   0.018057   0.022778
      1       0.059800   0.020153  -0.091544   0.003159  -0.019139  -0.015772
      2      -0.019754   0.060944  -0.002073  -0.090504  -0.019269   0.021515
      3      -0.199317   0.487076   0.024688  -0.511672  -0.064985   0.008592
      4      -0.172088  -0.025140   0.147445  -0.031660   0.012139   0.007469
      5       0.043992  -0.140415   0.005594   0.113343   0.013222   0.028366
      6       0.529057  -0.056359  -0.474452   0.227235  -0.050825  -0.096141
      7      -0.106147  -0.059643   0.089790   0.024032   0.016928   0.004706
      8       0.041790  -0.158994   0.017033   0.136718   0.011290  -0.016461
      9      -0.302110  -0.423392   0.418316   0.284646   0.038464  -0.039440
     10      -0.166568  -0.063265   0.148255  -0.001817  -0.015048  -0.009801
     11       0.060704  -0.148153  -0.013751   0.133190  -0.011002  -0.029827
     12       0.004544   0.002312   0.009826   0.001638   0.014319   0.019955
     13      -0.059245  -0.018668  -0.091732   0.003214   0.021796   0.019817
     14       0.019484  -0.058324  -0.003265  -0.092346   0.019965  -0.021173
     15       0.001262   0.001112  -0.008006  -0.001232   0.008862   0.007650
     16      -0.000175  -0.000809   0.115748  -0.004752   0.000424  -0.000131
     17      -0.000008  -0.001923   0.003092   0.114926  -0.000271   0.000281
     18      -0.308602  -0.429061  -0.437128  -0.309436   0.036987  -0.040392
     19       0.112937  -0.010542   0.075597  -0.053213   0.021444   0.000950
     20      -0.063180   0.136670  -0.017208   0.131022   0.011432   0.028964
     21       0.501264  -0.049885   0.461852  -0.216346  -0.047364  -0.092878
     22       0.194795   0.049002   0.172804  -0.013848  -0.024815  -0.021807
     23      -0.035450   0.159770   0.025047   0.142764  -0.013784   0.014625
     24      -0.240818   0.454401  -0.063280   0.521345  -0.060838   0.012550
     25       0.131762   0.101814   0.140579   0.058850  -0.022092  -0.005288
     26      -0.044151   0.143429   0.009239   0.123380  -0.014656  -0.028343
     27      -0.055010   0.118777  -0.011283   0.002147   0.321870  -0.809996
     28      -0.003641   0.009036   0.132149  -0.006126   0.027483  -0.062298
     29      -0.000484  -0.000824   0.003911   0.129657   0.003318  -0.007814
     30       0.129102  -0.008749  -0.007486  -0.000935   0.184861   0.532876
     31       0.010114  -0.001839   0.130999  -0.003912   0.015273   0.043135
     32       0.000761  -0.002688   0.003798   0.133791   0.002461   0.005957
     33      -0.074860  -0.110402  -0.011491  -0.004628  -0.913658  -0.160142
     34      -0.006792  -0.010417   0.129948  -0.004229  -0.073282  -0.011715
     35      -0.000135  -0.002298   0.003668   0.127573  -0.008725  -0.003573
                 18         19         20         21         22         23    
      0       0.077098   0.079015  -0.041274   0.000002  -0.000007  -0.002538
      1       0.016703   0.005112  -0.000472   0.000831   0.000949   0.040264
      2      -0.001583  -0.000061   0.000657   0.001140  -0.000547   0.002550
      3      -0.181255  -0.370283   0.307037   0.003920  -0.007123   0.035198
      4      -0.028782  -0.037441   0.027588   0.012891   0.005508  -0.486697
      5       0.088395   0.156024  -0.119344   0.000942   0.001873  -0.047625
      6      -0.157949  -0.380759   0.317816   0.004413   0.006737  -0.155819
      7       0.073433   0.117534  -0.088058   0.004083  -0.004074  -0.028342
      8      -0.040128  -0.065183   0.048844   0.010683  -0.008111  -0.247411
      9      -0.191899  -0.366198   0.298541  -0.006924  -0.000838   0.157112
     10      -0.086950  -0.150374   0.116362   0.000186   0.008337  -0.069972
     11      -0.044796  -0.088566   0.068406  -0.001752  -0.011201   0.257974
     12       0.078029  -0.079506  -0.040563  -0.000134  -0.000041   0.005332
     13      -0.003966  -0.008612  -0.006891   0.000801   0.000631  -0.046293
     14       0.002787  -0.001240  -0.001174   0.001061  -0.000602  -0.006393
     15       0.018005  -0.000211   0.024885   0.006246   0.004448  -0.000122
     16       0.001775  -0.000557   0.001838  -0.069938  -0.064844  -0.000051
     17       0.000258  -0.000207   0.000432  -0.065796   0.069525  -0.000291
     18      -0.201704   0.390546   0.314497   0.006783  -0.001275   0.172690
     19       0.049966  -0.081591  -0.059811   0.000439   0.008809   0.112665
     20       0.043816  -0.089046  -0.068270  -0.000344  -0.011063  -0.281722
     21      -0.137147   0.355591   0.296797  -0.004815  -0.006954  -0.183843
     22      -0.099048   0.185154   0.143143   0.003347  -0.004870  -0.002318
     23       0.034424  -0.054143  -0.039181   0.011465  -0.006509   0.301167
     24      -0.181464   0.373803   0.306763  -0.006583   0.004599  -0.066259
     25       0.000609   0.020853   0.020710   0.011115   0.008515   0.562030
     26      -0.088090   0.161012   0.122646   0.000965   0.001973   0.074243
     27      -0.346790   0.002472  -0.339035  -0.052645  -0.033290   0.000916
     28      -0.028923   0.001968  -0.026869   0.663285   0.439064  -0.001638
     29      -0.003817  -0.000644  -0.003318   0.048229   0.146140  -0.000648
     30      -0.763679   0.002221  -0.382197  -0.027994   0.018114   0.025366
     31      -0.062288  -0.000931  -0.031571   0.227742  -0.205431   0.001920
     32      -0.007648   0.000838  -0.003627   0.692412  -0.292359  -0.000049
     33      -0.208277   0.001945  -0.279557   0.011258  -0.032298  -0.022738
     34      -0.016158   0.000095  -0.021082  -0.112399   0.494840  -0.003263
     35      -0.001965   0.000255  -0.004113  -0.009183  -0.633216   0.000942
                 24         25         26         27         28         29    
      0       0.000237  -0.002923  -0.000500   0.000184  -0.000036  -0.000057
      1      -0.004663   0.046472   0.005347   0.000046   0.000930   0.001255
      2      -0.019840   0.002523  -0.058560   0.000019   0.001208  -0.000977
      3       0.079594   0.042229   0.257299  -0.000559   0.003672  -0.004401
      4       0.086910  -0.560705   0.029277  -0.000057   0.000844  -0.000009
      5      -0.040315  -0.055835  -0.144770  -0.000482  -0.002188   0.001129
      6      -0.024047  -0.180854  -0.147322  -0.000486   0.001514   0.005590
      7       0.109524  -0.030504   0.316449  -0.000377  -0.000179  -0.002142
      8       0.216014  -0.282033   0.531484   0.000284   0.000716   0.001154
      9      -0.059020   0.181009  -0.103105  -0.000654  -0.005647  -0.001343
     10      -0.129567  -0.083392  -0.423598   0.000199  -0.001831  -0.000382
     11       0.112979   0.300964   0.463221   0.000074  -0.000787  -0.001004
     12       0.000582  -0.004573  -0.000165  -0.000190  -0.000149  -0.000141
     13      -0.013054   0.038324   0.004139   0.000024   0.000940   0.001243
     14       0.056983   0.013453  -0.019027   0.000009   0.001190  -0.001002
     15      -0.000012  -0.000033   0.000088   0.000140   0.006069   0.005938
     16      -0.000171   0.001240  -0.000386  -0.000084  -0.065482  -0.081477
     17       0.000562  -0.000096  -0.001086  -0.000257  -0.081436   0.066071
     18      -0.149723  -0.170805   0.051199   0.000636   0.005973   0.001435
     19       0.426990  -0.038784  -0.141635   0.000281  -0.000744   0.000300
     20      -0.476711   0.178859   0.157090   0.000132  -0.000738  -0.000679
     21      -0.106226   0.145101   0.034321   0.000612  -0.001382  -0.005074
     22      -0.311855  -0.040734   0.103916  -0.000435  -0.000900  -0.003138
     23      -0.505853  -0.330931   0.170103   0.000251   0.000854   0.000927
     24       0.247954   0.091306  -0.083233   0.000584  -0.003698   0.004432
     25       0.074456  -0.476946  -0.021503   0.000130   0.000306   0.000601
     26       0.154399  -0.043124  -0.051197  -0.000390  -0.002073   0.001391
     27      -0.024622  -0.004840  -0.012857   0.001074   0.001249  -0.000860
     28      -0.005652   0.021595   0.003216  -0.088312  -0.086562   0.088889
     29       0.000995   0.003199  -0.002950   0.572817   0.538928  -0.592026
     30       0.012413   0.002372   0.006667  -0.041846  -0.017393  -0.056121
     31       0.002420   0.008837  -0.004256   0.536058   0.223523   0.718664
     32       0.007182   0.012346  -0.015298  -0.211660  -0.092668  -0.283233
     33       0.012436  -0.000967   0.005221   0.039054  -0.054034  -0.011657
     34      -0.004997   0.007548   0.010910  -0.447458   0.619826   0.133363
     35       0.008477  -0.004309  -0.016609  -0.358362   0.495004   0.112550
                 30         31         32         33         34         35    
      0      -0.021588  -0.033552   0.005511  -0.000737   0.000102  -0.000395
      1      -0.001917  -0.002995  -0.078436   0.010614  -0.001239   0.014480
      2       0.000469   0.000730   0.014412  -0.001337   0.001985   0.079463
      3       0.104306   0.158435  -0.082003   0.008661  -0.007987  -0.289863
      4      -0.020582  -0.031444   0.000373   0.000273   0.001211   0.053107
      5       0.293230   0.447493  -0.210916   0.022689  -0.019941  -0.730071
      6       0.088283   0.134184   0.237295  -0.031148   0.005914   0.060730
      7       0.282998   0.432339   0.667590  -0.087968   0.016930   0.178271
      8      -0.128344  -0.196083  -0.306557   0.040568  -0.007383  -0.065307
      9       0.116690   0.177397  -0.231663   0.032737   0.000642   0.234404
     10      -0.235268  -0.359071   0.416642  -0.059039  -0.001084  -0.431645
     11      -0.171348  -0.261472   0.318137  -0.044841  -0.000231  -0.303470
     12      -0.033078   0.022076  -0.000917  -0.005776   0.006625  -0.000107
     13      -0.003309   0.002199   0.008902   0.058797  -0.053921   0.000721
     14      -0.000103   0.000068  -0.006053  -0.054063  -0.059719   0.001721
     15      -0.002351  -0.000470   0.000006  -0.000005  -0.000007   0.000025
     16      -0.000138  -0.000152   0.000223  -0.000223   0.000176   0.000002
     17      -0.000015  -0.000036   0.000041   0.000152   0.000213  -0.000278
     18       0.109743  -0.071510  -0.009381  -0.038193   0.213938  -0.004219
     19       0.371689  -0.243558  -0.025564  -0.100229   0.625755  -0.012731
     20       0.276831  -0.181413  -0.021235  -0.092015   0.461135  -0.009277
     21       0.202174  -0.132053   0.048100   0.340478  -0.120982   0.000079
     22      -0.403453   0.264567  -0.087310  -0.620427   0.215683   0.000006
     23       0.177815  -0.116583   0.038291   0.270073  -0.110679   0.000289
     24       0.157814  -0.103040  -0.026106  -0.222246  -0.184658   0.005554
     25       0.078707  -0.051543  -0.010324  -0.092269  -0.095821   0.002763
     26      -0.453019   0.297056   0.066687   0.569447   0.475340  -0.014676
     27       0.002844   0.000533  -0.001132  -0.002104  -0.001906  -0.002716
     28       0.000301  -0.000115  -0.000108  -0.000312  -0.000448   0.000090
     29      -0.000211   0.000931  -0.000908   0.001555   0.000930  -0.001614
     30       0.002889   0.000535   0.003039   0.002516  -0.001013   0.000612
     31      -0.000227   0.001618   0.001855  -0.001751   0.000696  -0.000061
     32       0.000206  -0.000695  -0.000579   0.000729  -0.000419   0.000202
     33       0.002899   0.000582  -0.002068  -0.000153   0.002663   0.002099
     34       0.000111   0.000080   0.000419  -0.000145   0.001477  -0.001051
     35      -0.000076   0.000106   0.000424  -0.000183   0.000967  -0.000886


-----------
IR SPECTRUM
-----------

 Mode    freq (cm**-1)   T**2         TX         TY         TZ
-------------------------------------------------------------------
   7:       106.69    0.017032  (  0.121465   0.005248  -0.047444)
   8:       178.63    0.012747  (  0.089074   0.013883   0.067968)
   9:       260.26   13.725055  ( -0.281211   3.127889   1.965271)
  10:       263.67   13.897889  (  0.130678  -2.002407   3.141843)
  11:       330.66    0.020429  ( -0.017588   0.136865   0.037251)
  12:       575.72    0.045268  ( -0.202643  -0.055910   0.032827)
  13:       579.60    0.044331  ( -0.153035  -0.085798  -0.116405)
  14:       705.98   63.341795  ( -0.651039   7.927896   0.257701)
  15:       707.84   63.729572  ( -0.059228  -0.227129   7.979629)
  16:      1186.29    0.155596  (  0.392568   0.036004  -0.013801)
  17:      1204.55    0.051119  ( -0.221642  -0.044623  -0.001559)
  18:      1215.96    7.616967  ( -2.748400  -0.251164  -0.013527)
  19:      1240.13    0.209090  (  0.025736   0.426898   0.161822)
  20:      1258.00  244.340141  ( 15.569990   1.380966   0.092065)
  21:      1348.96    8.946800  ( -0.201040   2.194901   2.022076)
  22:      1353.55    9.786573  ( -0.189647   2.121814  -2.290963)
  23:      1633.25    0.485642  ( -0.244134   0.528226   0.383429)
  24:      1633.78   13.121640  ( -0.057344   1.518352  -3.288306)
  25:      1633.99   58.600153  (  0.644274  -7.493564  -1.425327)
  26:      1635.05   46.875542  (  0.046908  -0.747314   6.805502)
  27:      3146.82    0.008625  (  0.016128  -0.088611  -0.022639)
  28:      3374.37    4.223017  ( -0.116647   1.293326   1.592708)
  29:      3376.53    3.930995  ( -0.124992   1.530487  -1.254186)
  30:      3483.78  102.452706  ( 10.085261   0.860326   0.008051)
  31:      3486.77    4.351094  (  2.078605   0.164414  -0.058833)
  32:      3613.20   45.781262  ( -0.536038   6.696330  -0.808136)
  33:      3613.53   75.339270  (  0.661051  -6.754252   5.411318)
  34:      3614.97   60.529742  ( -0.647173   5.348429   5.612951)
  35:      3617.35   64.400220  (  0.015873  -1.470810  -7.889023)

The first frequency considered to be a vibration is 7
The total number of vibrations considered is 29


--------------------------
THERMOCHEMISTRY AT 298.15K
--------------------------

Temperature         ... 298.15 K
Pressure            ... 1.00 atm
Total Mass          ... 49.10 AMU

Throughout the following assumptions are being made:
  (1) The electronic state is orbitally nondegenerate
  (2) There are no thermally accessible electronically excited states
  (3) Hindered rotations indicated by low frequency modes are not
      treated as such but are treated as vibrations and this may
      cause some error
  (4) All equations used are the standard statistical mechanics
      equations for an ideal gas
  (5) All vibrations are strictly harmonic

freq.     106.69  E(vib)   ...       0.45 
freq.     178.63  E(vib)   ...       0.37 
freq.     260.26  E(vib)   ...       0.30 
freq.     263.67  E(vib)   ...       0.29 
freq.     330.66  E(vib)   ...       0.24 
freq.     575.72  E(vib)   ...       0.11 
freq.     579.60  E(vib)   ...       0.11 
freq.     705.98  E(vib)   ...       0.07 
freq.     707.84  E(vib)   ...       0.07 
freq.    1186.29  E(vib)   ...       0.01 
freq.    1204.55  E(vib)   ...       0.01 
freq.    1215.96  E(vib)   ...       0.01 
freq.    1240.13  E(vib)   ...       0.01 
freq.    1258.00  E(vib)   ...       0.01 
freq.    1348.96  E(vib)   ...       0.01 
freq.    1353.55  E(vib)   ...       0.01 
freq.    1633.25  E(vib)   ...       0.00 
freq.    1633.78  E(vib)   ...       0.00 
freq.    1633.99  E(vib)   ...       0.00 
freq.    1635.05  E(vib)   ...       0.00 
freq.    3146.82  E(vib)   ...       0.00 
freq.    3374.37  E(vib)   ...       0.00 
freq.    3376.53  E(vib)   ...       0.00 
freq.    3483.78  E(vib)   ...       0.00 
freq.    3486.77  E(vib)   ...       0.00 
freq.    3613.20  E(vib)   ...       0.00 
freq.    3613.53  E(vib)   ...       0.00 
freq.    3614.97  E(vib)   ...       0.00 
freq.    3617.35  E(vib)   ...       0.00 

------------
INNER ENERGY
------------

The inner energy is: U= E(el) + E(ZPE) + E(vib) + E(rot) + E(trans)
    E(el)   - is the total energy from the electronic structure calculation
              = E(kin-el) + E(nuc-el) + E(el-el) + E(nuc-nuc)
    E(ZPE)  - the the zero temperature vibrational energy from the frequency calculation
    E(vib)  - the the finite temperature correction to E(ZPE) due to population
              of excited vibrational states
    E(rot)  - is the rotational thermal energy
    E(trans)- is the translational thermal energy

Summary of contributions to the inner energy U:
Electronic energy                ...   -152.46150597 Eh
Zero point energy                ...      0.11477385 Eh      72.02 kcal/mol
Thermal vibrational correction   ...      0.00331204 Eh       2.08 kcal/mol
Thermal rotational correction    ...      0.00141627 Eh       0.89 kcal/mol
Thermal translational correction ...      0.00141627 Eh       0.89 kcal/mol
-----------------------------------------------------------------------
Total thermal energy                   -152.34058754 Eh


Summary of corrections to the electronic energy:
(perhaps to be used in another calculation)
Total thermal correction                  0.00614458 Eh       3.86 kcal/mol
Non-thermal (ZPE) correction              0.11477385 Eh      72.02 kcal/mol
-----------------------------------------------------------------------
Total correction                          0.12091843 Eh      75.88 kcal/mol


--------
ENTHALPY
--------

The enthalpy is H = U + kB*T
                kB is Boltzmann's constant
Total free energy                 ...   -152.34058754 Eh 
Thermal Enthalpy correction       ...      0.00094421 Eh       0.59 kcal/mol
-----------------------------------------------------------------------
Total Enthalpy                    ...   -152.33964333 Eh


Note: Rotational entropy computed according to Herzberg 
Infrared and Raman Spectra, Chapter V,1, Van Nostrand Reinhold, 1945 
Point Group:  C1, Symmetry Number:   1  
Rotational constants in cm-1:     1.868173     0.111109     0.111099 

Vibrational entropy computed according to the QRRHO of S. Grimme
Chem.Eur.J. 2012 18 9955


-------
ENTROPY
-------

The entropy contributions are T*S = T*(S(el)+S(vib)+S(rot)+S(trans))
     S(el)   - electronic entropy
     S(vib)  - vibrational entropy
     S(rot)  - rotational entropy
     S(trans)- translational entropy
The entropies will be listed as mutliplied by the temperature to get
units of energy

Electronic entropy                ...      0.00000000 Eh      0.00 kcal/mol
Vibrational entropy               ...      0.00562456 Eh      3.53 kcal/mol
Rotational entropy                ...      0.01129041 Eh      7.08 kcal/mol
Translational entropy             ...      0.01786375 Eh     11.21 kcal/mol
-----------------------------------------------------------------------
Final entropy term                ...      0.03477871 Eh     21.82 kcal/mol


-------------------
GIBBS FREE ENTHALPY
-------------------

The Gibbs free enthalpy is G = H - T*S

Total enthalpy                    ...   -152.33964333 Eh 
Total entropy correction          ...     -0.03477871 Eh    -21.82 kcal/mol
-----------------------------------------------------------------------
Final Gibbs free enthalpy         ...   -152.37442205 Eh

For completeness - the Gibbs free enthalpy minus the electronic energy
G-E(el)                           ...      0.08708393 Eh     54.65 kcal/mol


Timings for individual modules:

Sum of individual times         ...       91.574 sec (=   1.526 min)
GTO integral calculation        ...       10.265 sec (=   0.171 min)  11.2 %
SCF iterations                  ...       36.826 sec (=   0.614 min)  40.2 %
SCF Gradient evaluation         ...       16.014 sec (=   0.267 min)  17.5 %
Geometry relaxation             ...        0.694 sec (=   0.012 min)   0.8 %
Analytical frequency calculation...       27.776 sec (=   0.463 min)  30.3 %
                             ****ORCA TERMINATED NORMALLY****
TOTAL RUN TIME: 0 days 0 hours 1 minutes 34 seconds 604 msec
