      -----------------------------------------------------------      
     |                   =====================                   |     
     |                           x T B                           |     
     |                   =====================                   |     
     |                         S. Grimme                         |     
     |          Mulliken Center for Theoretical Chemistry        |     
     |                    University of Bonn                     |     
      -----------------------------------------------------------      

   * xtb version 6.2.3 (830e466) compiled by 'ehlert@majestix' on 2020-03-16

   xtb is free software: you can redistribute it and/or modify it under
   the terms of the GNU Lesser General Public License as published by
   the Free Software Foundation, either version 3 of the License, or
   (at your option) any later version.
   
   xtb is distributed in the hope that it will be useful,
   but WITHOUT ANY WARRANTY; without even the implied warranty of
   MERCHANTABILITY or FITNESS FOR A PARTICULAR PURPOSE.  See the
   GNU Lesser General Public License for more details.
   
   Cite this work as:
   * S. Grimme, C. Bannwarth, P. Shushkov, J. Chem. Theory Comput., 2017,
     13, 1989-2009. DOI: 10.1021/acs.jctc.7b00118
   * C. Bannwarth, S. Ehlert and S. Grimme., J. Chem. Theory Comput., 2019,
     15, 1652-1671. DOI: 10.1021/acs.jctc.8b01176
   * P. Pracht, E. Caldeweyher, S. Ehlert, S. Grimme, ChemRxiv, 2019, preprint.
     DOI: 10.26434/chemrxiv.8326202.v1
   
   for DFT-D4:
   * E. Caldeweyher, C. Bannwarth and S. Grimme, J. Chem. Phys., 2017,
     147, 034112. DOI: 10.1063/1.4993215
   * E. Caldeweyher, S. Ehlert, A. Hansen, H. Neugebauer, S. Spicher,
     C. Bannwarth and S. Grimme, J. Chem. Phys., 2019, 150, 154122.
     DOI: 10.1063/1.5090222
   
   for sTDA-xTB:
   * S. Grimme and C. Bannwarth, J. Chem. Phys., 2016, 145, 054103.
     DOI: 10.1063/1.4959605
   
   in the mass-spec context:
   * V. Asgeirsson, C. Bauer and S. Grimme, Chem. Sci., 2017, 8, 4879.
     DOI: 10.1039/c7sc00601b
   
   for metadynamics refer to:
   * S. Grimme, J. Chem. Theory Comput., 2019, 155, 2847-2862
     DOI: 10.1021/acs.jctc.9b00143
   
   with help from (in alphabetical order)
   C. Bannwarth, F. Bohle, G. Brandenburg, E. Caldeweyher, M. Checinski,
   S. Dohm, S. Ehlert, S. Ehrlich, F. März, H. Neugebauer, J. Pisarek,
   P. Pracht, P. Shushkov, and S. Spicher.
   
 * started run on 2020/08/20 at 17:46:28.474     

           -------------------------------------------------
          |                Calculation Setup                |
           -------------------------------------------------

          program call               : /u/fd/ball4935/opt/bin/xtb 3ixBtq_reactant_constrained_opt11_xtb.xyz --chrg -1 --opt --gbsa Water --input xcontrol_3ixBtq_reactant_constrained_opt11_xtb
          hostname                   : comp0810
          coordinate file            : 3ixBtq_reactant_constrained_opt11_xtb.xyz
          omp threads                :                     4
          number of atoms            :                     6
          number of electrons        :                    22
          charge                     :                    -1
          spin                       :                   0.0
          first test random number   :      0.17241271429466

constraining bond 1 3 to    1.6554000 Å, actual value:    1.8163623 Å
constraining bond 2 3 to    3.8830000 Å, actual value:    3.6906802 Å

molecular fragmentation (1/2 indicates fragments):
122222
# atoms in fragment 1/2:     1     5
 fragment masses (1/2) :       19.00       50.49
CMA distance (Bohr)    :   8.350
constraining FC (au)   : 20.0000
########################################################################
[WARNING] Please study the warnings concerning your input carefully
-2- prog_main: XTBPATH is not set, using XTBHOME instead
-1- prog_main: XTBHOME is not set, using HOME instead
########################################################################
           ------------------------------------------------- 
          |                 G F N 2 - x T B                 |
          | Geometry, Frequencies, Noncovalent interactions |
          |            JCTC 2019 parametrisation            |
           ------------------------------------------------- 
             k(s)              :                1.8500
             k(p)              :                2.2300
             k(d)              :                2.2300
             k(f)              :                2.0000
             kEN (H0ij)        :               -2.0000
             D4 a1             :                0.5200
             D4 a2             :                5.0000
             D4 s6             :                1.0000
             D4 s8             :                2.7000
             D4 s9             :                5.0000
             alphaj            :                2.0000

  Z AO/shell   Hii/eV     exponent
  1     Wed Apr 25 08:07:45 CEST 2018   EN: 2.200 GM2: 0.406  GM3: 0.0800  RAES: 1.40
     1s    -10.707211    1.230000
  6     Wed Apr 25 08:07:45 CEST 2018   EN: 2.550 GM2: 0.538  GM3: 0.1500  RAES: 3.00
     2s    -13.970922    2.096432
     2p    -10.063292    1.800000
  9     Mon Apr 23 13:58:50 CEST 2018   EN: 3.980 GM2: 0.532  GM3: 0.1426  RAES: 2.40
     2s    -23.458179    2.416361
     2p    -15.746583    2.308399
 17     Mon Apr 23 14:09:22 CEST 2018   EN: 3.160 GM2: 0.249  GM3: 0.1495  RAES: 2.50
     3s    -29.278781    2.485265
     3p    -12.673758    2.199650
     3d     -0.240338    2.476089

 Solvent             : Water
 Using internal parameter file: .param_gbsa2_Water
 Gsolv ref. state (COSMO-RS): gsolv [1 M gas/solution]
 temperature (mdtemp)       :    298.150000000000     
 dielectric constant        :    80.2000000000000     
 rho                        :    1.00000000000000     
 mass                       :    18.0000000000000     
 surface tension            :    15.5689454083859     
 probe radius               :   0.975313790000000     
 Gshift (Eh)                :   1.857443126794793E-003
 c1                         :    1.55243817000000     
 soset                      :   0.130326360000000     
 HB correction              :  T
           ------------------------------------------------- 
          |        Self-Consistent Charge Iterations        |
           ------------------------------------------------- 

          ...................................................
          :                      SETUP                      :
          :.................................................:
          :  # basis functions                  21          :
          :  # atomic orbitals                  20          :
          :  # shells                           10          :
          :  # electrons                        22          :
          :  max. iterations                   250          :
          :  Hamiltonian                  GFN2-xTB          :
          :  restarted?                      false          :
          :  GBSA solvation                   true          :
          :  PC potential                    false          :
          :  electronic temp.          300.0000000     K    :
          :  accuracy                    1.0000000          :
          :  -> integral cutoff          0.2500000E+02      :
          :  -> integral neglect         0.1000000E-07      :
          :  -> SCF convergence          0.1000000E-05 Eh   :
          :  -> wf. convergence          0.1000000E-03 e    :
          :  Broyden damping             0.4000000          :
          ...................................................

 iter      E             dE          RMSdq      gap      omega  full diag
   1    -13.2046718 -0.132047E+02  0.703E+00    5.60       0.0  T
   2    -13.2899849 -0.853131E-01  0.284E+00    2.86       1.0  T
   3    -13.3021928 -0.122079E-01  0.230E+00    3.07       1.0  T
   4    -13.3054848 -0.329202E-02  0.403E-01    2.51       1.0  T
   5    -13.3055885 -0.103638E-03  0.276E-01    2.78       1.0  T
   6    -13.3058166 -0.228186E-03  0.110E-01    2.74       1.0  T
   7    -13.3058460 -0.293521E-04  0.453E-02    2.76       1.0  T
   8    -13.3058479 -0.190562E-05  0.347E-02    2.76       1.2  T
   9    -13.3058519 -0.395283E-05  0.232E-03    2.77      17.6  T
  10    -13.3058519 -0.140394E-07  0.939E-04    2.77      43.5  T
  11    -13.3058519 -0.198392E-08  0.288E-05    2.77    1419.9  T

   *** convergence criteria satisfied after 11 iterations ***

         #    Occupation            Energy/Eh            Energy/eV
      -------------------------------------------------------------
         1        2.0000           -0.9863209             -26.8392
       ...           ...                  ...                  ...
         5        2.0000           -0.5147222             -14.0063
         6        2.0000           -0.4925964             -13.4042
         7        2.0000           -0.4539675             -12.3531
         8        2.0000           -0.4539637             -12.3530
         9        2.0000           -0.3904926             -10.6258
        10        2.0000           -0.3893609             -10.5951
        11        2.0000           -0.3893598             -10.5950 (HOMO)
        12                         -0.2876183              -7.8265 (LUMO)
        13                          0.1091210               2.9693
        14                          0.1415514               3.8518
        15                          0.1416590               3.8547
        16                          0.1416604               3.8548
       ...                                ...                  ...
        20                          0.2414017               6.5689
      -------------------------------------------------------------
                  HL-Gap            0.1017415 Eh            2.7685 eV
             Fermi-level           -0.3384891 Eh           -9.2108 eV

 SCC (total)                   0 d,  0 h,  0 min,  0.005 sec
 SCC setup                      ...        0 min,  0.000 sec (  7.404%)
 Dispersion                     ...        0 min,  0.000 sec (  0.808%)
 integral evaluation            ...        0 min,  0.001 sec ( 11.401%)
 zeroth order Hamiltonian       ...        0 min,  0.000 sec (  0.735%)
 iterations                     ...        0 min,  0.003 sec ( 62.240%)
 molecular gradient             ...        0 min,  0.001 sec ( 12.747%)
 printout                       ...        0 min,  0.000 sec (  3.065%)

         :::::::::::::::::::::::::::::::::::::::::::::::::::::
         ::                     SUMMARY                     ::
         :::::::::::::::::::::::::::::::::::::::::::::::::::::
         :: total energy              -8.754754447833 Eh    ::
         :: total w/o Gsasa/hb        -8.753524887567 Eh    ::
         :: gradient norm             32.832006014704 Eh/a0 ::
         :: HOMO-LUMO gap              2.768527234582 eV    ::
         ::.................................................::
         :: SCC energy               -13.303610048975 Eh    ::
         :: -> isotropic ES            0.184472678099 Eh    ::
         :: -> anisotropic ES         -0.004089479719 Eh    ::
         :: -> anisotropic XC          0.005372229626 Eh    ::
         :: -> dispersion             -0.001502202809 Eh    ::
         :: -> Gsolv                  -0.104585286472 Eh    ::
         ::    -> Gborn               -0.103355726205 Eh    ::
         ::    -> Gsasa                0.000384378437 Eh    ::
         ::    -> Ghb                 -0.003471381830 Eh    ::
         ::    -> Gshift               0.001857443127 Eh    ::
         :: repulsion energy           0.056759004786 Eh    ::
         :: add. restraining           4.492097658404 Eh    ::
         :::::::::::::::::::::::::::::::::::::::::::::::::::::

      ----------------------------------------------------------- 
     |                   =====================                   |
     |                        A N C O P T                        |
     |                   =====================                   |
     |               Approximate Normal Coordinate               |
     |                Rational Function Optimizer                |
      ----------------------------------------------------------- 

          ...................................................
          :                      SETUP                      :
          :.................................................:
          :   optimization level            normal          :
          :   max. optcycles                   200          :
          :   ANC micro-cycles                  20          :
          :   degrees of freedom                12          :
          :.................................................:
          :   RF solver                   davidson          :
          :   write xtbopt.log                true          :
          :   linear?                        false          :
          :   energy convergence         0.5000000E-05 Eh   :
          :   grad. convergence          0.1000000E-02 Eh/α :
          :   maximium RF displ.         1.0000000          :
          :   Hlow (freq-cutoff)         0.1000000E-01      :
          :   Hmax (freq-cutoff)         5.0000000          :
          :   S6 in model hess.         20.0000000          :
          ...................................................

generating ANC from model Hessian ...
Using Lindh-Hessian (1995)
 Shifting diagonal of input Hessian by   0.394667052296070     
 Lowest  eigenvalues of input Hessian
    0.010000    0.010101   -0.000000   -0.000000   -0.000000   -0.000000
    0.000000    0.000000    0.441331    0.523579    0.523620    0.836748
    1.072123    1.072293    5.223948    5.224123   40.470583  120.689172
 Highest eigenvalues
    1.072123    1.072293    5.223948    5.224123   40.470583  120.689172
 

........................................................................
.............................. CYCLE    1 ..............................
........................................................................
   1    -13.3058519 -0.133059E+02  0.196E-05    2.77       0.0  T
   2    -13.3058519 -0.211386E-12  0.124E-05    2.77    3279.3  T
   3    -13.3058519 -0.319744E-13  0.655E-06    2.77    6233.3  T
     SCC iter.                  ...        0 min,  0.000 sec
     gradient                   ...        0 min,  0.000 sec
 * total energy  :    -8.7547544 Eh     change       -0.7682459E-09 Eh
   gradient norm :    32.8320059 Eh/α   predicted     0.0000000E+00 (-100.00%)
   displ. norm   :     0.9267496 α      lambda       -0.3042705E+02
   maximum displ.:     0.9255382 α      in ANC's #9, #12, #6, ...

........................................................................
.............................. CYCLE    2 ..............................
........................................................................
   1    -13.2943589 -0.132944E+02  0.296E+00   11.50       0.0  T
   2    -13.3017060 -0.734705E-02  0.147E+00   11.09       1.0  T
   3    -13.3028594 -0.115343E-02  0.534E-01   11.06       1.0  T
   4    -13.3029378 -0.783685E-04  0.210E-01   10.99       1.0  T
   5    -13.3029532 -0.154076E-04  0.502E-02   10.99       1.0  T
   6    -13.3029564 -0.320723E-05  0.258E-02   10.98       1.6  T
   7    -13.3029569 -0.511284E-06  0.113E-02   10.98       3.6  T
   8    -13.3029571 -0.168542E-06  0.968E-04   10.98      42.2  T
   9    -13.3029571 -0.279101E-09  0.419E-04   10.98      97.4  T
     SCC iter.                  ...        0 min,  0.001 sec
     gradient                   ...        0 min,  0.000 sec
 * total energy  :    12.3349038 Eh     change        0.2108966E+02 Eh
   gradient norm :    78.5723679 Eh/α   predicted    -0.2827989E+02 (-234.09%)
   displ. norm   :     0.4944047 α      lambda       -0.3882461E+02
   maximum displ.:     0.4941680 α      in ANC's #9, #12, #11, ...

........................................................................
.............................. CYCLE    3 ..............................
........................................................................
   1    -13.3171878 -0.133172E+02  0.153E+00    5.47       0.0  T
   2    -13.3183606 -0.117286E-02  0.839E-01    5.86       1.0  T
   3    -13.3187394 -0.378755E-03  0.248E-01    6.32       1.0  T
   4    -13.3187517 -0.122728E-04  0.109E-01    6.33       1.0  T
   5    -13.3187581 -0.648314E-05  0.346E-02    6.34       1.2  T
   6    -13.3187593 -0.120433E-05  0.157E-02    6.34       2.6  T
   7    -13.3187598 -0.416297E-06  0.695E-03    6.34       5.9  T
   8    -13.3187598 -0.520351E-07  0.587E-04    6.35      69.6  T
   9    -13.3187598 -0.397602E-10  0.172E-04    6.35     237.9  T
     SCC iter.                  ...        0 min,  0.001 sec
     gradient                   ...        0 min,  0.000 sec
 * total energy  :   -11.7517455 Eh     change       -0.2408665E+02 Eh
   gradient norm :    19.0401823 Eh/α   predicted    -0.2415738E+02 (   0.29%)
   displ. norm   :     0.2037222 α      lambda       -0.3068406E+01
   maximum displ.:     0.1552254 α      in ANC's #9, #12, #6, ...

........................................................................
.............................. CYCLE    4 ..............................
........................................................................
   1    -13.3232269 -0.133232E+02  0.234E-01    5.29       0.0  T
   2    -13.3232765 -0.496285E-04  0.130E-01    5.32       1.0  T
   3    -13.3232849 -0.845277E-05  0.540E-02    5.38       1.0  T
   4    -13.3232867 -0.179294E-05  0.214E-02    5.40       1.9  T
   5    -13.3232869 -0.191210E-06  0.544E-03    5.40       7.5  T
   6    -13.3232870 -0.257666E-07  0.180E-03    5.40      22.7  T
     SCC iter.                  ...        0 min,  0.001 sec
     gradient                   ...        0 min,  0.000 sec
 * total energy  :   -13.0236184 Eh     change       -0.1271873E+01 Eh
   gradient norm :     4.4212291 Eh/α   predicted    -0.1597878E+01 (  25.63%)
   displ. norm   :     0.4828307 α      lambda       -0.2110750E+01
   maximum displ.:     0.4700065 α      in ANC's #12, #9, #6, ...

........................................................................
.............................. CYCLE    5 ..............................
........................................................................
   1    -13.2936305 -0.132936E+02  0.103E+00    2.06       0.0  T
   2    -13.2945525 -0.922044E-03  0.578E-01    2.07       1.0  T
   3    -13.2948273 -0.274794E-03  0.341E-01    2.26       1.0  T
   4    -13.2949626 -0.135296E-03  0.891E-02    2.35       1.0  T
   5    -13.2949696 -0.702889E-05  0.387E-02    2.34       1.1  T
   6    -13.2949706 -0.976655E-06  0.165E-02    2.34       2.5  T
   7    -13.2949713 -0.659714E-06  0.525E-03    2.34       7.8  T
   8    -13.2949713 -0.549986E-07  0.106E-03    2.34      38.6  T
     SCC iter.                  ...        0 min,  0.001 sec
     gradient                   ...        0 min,  0.000 sec
 * total energy  :    -9.9929951 Eh     change        0.3030623E+01 Eh
   gradient norm :    19.2545652 Eh/α   predicted    -0.1301410E+01 (-142.94%)
   displ. norm   :     0.3300748 α      lambda       -0.5826224E+01
   maximum displ.:     0.3137000 α      in ANC's #12, #9, #6, ...

........................................................................
.............................. CYCLE    6 ..............................
........................................................................
   1    -13.3159280 -0.133159E+02  0.705E-01    4.60       0.0  T
   2    -13.3162478 -0.319758E-03  0.387E-01    4.55       1.0  T
   3    -13.3163027 -0.549746E-04  0.172E-01    4.40       1.0  T
   4    -13.3163312 -0.284526E-04  0.478E-02    4.37       1.0  T
   5    -13.3163327 -0.151321E-05  0.189E-02    4.37       2.2  T
   6    -13.3163328 -0.144232E-06  0.587E-03    4.37       7.0  T
   7    -13.3163329 -0.542098E-07  0.363E-03    4.37      11.3  T
     SCC iter.                  ...        0 min,  0.001 sec
     gradient                   ...        0 min,  0.000 sec
 * total energy  :   -13.2231922 Eh     change       -0.3230197E+01 Eh
   gradient norm :     1.9209063 Eh/α   predicted    -0.3230493E+01 (   0.01%)
   displ. norm   :     0.0561411 α      lambda       -0.8850975E-01
   maximum displ.:     0.0463196 α      in ANC's #12, #3, #6, ...

........................................................................
.............................. CYCLE    7 ..............................
........................................................................
   1    -13.3222942 -0.133223E+02  0.903E-02    4.69       0.0  T
   2    -13.3222976 -0.340168E-05  0.504E-02    4.69       1.0  T
   3    -13.3222982 -0.561215E-06  0.207E-02    4.68       2.0  T
   4    -13.3222986 -0.369950E-06  0.536E-03    4.67       7.6  T
   5    -13.3222986 -0.151734E-07  0.159E-03    4.68      25.6  T
     SCC iter.                  ...        0 min,  0.001 sec
     gradient                   ...        0 min,  0.000 sec
 * total energy  :   -13.2675931 Eh     change       -0.4440092E-01 Eh
   gradient norm :     0.0295806 Eh/α   predicted    -0.4439436E-01 (  -0.01%)
   displ. norm   :     0.0301414 α      lambda       -0.3464721E-03
   maximum displ.:     0.0215909 α      in ANC's #3, #1, #6, ...

........................................................................
.............................. CYCLE    8 ..............................
........................................................................
   1    -13.3244232 -0.133244E+02  0.218E-02    4.67       0.0  T
   2    -13.3244233 -0.146825E-06  0.128E-02    4.68       3.2  T
   3    -13.3244234 -0.454461E-07  0.391E-03    4.68      10.4  T
   4    -13.3244234 -0.165826E-09  0.703E-04    4.68      58.1  T
     SCC iter.                  ...        0 min,  0.000 sec
     gradient                   ...        0 min,  0.000 sec
 * total energy  :   -13.2678658 Eh     change       -0.2727156E-03 Eh
   gradient norm :     0.0112037 Eh/α   predicted    -0.1733920E-03 ( -36.42%)
   displ. norm   :     0.2200619 α      lambda       -0.1076364E-02
   maximum displ.:     0.1966477 α      in ANC's #1, #3, #6, ...

........................................................................
.............................. CYCLE    9 ..............................
........................................................................
   1    -13.3301760 -0.133302E+02  0.168E-01    4.64       0.0  T
   2    -13.3301791 -0.312232E-05  0.100E-01    4.65       1.0  T
   3    -13.3301800 -0.929509E-06  0.155E-02    4.67       2.6  T
   4    -13.3301801 -0.958115E-07  0.796E-03    4.67       5.1  T
   5    -13.3301801 -0.309080E-07  0.130E-03    4.67      31.5  T
   6    -13.3301801 -0.144231E-08  0.561E-04    4.67      72.8  T
     SCC iter.                  ...        0 min,  0.001 sec
     gradient                   ...        0 min,  0.000 sec
 * total energy  :   -13.2666359 Eh     change        0.1229934E-02 Eh
   gradient norm :     0.1018002 Eh/α   predicted    -0.5641888E-03 (-145.87%)
   displ. norm   :     0.1805837 α      lambda       -0.2850971E-02
   maximum displ.:     0.1774919 α      in ANC's #1, #3, #6, ...

........................................................................
.............................. CYCLE   10 ..............................
........................................................................
   1    -13.3284493 -0.133284E+02  0.143E-01    4.69       0.0  T
   2    -13.3284503 -0.982437E-06  0.858E-02    4.68       1.0  T
   3    -13.3284507 -0.417912E-06  0.877E-03    4.68       4.7  T
   4    -13.3284507 -0.995806E-08  0.269E-03    4.68      15.2  T
   5    -13.3284507 -0.865866E-08  0.961E-04    4.68      42.5  T
     SCC iter.                  ...        0 min,  0.001 sec
     gradient                   ...        0 min,  0.000 sec
 * total energy  :   -13.2681110 Eh     change       -0.1475069E-02 Eh
   gradient norm :     0.0094450 Eh/α   predicted    -0.1471979E-02 (  -0.21%)
   displ. norm   :     0.0149026 α      lambda       -0.4867616E-04
   maximum displ.:     0.0096382 α      in ANC's #6, #2, #3, ...

........................................................................
.............................. CYCLE   11 ..............................
........................................................................
   1    -13.3271059 -0.133271E+02  0.134E-02    4.68       0.0  T
   2    -13.3271060 -0.872748E-07  0.699E-03    4.68       5.8  T
   3    -13.3271060 -0.110897E-07  0.336E-03    4.68      12.2  T
   4    -13.3271060 -0.483523E-08  0.123E-03    4.68      33.1  T
   5    -13.3271060 -0.297408E-09  0.176E-04    4.68     232.2  T
     SCC iter.                  ...        0 min,  0.001 sec
     gradient                   ...        0 min,  0.000 sec
 * total energy  :   -13.2681344 Eh     change       -0.2345820E-04 Eh
   gradient norm :     0.0040163 Eh/α   predicted    -0.2434247E-04 (   3.77%)
   displ. norm   :     0.0425150 α      lambda       -0.3419597E-04
   maximum displ.:     0.0419494 α      in ANC's #2, #6, #3, ...

........................................................................
.............................. CYCLE   12 ..............................
........................................................................
   1    -13.3262236 -0.133262E+02  0.452E-02    4.68       0.0  T
   2    -13.3262238 -0.165583E-06  0.269E-02    4.68       1.5  T
   3    -13.3262238 -0.110410E-08  0.431E-03    4.68       9.5  T
   4    -13.3262238 -0.308733E-07  0.123E-03    4.68      33.3  T
   5    -13.3262238 -0.354168E-09  0.256E-04    4.68     159.3  T
     SCC iter.                  ...        0 min,  0.001 sec
     gradient                   ...        0 min,  0.000 sec
 * total energy  :   -13.2680934 Eh     change        0.4105074E-04 Eh
   gradient norm :     0.0117641 Eh/α   predicted    -0.1712856E-04 (-141.73%)
   displ. norm   :     0.0348741 α      lambda       -0.1048759E-03
   maximum displ.:     0.0337677 α      in ANC's #2, #3, #6, ...

........................................................................
.............................. CYCLE   13 ..............................
........................................................................
   1    -13.3267860 -0.133268E+02  0.356E-02    4.68       0.0  T
   2    -13.3267860 -0.434469E-07  0.215E-02    4.68       1.9  T
   3    -13.3267860 -0.169824E-07  0.181E-03    4.68      22.5  T
   4    -13.3267860 -0.944672E-09  0.829E-04    4.68      49.2  T
     SCC iter.                  ...        0 min,  0.000 sec
     gradient                   ...        0 min,  0.000 sec
 * total energy  :   -13.2681490 Eh     change       -0.5559676E-04 Eh
   gradient norm :     0.0024372 Eh/α   predicted    -0.5250199E-04 (  -5.57%)
   displ. norm   :     0.0044979 α      lambda       -0.2886846E-05
   maximum displ.:     0.0040077 α      in ANC's #3, #2, #6, ...

........................................................................
.............................. CYCLE   14 ..............................
........................................................................
   1    -13.3266955 -0.133267E+02  0.493E-03    4.68       0.0  T
   2    -13.3266955 -0.212961E-07  0.252E-03    4.68      16.2  T
   3    -13.3266955 -0.138994E-08  0.131E-03    4.68      31.3  T
   4    -13.3266955 -0.596536E-09  0.252E-04    4.68     161.9  T
   5    -13.3266955 -0.309335E-10  0.845E-05    4.68     483.0  T
     SCC iter.                  ...        0 min,  0.001 sec
     gradient                   ...        0 min,  0.000 sec
 * total energy  :   -13.2681509 Eh     change       -0.1920297E-05 Eh
   gradient norm :     0.0008629 Eh/α   predicted    -0.1442636E-05 ( -24.87%)
   displ. norm   :     0.0034738 α      lambda       -0.5885653E-06
   maximum displ.:     0.0032994 α      in ANC's #3, #6, #1, ...

   *** GEOMETRY OPTIMIZATION CONVERGED AFTER 14 ITERATIONS ***

------------------------------------------------------------------------
 total energy gain   :        -4.5133964 Eh    -2832.1990 kcal/mol
 total RMSD          :         0.1266389 a0        0.0670 Å
 total power (kW/mol):      -846.4229094 (step)********** (real)
------------------------------------------------------------------------

 ANCopt (total)                0 d,  0 h,  0 min,  0.028 sec
 optimizer setup                ...        0 min,  0.000 sec (  0.358%)
 model hessian                  ...        0 min,  0.000 sec (  0.812%)
 ANC generation                 ...        0 min,  0.000 sec (  0.476%)
 coordinate transformation      ...        0 min,  0.000 sec (  0.714%)
 single point calculation       ...        0 min,  0.025 sec ( 88.847%)
 optimization log               ...        0 min,  0.001 sec (  2.158%)
 hessian update                 ...        0 min,  0.000 sec (  0.618%)
 rational function              ...        0 min,  0.001 sec (  2.449%)

================
 final structure:
================
6
 xtb: 6.2.3 (830e466)
F        -2.73509735398513   -0.05353390510783    0.04007317932440
Cl        2.80064160819874    0.06862265628365   -0.02240241187119
C        -1.08120748376846   -0.02020176412105    0.01007476685489
H        -0.85042654495230   -0.64048368660512   -0.84023430751249
H        -0.81990891836096   -0.43545504712452    0.96912867849443
H        -0.86965130713192    1.02897174667488   -0.11238990529004
 
 Bond Distances (Angstroems)
 ---------------------------
F1-C3=1.6545         C3-F1=1.6545         C3-H4=1.0775         C3-H5=1.0773         C3-H6=1.0773         H4-C3=1.0775         
H5-C3=1.0773         H6-C3=1.0773         
 C  H  Rav=1.0774 sigma=0.0001  Rmin=1.0773  Rmax=1.0775     3
 F  C  Rav=1.6545 sigma=0.0000  Rmin=1.6545  Rmax=1.6545     1
 
 selected bond angles (degree)
 --------------------
H4-C3-F1=102.52                H5-C3-F1=102.62                H5-C3-H4=115.38                H6-C3-F1=102.59                
H6-C3-H4=115.40                H6-C3-H5=115.40                
 
 selected dihedral angles (degree)
 ---------------------------------

 
 CMA Distance (Angstroems)
 ---------------------------
R(CMA):  4.3952
           -------------------------------------------------
          |                Final Singlepoint                |
           -------------------------------------------------

          ...................................................
          :                      SETUP                      :
          :.................................................:
          :  # basis functions                  21          :
          :  # atomic orbitals                  20          :
          :  # shells                           10          :
          :  # electrons                        22          :
          :  max. iterations                   250          :
          :  Hamiltonian                  GFN2-xTB          :
          :  restarted?                      false          :
          :  GBSA solvation                   true          :
          :  PC potential                    false          :
          :  electronic temp.          300.0000000     K    :
          :  accuracy                    1.0000000          :
          :  -> integral cutoff          0.2500000E+02      :
          :  -> integral neglect         0.1000000E-07      :
          :  -> SCF convergence          0.1000000E-05 Eh   :
          :  -> wf. convergence          0.1000000E-03 e    :
          :  Broyden damping             0.4000000          :
          ...................................................

 iter      E             dE          RMSdq      gap      omega  full diag
   1    -13.3266955 -0.133267E+02  0.473E-05    4.68       0.0  T
   2    -13.3266955 -0.132871E-11  0.383E-05    4.68    1065.2  T
   3    -13.3266955 -0.263967E-11  0.831E-06    4.68    4910.9  T

   *** convergence criteria satisfied after 3 iterations ***

         #    Occupation            Energy/Eh            Energy/eV
      -------------------------------------------------------------
         1        2.0000           -0.9862767             -26.8380
       ...           ...                  ...                  ...
         5        2.0000           -0.5174454             -14.0804
         6        2.0000           -0.5117003             -13.9241
         7        2.0000           -0.4606607             -12.5352
         8        2.0000           -0.4606480             -12.5349
         9        2.0000           -0.3901927             -10.6177
        10        2.0000           -0.3893124             -10.5937
        11        2.0000           -0.3893116             -10.5937 (HOMO)
        12                         -0.2172775              -5.9124 (LUMO)
        13                          0.1204742               3.2783
        14                          0.1419281               3.8621
        15                          0.1420018               3.8641
        16                          0.1420027               3.8641
       ...                                ...                  ...
        20                          0.2309456               6.2843
      -------------------------------------------------------------
                  HL-Gap            0.1720342 Eh            4.6813 eV
             Fermi-level           -0.3032946 Eh           -8.2531 eV

 SCC (total)                   0 d,  0 h,  0 min,  0.002 sec
 SCC setup                      ...        0 min,  0.000 sec (  8.868%)
 Dispersion                     ...        0 min,  0.000 sec (  0.680%)
 integral evaluation            ...        0 min,  0.000 sec ( 22.377%)
 zeroth order Hamiltonian       ...        0 min,  0.000 sec (  1.360%)
 iterations                     ...        0 min,  0.000 sec ( 27.032%)
 molecular gradient             ...        0 min,  0.000 sec ( 29.190%)
 printout                       ...        0 min,  0.000 sec (  5.764%)

         :::::::::::::::::::::::::::::::::::::::::::::::::::::
         ::                     SUMMARY                     ::
         :::::::::::::::::::::::::::::::::::::::::::::::::::::
         :: total energy             -13.268150888170 Eh    ::
         :: total w/o Gsasa/hb       -13.267331720973 Eh    ::
         :: gradient norm              0.000862934994 Eh/a0 ::
         :: HOMO-LUMO gap              4.681287902329 eV    ::
         ::.................................................::
         :: SCC energy               -13.324536174600 Eh    ::
         :: -> isotropic ES            0.178461916412 Eh    ::
         :: -> anisotropic ES         -0.002346693402 Eh    ::
         :: -> anisotropic XC          0.003627957911 Eh    ::
         :: -> dispersion             -0.001396186232 Eh    ::
         :: -> Gsolv                  -0.104209692330 Eh    ::
         ::    -> Gborn               -0.103390525133 Eh    ::
         ::    -> Gsasa                0.000301857170 Eh    ::
         ::    -> Ghb                 -0.002978467495 Eh    ::
         ::    -> Gshift               0.001857443127 Eh    ::
         :: repulsion energy           0.056328039948 Eh    ::
         :: add. restraining           0.000058147381 Eh    ::
         :::::::::::::::::::::::::::::::::::::::::::::::::::::

           -------------------------------------------------
          |                Property Printout                |
           -------------------------------------------------

    * Orbital Energies and Occupations

         #    Occupation            Energy/Eh            Energy/eV
      -------------------------------------------------------------
         1        2.0000           -0.9862767             -26.8380
         2        2.0000           -0.7718151             -21.0022
         3        2.0000           -0.6090992             -16.5744
         4        2.0000           -0.5174579             -14.0807
         5        2.0000           -0.5174454             -14.0804
         6        2.0000           -0.5117003             -13.9241
         7        2.0000           -0.4606607             -12.5352
         8        2.0000           -0.4606480             -12.5349
         9        2.0000           -0.3901927             -10.6177
        10        2.0000           -0.3893124             -10.5937
        11        2.0000           -0.3893116             -10.5937 (HOMO)
        12                         -0.2172775              -5.9124 (LUMO)
        13                          0.1204742               3.2783
        14                          0.1419281               3.8621
        15                          0.1420018               3.8641
        16                          0.1420027               3.8641
        17                          0.1424973               3.8775
        18                          0.1424973               3.8775
        19                          0.2305692               6.2741
        20                          0.2309456               6.2843
      -------------------------------------------------------------
                  HL-Gap            0.1720342 Eh            4.6813 eV
             Fermi-level           -0.3032946 Eh           -8.2531 eV

     #   Z        covCN         q      C6AA      α(0)
     1   9 F      0.685    -0.363    13.084     4.270
     2  17 Cl     0.000    -1.000   127.005    17.151
     3   6 C      3.463     0.022    22.404     7.122
     4   1 H      0.926     0.114     1.664     2.017
     5   1 H      0.926     0.113     1.667     2.019
     6   1 H      0.926     0.114     1.666     2.018

 Mol. C6AA /au·bohr⁶  :        546.887677
 Mol. C8AA /au·bohr⁸  :      15932.400569
 Mol. α(0) /au        :         34.598893


Wiberg/Mayer (AO) data.
largest (>0.10) Wiberg bond orders for each atom
          total WBO             WBO to atom ...
     1  F   0.876        C    3 0.865
     2  Cl  0.000
     3  C   3.814        H    5 0.983    H    6 0.983    H    4 0.983    F    1 0.865
     4  H   0.987        C    3 0.983
     5  H   0.987        C    3 0.983
     6  H   0.987        C    3 0.983

molecular dipole:
                 x           y           z       tot (Debye)
 q only:       -4.005      -0.104       0.018
   full:       -3.827      -0.100       0.016       9.730
molecular quadrupole (traceless):
                xx          xy          yy          xz          yz          zz
 q only:      -37.405      -1.307      18.691       0.560       0.014      18.715
  q+dip:      -39.025      -1.353      19.501       0.609       0.014      19.524
   full:      -38.269      -1.330      19.123       0.587       0.014      19.147

           -------------------------------------------------
          |                Geometry Summary                 |
           -------------------------------------------------

      molecular mass/u    :       69.4858989
   center of mass at/Å    :        0.4573912       0.0162024       0.0015073
  moments of inertia/u·Å² :        0.3344681E+01   0.4238006E+03   0.4238021E+03
rotational constants/cm⁻¹ :        0.5040131E+01   0.3977727E-01   0.3977713E-01

 * 3 selected distances

     #   Z        #   Z                                     value/Å
     3   6 C      4   1 H                                 1.0775134 (max)
     3   6 C      5   1 H                                 1.0772635 (min)
     3   6 C      6   1 H                                 1.0772737

 * 1 distinct bonds (by element types)

   Z      Z             #   av. dist./Å        max./Å        min./Å
   1 H    6 C           3     1.0773502     1.0775134     1.0772635


optimized geometry written to: xtbopt.xyz


           -------------------------------------------------
          | TOTAL ENERGY              -13.268150888170 Eh   |
          | GRADIENT NORM               0.000862934994 Eh/α |
          | HOMO-LUMO GAP               4.681287902329 eV   |
           -------------------------------------------------

------------------------------------------------------------------------
 * finished run on 2020/08/20 at 17:46:28.544     
------------------------------------------------------------------------
 total:
 * wall-time:     0 d,  0 h,  0 min,  0.069 sec
 *  cpu-time:     0 d,  0 h,  0 min,  0.215 sec
 * ratio c/w:     3.105 speedup
 SCF:
 * wall-time:     0 d,  0 h,  0 min,  0.005 sec
 *  cpu-time:     0 d,  0 h,  0 min,  0.019 sec
 * ratio c/w:     3.984 speedup
 ANC optimizer:
 * wall-time:     0 d,  0 h,  0 min,  0.030 sec
 *  cpu-time:     0 d,  0 h,  0 min,  0.121 sec
 * ratio c/w:     3.990 speedup

