      -----------------------------------------------------------      
     |                   =====================                   |     
     |                           x T B                           |     
     |                   =====================                   |     
     |                         S. Grimme                         |     
     |          Mulliken Center for Theoretical Chemistry        |     
     |                    University of Bonn                     |     
      -----------------------------------------------------------      

   * xtb version 6.2.3 (830e466) compiled by 'ehlert@majestix' on 2020-03-16

   xtb is free software: you can redistribute it and/or modify it under
   the terms of the GNU Lesser General Public License as published by
   the Free Software Foundation, either version 3 of the License, or
   (at your option) any later version.
   
   xtb is distributed in the hope that it will be useful,
   but WITHOUT ANY WARRANTY; without even the implied warranty of
   MERCHANTABILITY or FITNESS FOR A PARTICULAR PURPOSE.  See the
   GNU Lesser General Public License for more details.
   
   Cite this work as:
   * S. Grimme, C. Bannwarth, P. Shushkov, J. Chem. Theory Comput., 2017,
     13, 1989-2009. DOI: 10.1021/acs.jctc.7b00118
   * C. Bannwarth, S. Ehlert and S. Grimme., J. Chem. Theory Comput., 2019,
     15, 1652-1671. DOI: 10.1021/acs.jctc.8b01176
   * P. Pracht, E. Caldeweyher, S. Ehlert, S. Grimme, ChemRxiv, 2019, preprint.
     DOI: 10.26434/chemrxiv.8326202.v1
   
   for DFT-D4:
   * E. Caldeweyher, C. Bannwarth and S. Grimme, J. Chem. Phys., 2017,
     147, 034112. DOI: 10.1063/1.4993215
   * E. Caldeweyher, S. Ehlert, A. Hansen, H. Neugebauer, S. Spicher,
     C. Bannwarth and S. Grimme, J. Chem. Phys., 2019, 150, 154122.
     DOI: 10.1063/1.5090222
   
   for sTDA-xTB:
   * S. Grimme and C. Bannwarth, J. Chem. Phys., 2016, 145, 054103.
     DOI: 10.1063/1.4959605
   
   in the mass-spec context:
   * V. Asgeirsson, C. Bauer and S. Grimme, Chem. Sci., 2017, 8, 4879.
     DOI: 10.1039/c7sc00601b
   
   for metadynamics refer to:
   * S. Grimme, J. Chem. Theory Comput., 2019, 155, 2847-2862
     DOI: 10.1021/acs.jctc.9b00143
   
   with help from (in alphabetical order)
   C. Bannwarth, F. Bohle, G. Brandenburg, E. Caldeweyher, M. Checinski,
   S. Dohm, S. Ehlert, S. Ehrlich, F. März, H. Neugebauer, J. Pisarek,
   P. Pracht, P. Shushkov, and S. Spicher.
   
 * started run on 2020/08/20 at 17:46:28.287     

           -------------------------------------------------
          |                Calculation Setup                |
           -------------------------------------------------

          program call               : /u/fd/ball4935/opt/bin/xtb 3ixBtq_reactant_constrained_opt9_xtb.xyz --chrg -1 --opt --gbsa Water --input xcontrol_3ixBtq_reactant_constrained_opt9_xtb
          hostname                   : comp0810
          coordinate file            : 3ixBtq_reactant_constrained_opt9_xtb.xyz
          omp threads                :                     4
          number of atoms            :                     6
          number of electrons        :                    22
          charge                     :                    -1
          spin                       :                   0.0
          first test random number   :      0.60484732799792

constraining bond 1 3 to    1.9791000 Å, actual value:    2.1402806 Å
constraining bond 2 3 to    3.4984000 Å, actual value:    3.3060477 Å

molecular fragmentation (1/2 indicates fragments):
122222
# atoms in fragment 1/2:     1     5
 fragment masses (1/2) :       19.00       50.49
CMA distance (Bohr)    :   8.441
constraining FC (au)   : 20.0000
########################################################################
[WARNING] Please study the warnings concerning your input carefully
-2- prog_main: XTBPATH is not set, using XTBHOME instead
-1- prog_main: XTBHOME is not set, using HOME instead
########################################################################
           ------------------------------------------------- 
          |                 G F N 2 - x T B                 |
          | Geometry, Frequencies, Noncovalent interactions |
          |            JCTC 2019 parametrisation            |
           ------------------------------------------------- 
             k(s)              :                1.8500
             k(p)              :                2.2300
             k(d)              :                2.2300
             k(f)              :                2.0000
             kEN (H0ij)        :               -2.0000
             D4 a1             :                0.5200
             D4 a2             :                5.0000
             D4 s6             :                1.0000
             D4 s8             :                2.7000
             D4 s9             :                5.0000
             alphaj            :                2.0000

  Z AO/shell   Hii/eV     exponent
  1     Wed Apr 25 08:07:45 CEST 2018   EN: 2.200 GM2: 0.406  GM3: 0.0800  RAES: 1.40
     1s    -10.707211    1.230000
  6     Wed Apr 25 08:07:45 CEST 2018   EN: 2.550 GM2: 0.538  GM3: 0.1500  RAES: 3.00
     2s    -13.970922    2.096432
     2p    -10.063292    1.800000
  9     Mon Apr 23 13:58:50 CEST 2018   EN: 3.980 GM2: 0.532  GM3: 0.1426  RAES: 2.40
     2s    -23.458179    2.416361
     2p    -15.746583    2.308399
 17     Mon Apr 23 14:09:22 CEST 2018   EN: 3.160 GM2: 0.249  GM3: 0.1495  RAES: 2.50
     3s    -29.278781    2.485265
     3p    -12.673758    2.199650
     3d     -0.240338    2.476089

 Solvent             : Water
 Using internal parameter file: .param_gbsa2_Water
 Gsolv ref. state (COSMO-RS): gsolv [1 M gas/solution]
 temperature (mdtemp)       :    298.150000000000     
 dielectric constant        :    80.2000000000000     
 rho                        :    1.00000000000000     
 mass                       :    18.0000000000000     
 surface tension            :    15.5689454083859     
 probe radius               :   0.975313790000000     
 Gshift (Eh)                :   1.857443126794793E-003
 c1                         :    1.55243817000000     
 soset                      :   0.130326360000000     
 HB correction              :  T
           ------------------------------------------------- 
          |        Self-Consistent Charge Iterations        |
           ------------------------------------------------- 

          ...................................................
          :                      SETUP                      :
          :.................................................:
          :  # basis functions                  21          :
          :  # atomic orbitals                  20          :
          :  # shells                           10          :
          :  # electrons                        22          :
          :  max. iterations                   250          :
          :  Hamiltonian                  GFN2-xTB          :
          :  restarted?                      false          :
          :  GBSA solvation                   true          :
          :  PC potential                    false          :
          :  electronic temp.          300.0000000     K    :
          :  accuracy                    1.0000000          :
          :  -> integral cutoff          0.2500000E+02      :
          :  -> integral neglect         0.1000000E-07      :
          :  -> SCF convergence          0.1000000E-05 Eh   :
          :  -> wf. convergence          0.1000000E-03 e    :
          :  Broyden damping             0.4000000          :
          ...................................................

 iter      E             dE          RMSdq      gap      omega  full diag
   1    -13.1359858 -0.131360E+02  0.834E+00    3.82       0.0  T
   2    -13.0898250  0.461608E-01  0.564E+00    1.02       1.0  T
   3    -13.2219260 -0.132101E+00  0.489E+00    1.81       1.0  T
   4    -13.2653387 -0.434127E-01  0.144E+00    0.81       1.0  T
   5    -13.2653496 -0.108817E-04  0.114E+00    1.26       1.0  T
   6    -13.2687836 -0.343401E-02  0.227E-01    1.09       1.0  T
   7    -13.2688281 -0.444653E-04  0.141E-01    1.05       1.0  T
   8    -13.2688746 -0.465444E-04  0.686E-02    1.04       1.0  T
   9    -13.2688828 -0.815935E-05  0.148E-02    1.06       2.7  T
  10    -13.2688833 -0.550557E-06  0.611E-03    1.06       6.7  T
  11    -13.2688834 -0.962783E-07  0.162E-03    1.06      25.2  T
  12    -13.2688834 -0.960574E-08  0.275E-04    1.06     148.6  T
  13    -13.2688834 -0.187402E-09  0.132E-04    1.06     308.2  T

   *** convergence criteria satisfied after 13 iterations ***

         #    Occupation            Energy/Eh            Energy/eV
      -------------------------------------------------------------
         1        2.0000           -0.9905320             -26.9537
       ...           ...                  ...                  ...
         5        2.0000           -0.5144557             -13.9991
         6        2.0000           -0.4537996             -12.3485
         7        2.0000           -0.4323070             -11.7637
         8        2.0000           -0.4323054             -11.7636
         9        2.0000           -0.3920137             -10.6672
        10        2.0000           -0.3896730             -10.6035
        11        2.0000           -0.3896717             -10.6035 (HOMO)
        12                         -0.3507207              -9.5436 (LUMO)
        13                          0.0970605               2.6412
        14                          0.1338860               3.6432
        15                          0.1339882               3.6460
        16                          0.1339903               3.6461
       ...                                ...                  ...
        20                          0.2540162               6.9121
      -------------------------------------------------------------
                  HL-Gap            0.0389511 Eh            1.0599 eV
             Fermi-level           -0.3698475 Eh          -10.0641 eV

 SCC (total)                   0 d,  0 h,  0 min,  0.005 sec
 SCC setup                      ...        0 min,  0.000 sec (  6.641%)
 Dispersion                     ...        0 min,  0.000 sec (  0.683%)
 integral evaluation            ...        0 min,  0.000 sec ( 10.015%)
 zeroth order Hamiltonian       ...        0 min,  0.000 sec (  0.688%)
 iterations                     ...        0 min,  0.003 sec ( 63.179%)
 molecular gradient             ...        0 min,  0.001 sec ( 13.966%)
 printout                       ...        0 min,  0.000 sec (  3.090%)

         :::::::::::::::::::::::::::::::::::::::::::::::::::::
         ::                     SUMMARY                     ::
         :::::::::::::::::::::::::::::::::::::::::::::::::::::
         :: total energy              -8.710896678658 Eh    ::
         :: total w/o Gsasa/hb        -8.709157329796 Eh    ::
         :: gradient norm             32.828854819776 Eh/a0 ::
         :: HOMO-LUMO gap              1.059913252840 eV    ::
         ::.................................................::
         :: SCC energy               -13.266483365861 Eh    ::
         :: -> isotropic ES            0.192480602638 Eh    ::
         :: -> anisotropic ES         -0.006439569931 Eh    ::
         :: -> anisotropic XC          0.006666537123 Eh    ::
         :: -> dispersion             -0.001607496319 Eh    ::
         :: -> Gsolv                  -0.102831688954 Eh    ::
         ::    -> Gborn               -0.101092340092 Eh    ::
         ::    -> Gsasa                0.000542617193 Eh    ::
         ::    -> Ghb                 -0.004139409182 Eh    ::
         ::    -> Gshift               0.001857443127 Eh    ::
         :: repulsion energy           0.057575354108 Eh    ::
         :: add. restraining           4.498012608041 Eh    ::
         :::::::::::::::::::::::::::::::::::::::::::::::::::::

      ----------------------------------------------------------- 
     |                   =====================                   |
     |                        A N C O P T                        |
     |                   =====================                   |
     |               Approximate Normal Coordinate               |
     |                Rational Function Optimizer                |
      ----------------------------------------------------------- 

          ...................................................
          :                      SETUP                      :
          :.................................................:
          :   optimization level            normal          :
          :   max. optcycles                   200          :
          :   ANC micro-cycles                  20          :
          :   degrees of freedom                12          :
          :.................................................:
          :   RF solver                   davidson          :
          :   write xtbopt.log                true          :
          :   linear?                        false          :
          :   energy convergence         0.5000000E-05 Eh   :
          :   grad. convergence          0.1000000E-02 Eh/α :
          :   maximium RF displ.         1.0000000          :
          :   Hlow (freq-cutoff)         0.1000000E-01      :
          :   Hmax (freq-cutoff)         5.0000000          :
          :   S6 in model hess.         20.0000000          :
          ...................................................

generating ANC from model Hessian ...
Using Lindh-Hessian (1995)
 Shifting diagonal of input Hessian by   0.644534107642542     
 Lowest  eigenvalues of input Hessian
    0.010000    0.010431   -0.000000   -0.000000   -0.000000    0.000000
    0.000000    0.000000    0.659141    0.787215    0.787260    1.078590
    1.334125    1.334240    3.919368    3.919939   40.669683  120.726921
 Highest eigenvalues
    1.334125    1.334240    3.919368    3.919939   40.669683  120.726921
 

........................................................................
.............................. CYCLE    1 ..............................
........................................................................
   1    -13.2688834 -0.132689E+02  0.324E-05    1.06       0.0  T
   2    -13.2688834  0.283684E-11  0.413E-05    1.06     989.1  T
   3    -13.2688834 -0.708411E-11  0.376E-06    1.06   10870.2  T
     SCC iter.                  ...        0 min,  0.000 sec
     gradient                   ...        0 min,  0.000 sec
 * total energy  :    -8.7108967 Eh     change       -0.7470931E-09 Eh
   gradient norm :    32.8288537 Eh/α   predicted     0.0000000E+00 (-100.00%)
   displ. norm   :     0.9267429 α      lambda       -0.3042390E+02
   maximum displ.:     0.9255855 α      in ANC's #11, #12, #6, ...

........................................................................
.............................. CYCLE    2 ..............................
........................................................................
   1    -13.2843806 -0.132844E+02  0.212E+00    7.09       0.0  T
   2    -13.2875268 -0.314626E-02  0.109E+00    6.66       1.0  T
   3    -13.2882634 -0.736546E-03  0.364E-01    6.15       1.0  T
   4    -13.2883318 -0.684244E-04  0.173E-01    6.14       1.0  T
   5    -13.2883485 -0.167055E-04  0.480E-02    6.12       1.0  T
   6    -13.2883504 -0.193360E-05  0.199E-02    6.12       2.1  T
   7    -13.2883509 -0.441060E-06  0.112E-02    6.12       3.7  T
   8    -13.2883511 -0.194536E-06  0.998E-04    6.12      40.9  T
   9    -13.2883511 -0.293216E-09  0.377E-04    6.12     108.3  T
     SCC iter.                  ...        0 min,  0.001 sec
     gradient                   ...        0 min,  0.000 sec
 * total energy  :    12.3157174 Eh     change        0.2102661E+02 Eh
   gradient norm :    78.3271199 Eh/α   predicted    -0.2827678E+02 (-234.48%)
   displ. norm   :     0.4941137 α      lambda       -0.3868205E+02
   maximum displ.:     0.4939019 α      in ANC's #11, #12, #3, ...

........................................................................
.............................. CYCLE    3 ..............................
........................................................................
   1    -13.2788618 -0.132789E+02  0.146E+00    1.75       0.0  T
   2    -13.2814461 -0.258435E-02  0.898E-01    1.76       1.0  T
   3    -13.2824577 -0.101159E-02  0.482E-01    2.04       1.0  T
   4    -13.2826712 -0.213432E-03  0.178E-01    2.19       1.0  T
   5    -13.2827074 -0.362871E-04  0.629E-02    2.20       1.0  T
   6    -13.2827121 -0.470037E-05  0.308E-02    2.19       1.3  T
   7    -13.2827143 -0.219529E-05  0.869E-03    2.20       4.7  T
   8    -13.2827145 -0.135705E-06  0.318E-03    2.20      12.8  T
   9    -13.2827145 -0.166383E-07  0.829E-04    2.20      49.3  T
     SCC iter.                  ...        0 min,  0.001 sec
     gradient                   ...        0 min,  0.000 sec
 * total energy  :   -11.7111116 Eh     change       -0.2402683E+02 Eh
   gradient norm :    19.0282796 Eh/α   predicted    -0.2406310E+02 (   0.15%)
   displ. norm   :     0.1965633 α      lambda       -0.3052089E+01
   maximum displ.:     0.1553664 α      in ANC's #11, #12, #6, ...

........................................................................
.............................. CYCLE    4 ..............................
........................................................................
   1    -13.2840043 -0.132840E+02  0.345E-01    1.80       0.0  T
   2    -13.2841901 -0.185774E-03  0.244E-01    1.77       1.0  T
   3    -13.2843702 -0.180047E-03  0.843E-02    1.84       1.0  T
   4    -13.2843750 -0.481590E-05  0.400E-02    1.87       1.0  T
   5    -13.2843768 -0.181231E-05  0.883E-03    1.88       4.6  T
   6    -13.2843769 -0.831472E-07  0.437E-03    1.88       9.3  T
   7    -13.2843769 -0.375876E-07  0.153E-03    1.88      26.7  T
     SCC iter.                  ...        0 min,  0.001 sec
     gradient                   ...        0 min,  0.000 sec
 * total energy  :   -13.0239246 Eh     change       -0.1312813E+01 Eh
   gradient norm :     4.0202767 Eh/α   predicted    -0.1585007E+01 (  20.73%)
   displ. norm   :     0.4705174 α      lambda       -0.1876639E+01
   maximum displ.:     0.4597148 α      in ANC's #12, #11, #6, ...

........................................................................
.............................. CYCLE    5 ..............................
........................................................................
   1    -13.2578429 -0.132578E+02  0.955E-01    0.58       0.0  T
   2    -13.2560411  0.180178E-02  0.106E+00    0.52       1.0  T
   3    -13.2601051 -0.406400E-02  0.304E-01    0.71       1.0  T
   4    -13.2602628 -0.157669E-03  0.154E-01    0.75       1.0  T
   5    -13.2603047 -0.418758E-04  0.567E-02    0.77       1.0  T
   6    -13.2603108 -0.616021E-05  0.152E-02    0.76       2.7  T
   7    -13.2603115 -0.637003E-06  0.462E-03    0.76       8.8  T
   8    -13.2603115 -0.358761E-07  0.240E-03    0.76      17.0  T
     SCC iter.                  ...        0 min,  0.001 sec
     gradient                   ...        0 min,  0.000 sec
 * total energy  :   -10.0784184 Eh     change        0.2945506E+01 Eh
   gradient norm :    18.4726026 Eh/α   predicted    -0.1146051E+01 (-138.91%)
   displ. norm   :     0.3285360 α      lambda       -0.5607865E+01
   maximum displ.:     0.3150876 α      in ANC's #12, #11, #3, ...

........................................................................
.............................. CYCLE    6 ..............................
........................................................................
   1    -13.2769614 -0.132770E+02  0.638E-01    1.68       0.0  T
   2    -13.2772551 -0.293701E-03  0.451E-01    1.70       1.0  T
   3    -13.2779035 -0.648363E-03  0.184E-01    1.58       1.0  T
   4    -13.2779431 -0.395769E-04  0.602E-02    1.52       1.0  T
   5    -13.2779466 -0.352130E-05  0.162E-02    1.52       2.5  T
   6    -13.2779463  0.320336E-06  0.144E-02    1.51       2.8  T
   7    -13.2779468 -0.523920E-06  0.197E-03    1.52      20.8  T
   8    -13.2779468 -0.693914E-08  0.639E-04    1.52      63.9  T
     SCC iter.                  ...        0 min,  0.001 sec
     gradient                   ...        0 min,  0.000 sec
 * total energy  :   -13.1846020 Eh     change       -0.3106184E+01 Eh
   gradient norm :     1.8401500 Eh/α   predicted    -0.3106577E+01 (   0.01%)
   displ. norm   :     0.0491477 α      lambda       -0.8134256E-01
   maximum displ.:     0.0445384 α      in ANC's #12, #3, #6, ...

........................................................................
.............................. CYCLE    7 ..............................
........................................................................
   1    -13.2820590 -0.132821E+02  0.682E-02    1.64       0.0  T
   2    -13.2820619 -0.290000E-05  0.415E-02    1.64       1.0  T
   3    -13.2820663 -0.437684E-05  0.254E-02    1.63       1.6  T
   4    -13.2820671 -0.817466E-06  0.463E-03    1.62       8.8  T
   5    -13.2820671 -0.149342E-07  0.236E-03    1.63      17.3  T
     SCC iter.                  ...        0 min,  0.001 sec
     gradient                   ...        0 min,  0.000 sec
 * total energy  :   -13.2253825 Eh     change       -0.4078050E-01 Eh
   gradient norm :     0.0220164 Eh/α   predicted    -0.4076952E-01 (  -0.03%)
   displ. norm   :     0.0338137 α      lambda       -0.2280458E-03
   maximum displ.:     0.0261051 α      in ANC's #1, #3, #2, ...

........................................................................
.............................. CYCLE    8 ..............................
........................................................................
   1    -13.2833534 -0.132834E+02  0.336E-02    1.62       0.0  T
   2    -13.2833536 -0.142913E-06  0.205E-02    1.62       2.0  T
   3    -13.2833534  0.169139E-06  0.790E-03    1.63       5.2  T
   4    -13.2833536 -0.241863E-06  0.317E-03    1.63      12.9  T
   5    -13.2833536 -0.125741E-07  0.402E-04    1.63     101.5  T
     SCC iter.                  ...        0 min,  0.001 sec
     gradient                   ...        0 min,  0.000 sec
 * total energy  :   -13.2255532 Eh     change       -0.1707564E-03 Eh
   gradient norm :     0.0122838 Eh/α   predicted    -0.1141525E-03 ( -33.15%)
   displ. norm   :     0.2117259 α      lambda       -0.1907688E-02
   maximum displ.:     0.1535944 α      in ANC's #3, #1, #6, ...

........................................................................
.............................. CYCLE    9 ..............................
........................................................................
   1    -13.2931132 -0.132931E+02  0.173E-01    1.59       0.0  T
   2    -13.2931232 -0.100292E-04  0.112E-01    1.59       1.0  T
   3    -13.2931258 -0.265707E-05  0.611E-02    1.62       1.0  T
   4    -13.2931325 -0.666767E-05  0.236E-02    1.62       1.7  T
   5    -13.2931332 -0.666407E-06  0.153E-03    1.62      26.6  T
   6    -13.2931332 -0.449411E-09  0.433E-04    1.62      94.4  T
     SCC iter.                  ...        0 min,  0.001 sec
     gradient                   ...        0 min,  0.000 sec
 * total energy  :   -13.2249986 Eh     change        0.5546669E-03 Eh
   gradient norm :     0.1714200 Eh/α   predicted    -0.9966328E-03 (-279.68%)
   displ. norm   :     0.1218617 α      lambda       -0.1871261E-02
   maximum displ.:     0.0926069 α      in ANC's #1, #3, #6, ...

........................................................................
.............................. CYCLE   10 ..............................
........................................................................
   1    -13.2883337 -0.132883E+02  0.110E-01    1.65       0.0  T
   2    -13.2883354 -0.162118E-05  0.651E-02    1.64       1.0  T
   3    -13.2883351  0.255155E-06  0.154E-02    1.62       2.6  T
   4    -13.2883358 -0.696795E-06  0.115E-02    1.63       3.6  T
   5    -13.2883360 -0.206246E-06  0.112E-03    1.63      36.4  T
   6    -13.2883360 -0.404587E-09  0.220E-04    1.63     185.6  T
     SCC iter.                  ...        0 min,  0.001 sec
     gradient                   ...        0 min,  0.000 sec
 * total energy  :   -13.2260251 Eh     change       -0.1026534E-02 Eh
   gradient norm :     0.0123493 Eh/α   predicted    -0.9495187E-03 (  -7.50%)
   displ. norm   :     0.0638137 α      lambda       -0.1117433E-03
   maximum displ.:     0.0606201 α      in ANC's #2, #1, #6, ...

........................................................................
.............................. CYCLE   11 ..............................
........................................................................
   1    -13.2870010 -0.132870E+02  0.810E-02    1.64       0.0  T
   2    -13.2870015 -0.488251E-06  0.481E-02    1.63       1.0  T
   3    -13.2869996  0.197499E-05  0.295E-02    1.64       1.4  T
   4    -13.2870022 -0.262212E-05  0.341E-03    1.63      12.0  T
   5    -13.2870022 -0.177647E-08  0.423E-04    1.63      96.6  T
   6    -13.2870022 -0.143295E-09  0.214E-04    1.63     190.6  T
     SCC iter.                  ...        0 min,  0.001 sec
     gradient                   ...        0 min,  0.000 sec
 * total energy  :   -13.2259695 Eh     change        0.5564034E-04 Eh
   gradient norm :     0.0144036 Eh/α   predicted    -0.5610096E-04 (-200.83%)
   displ. norm   :     0.0562415 α      lambda       -0.2696413E-03
   maximum displ.:     0.0471416 α      in ANC's #2, #1, #6, ...

........................................................................
.............................. CYCLE   12 ..............................
........................................................................
   1    -13.2860423 -0.132860E+02  0.722E-02    1.64       0.0  T
   2    -13.2860429 -0.568877E-06  0.432E-02    1.63       1.0  T
   3    -13.2860416  0.123495E-05  0.297E-02    1.64       1.4  T
   4    -13.2860438 -0.218959E-05  0.287E-03    1.64      14.2  T
   5    -13.2860438 -0.889576E-09  0.313E-04    1.64     130.3  T
     SCC iter.                  ...        0 min,  0.001 sec
     gradient                   ...        0 min,  0.000 sec
 * total energy  :   -13.2261110 Eh     change       -0.1415066E-03 Eh
   gradient norm :     0.0103484 Eh/α   predicted    -0.1352463E-03 (  -4.42%)
   displ. norm   :     0.0188814 α      lambda       -0.4139509E-04
   maximum displ.:     0.0165470 α      in ANC's #3, #2, #1, ...

........................................................................
.............................. CYCLE   13 ..............................
........................................................................
   1    -13.2863069 -0.132863E+02  0.210E-02    1.64       0.0  T
   2    -13.2863071 -0.274103E-06  0.134E-02    1.63       3.1  T
   3    -13.2863076 -0.484764E-06  0.659E-03    1.64       6.2  T
   4    -13.2863077 -0.389403E-07  0.179E-03    1.64      22.8  T
   5    -13.2863077 -0.317881E-08  0.167E-04    1.64     244.0  T
     SCC iter.                  ...        0 min,  0.001 sec
     gradient                   ...        0 min,  0.000 sec
 * total energy  :   -13.2261384 Eh     change       -0.2747513E-04 Eh
   gradient norm :     0.0021551 Eh/α   predicted    -0.2070537E-04 ( -24.64%)
   displ. norm   :     0.0140632 α      lambda       -0.1925737E-04
   maximum displ.:     0.0130823 α      in ANC's #3, #6, #1, ...

........................................................................
.............................. CYCLE   14 ..............................
........................................................................
   1    -13.2858330 -0.132858E+02  0.239E-02    1.64       0.0  T
   2    -13.2858334 -0.403126E-06  0.141E-02    1.64       2.9  T
   3    -13.2858342 -0.844072E-06  0.656E-03    1.64       6.2  T
   4    -13.2858342 -0.454014E-07  0.998E-04    1.64      40.9  T
   5    -13.2858342 -0.726899E-09  0.187E-04    1.64     218.7  T
     SCC iter.                  ...        0 min,  0.001 sec
     gradient                   ...        0 min,  0.000 sec
 * total energy  :   -13.2261490 Eh     change       -0.1059833E-04 Eh
   gradient norm :     0.0008937 Eh/α   predicted    -0.9630494E-05 (  -9.13%)
   displ. norm   :     0.0029905 α      lambda       -0.4345796E-06
   maximum displ.:     0.0023193 α      in ANC's #2, #3, #6, ...

........................................................................
.............................. CYCLE   15 ..............................
........................................................................
   1    -13.2857088 -0.132857E+02  0.466E-03    1.64       0.0  T
   2    -13.2857088 -0.885193E-08  0.268E-03    1.64      15.2  T
   3    -13.2857088 -0.158817E-07  0.183E-03    1.64      22.4  T
   4    -13.2857088 -0.367375E-08  0.171E-04    1.64     238.3  T
   5    -13.2857088 -0.141434E-10  0.515E-05    1.64     792.7  T
     SCC iter.                  ...        0 min,  0.001 sec
     gradient                   ...        0 min,  0.000 sec
 * total energy  :   -13.2261492 Eh     change       -0.2029364E-06 Eh
   gradient norm :     0.0002607 Eh/α   predicted    -0.2186660E-06 (   7.75%)
   displ. norm   :     0.0008824 α      lambda       -0.5358450E-07
   maximum displ.:     0.0005602 α      in ANC's #3, #1, #2, ...

   *** GEOMETRY OPTIMIZATION CONVERGED AFTER 15 ITERATIONS ***

------------------------------------------------------------------------
 total energy gain   :        -4.5152526 Eh    -2833.3638 kcal/mol
 total RMSD          :         0.1328996 a0        0.0703 Å
 total power (kW/mol):      -790.3195985 (step)********** (real)
------------------------------------------------------------------------

 ANCopt (total)                0 d,  0 h,  0 min,  0.031 sec
 optimizer setup                ...        0 min,  0.000 sec (  0.390%)
 model hessian                  ...        0 min,  0.000 sec (  0.869%)
 ANC generation                 ...        0 min,  0.000 sec (  0.420%)
 coordinate transformation      ...        0 min,  0.000 sec (  0.696%)
 single point calculation       ...        0 min,  0.027 sec ( 88.797%)
 optimization log               ...        0 min,  0.001 sec (  2.103%)
 hessian update                 ...        0 min,  0.000 sec (  0.641%)
 rational function              ...        0 min,  0.001 sec (  2.447%)

================
 final structure:
================
6
 xtb: 6.2.3 (830e466)
F        -2.88641817856044   -0.05679499069923    0.04248245270516
Cl        2.58844287272228    0.06353784241851   -0.02137643091877
C        -0.90889789827715   -0.01671209433511    0.00743356137574
H        -0.78584866050565   -0.64780702015484   -0.85257976279650
H        -0.75668939813318   -0.43962231167451    0.98243767497690
H        -0.80623873724589    1.04530857444518   -0.11413749534252
 
 Bond Distances (Angstroems)
 ---------------------------
C3-H4=1.0738         C3-H5=1.0736         C3-H6=1.0739         H4-C3=1.0738         H5-C3=1.0736         H6-C3=1.0739         
 C  H  Rav=1.0738 sigma=0.0001  Rmin=1.0736  Rmax=1.0739     3
 
 selected bond angles (degree)
 --------------------
H5-C3-H4=118.66                H6-C3-H4=118.66                H6-C3-H5=118.61                
 
 selected dihedral angles (degree)
 ---------------------------------

 
 CMA Distance (Angstroems)
 ---------------------------
R(CMA):  4.4423
           -------------------------------------------------
          |                Final Singlepoint                |
           -------------------------------------------------

          ...................................................
          :                      SETUP                      :
          :.................................................:
          :  # basis functions                  21          :
          :  # atomic orbitals                  20          :
          :  # shells                           10          :
          :  # electrons                        22          :
          :  max. iterations                   250          :
          :  Hamiltonian                  GFN2-xTB          :
          :  restarted?                      false          :
          :  GBSA solvation                   true          :
          :  PC potential                    false          :
          :  electronic temp.          300.0000000     K    :
          :  accuracy                    1.0000000          :
          :  -> integral cutoff          0.2500000E+02      :
          :  -> integral neglect         0.1000000E-07      :
          :  -> SCF convergence          0.1000000E-05 Eh   :
          :  -> wf. convergence          0.1000000E-03 e    :
          :  Broyden damping             0.4000000          :
          ...................................................

 iter      E             dE          RMSdq      gap      omega  full diag
   1    -13.2857088 -0.132857E+02  0.291E-05    1.64       0.0  T
   2    -13.2857088 -0.452971E-12  0.217E-05    1.64    1880.9  T
   3    -13.2857088 -0.250466E-12  0.177E-05    1.64    2310.4  T

   *** convergence criteria satisfied after 3 iterations ***

         #    Occupation            Energy/Eh            Energy/eV
      -------------------------------------------------------------
         1        2.0000           -0.9870199             -26.8582
       ...           ...                  ...                  ...
         5        2.0000           -0.5151087             -14.0168
         6        2.0000           -0.4739492             -12.8968
         7        2.0000           -0.4448553             -12.1051
         8        2.0000           -0.4448548             -12.1051
         9        2.0000           -0.3910264             -10.6404
        10        2.0000           -0.3895182             -10.5993
        11        2.0000           -0.3895169             -10.5993 (HOMO)
        12                         -0.3291754              -8.9573 (LUMO)
        13                          0.1009275               2.7464
        14                          0.1401396               3.8134
        15                          0.1402603               3.8167
        16                          0.1402622               3.8167
       ...                                ...                  ...
        20                          0.2482403               6.7550
      -------------------------------------------------------------
                  HL-Gap            0.0603415 Eh            1.6420 eV
             Fermi-level           -0.3589871 Eh           -9.7685 eV

 SCC (total)                   0 d,  0 h,  0 min,  0.002 sec
 SCC setup                      ...        0 min,  0.000 sec (  9.770%)
 Dispersion                     ...        0 min,  0.000 sec (  0.609%)
 integral evaluation            ...        0 min,  0.000 sec ( 23.830%)
 zeroth order Hamiltonian       ...        0 min,  0.000 sec (  1.392%)
 iterations                     ...        0 min,  0.000 sec ( 26.627%)
 molecular gradient             ...        0 min,  0.000 sec ( 28.700%)
 printout                       ...        0 min,  0.000 sec (  5.291%)

         :::::::::::::::::::::::::::::::::::::::::::::::::::::
         ::                     SUMMARY                     ::
         :::::::::::::::::::::::::::::::::::::::::::::::::::::
         :: total energy             -13.226149240678 Eh    ::
         :: total w/o Gsasa/hb       -13.224563134619 Eh    ::
         :: gradient norm              0.000260765485 Eh/a0 ::
         :: HOMO-LUMO gap              1.641975141078 eV    ::
         ::.................................................::
         :: SCC energy               -13.283393130747 Eh    ::
         :: -> isotropic ES            0.189995205543 Eh    ::
         :: -> anisotropic ES         -0.005720296089 Eh    ::
         :: -> anisotropic XC          0.006322800849 Eh    ::
         :: -> dispersion             -0.001559383187 Eh    ::
         :: -> Gsolv                  -0.104691189028 Eh    ::
         ::    -> Gborn               -0.103105082969 Eh    ::
         ::    -> Gsasa                0.000458232618 Eh    ::
         ::    -> Ghb                 -0.003901781804 Eh    ::
         ::    -> Gshift               0.001857443127 Eh    ::
         :: repulsion energy           0.057191856461 Eh    ::
         :: add. restraining           0.000053224261 Eh    ::
         :::::::::::::::::::::::::::::::::::::::::::::::::::::

           -------------------------------------------------
          |                Property Printout                |
           -------------------------------------------------

    * Orbital Energies and Occupations

         #    Occupation            Energy/Eh            Energy/eV
      -------------------------------------------------------------
         1        2.0000           -0.9870199             -26.8582
         2        2.0000           -0.7381245             -20.0854
         3        2.0000           -0.6125894             -16.6694
         4        2.0000           -0.5151624             -14.0183
         5        2.0000           -0.5151087             -14.0168
         6        2.0000           -0.4739492             -12.8968
         7        2.0000           -0.4448553             -12.1051
         8        2.0000           -0.4448548             -12.1051
         9        2.0000           -0.3910264             -10.6404
        10        2.0000           -0.3895182             -10.5993
        11        2.0000           -0.3895169             -10.5993 (HOMO)
        12                         -0.3291754              -8.9573 (LUMO)
        13                          0.1009275               2.7464
        14                          0.1401396               3.8134
        15                          0.1402603               3.8167
        16                          0.1402622               3.8167
        17                          0.1410303               3.8376
        18                          0.1410304               3.8376
        19                          0.2478966               6.7456
        20                          0.2482403               6.7550
      -------------------------------------------------------------
                  HL-Gap            0.0603415 Eh            1.6420 eV
             Fermi-level           -0.3589871 Eh           -9.7685 eV

     #   Z        covCN         q      C6AA      α(0)
     1   9 F      0.186    -0.455    14.679     4.466
     2  17 Cl     0.000    -0.992   126.678    17.129
     3   6 C      2.965     0.006    27.896     8.663
     4   1 H      0.926     0.147     1.410     1.857
     5   1 H      0.926     0.147     1.412     1.858
     6   1 H      0.926     0.147     1.411     1.858

 Mol. C6AA /au·bohr⁶  :        566.408220
 Mol. C8AA /au·bohr⁸  :      16584.090361
 Mol. α(0) /au        :         35.831031


Wiberg/Mayer (AO) data.
largest (>0.10) Wiberg bond orders for each atom
          total WBO             WBO to atom ...
     1  F   0.789        C    3 0.786
     2  Cl  0.012
     3  C   3.727        H    5 0.976    H    6 0.976    H    4 0.976    F    1 0.786
     4  H   0.978        C    3 0.976
     5  H   0.978        C    3 0.976
     6  H   0.978        C    3 0.976

molecular dipole:
                 x           y           z       tot (Debye)
 q only:       -3.032      -0.082       0.007
   full:       -2.844      -0.078       0.005       7.231
molecular quadrupole (traceless):
                xx          xy          yy          xz          yz          zz
 q only:      -37.174      -1.274      18.576       0.609       0.015      18.598
  q+dip:      -37.888      -1.290      18.933       0.637       0.016      18.955
   full:      -37.009      -1.264      18.494       0.613       0.015      18.515

           -------------------------------------------------
          |                Geometry Summary                 |
           -------------------------------------------------

      molecular mass/u    :       69.4858989
   center of mass at/Å    :        0.3403080       0.0133899       0.0022216
  moments of inertia/u·Å² :        0.3439992E+01   0.4015117E+03   0.4015143E+03
rotational constants/cm⁻¹ :        0.4900486E+01   0.4198541E-01   0.4198513E-01

 * 3 selected distances

     #   Z        #   Z                                     value/Å
     3   6 C      4   1 H                                 1.0737993
     3   6 C      5   1 H                                 1.0736170 (min)
     3   6 C      6   1 H                                 1.0738744 (max)

 * 1 distinct bonds (by element types)

   Z      Z             #   av. dist./Å        max./Å        min./Å
   1 H    6 C           3     1.0737636     1.0738744     1.0736170


optimized geometry written to: xtbopt.xyz


           -------------------------------------------------
          | TOTAL ENERGY              -13.226149240678 Eh   |
          | GRADIENT NORM               0.000260765485 Eh/α |
          | HOMO-LUMO GAP               1.641975141078 eV   |
           -------------------------------------------------

------------------------------------------------------------------------
 * finished run on 2020/08/20 at 17:46:28.358     
------------------------------------------------------------------------
 total:
 * wall-time:     0 d,  0 h,  0 min,  0.071 sec
 *  cpu-time:     0 d,  0 h,  0 min,  0.227 sec
 * ratio c/w:     3.185 speedup
 SCF:
 * wall-time:     0 d,  0 h,  0 min,  0.005 sec
 *  cpu-time:     0 d,  0 h,  0 min,  0.021 sec
 * ratio c/w:     3.981 speedup
 ANC optimizer:
 * wall-time:     0 d,  0 h,  0 min,  0.033 sec
 *  cpu-time:     0 d,  0 h,  0 min,  0.132 sec
 * ratio c/w:     3.990 speedup

