      -----------------------------------------------------------      
     |                   =====================                   |     
     |                           x T B                           |     
     |                   =====================                   |     
     |                         S. Grimme                         |     
     |          Mulliken Center for Theoretical Chemistry        |     
     |                    University of Bonn                     |     
      -----------------------------------------------------------      

   * xtb version 6.2.3 (830e466) compiled by 'ehlert@majestix' on 2020-03-16

   xtb is free software: you can redistribute it and/or modify it under
   the terms of the GNU Lesser General Public License as published by
   the Free Software Foundation, either version 3 of the License, or
   (at your option) any later version.
   
   xtb is distributed in the hope that it will be useful,
   but WITHOUT ANY WARRANTY; without even the implied warranty of
   MERCHANTABILITY or FITNESS FOR A PARTICULAR PURPOSE.  See the
   GNU Lesser General Public License for more details.
   
   Cite this work as:
   * S. Grimme, C. Bannwarth, P. Shushkov, J. Chem. Theory Comput., 2017,
     13, 1989-2009. DOI: 10.1021/acs.jctc.7b00118
   * C. Bannwarth, S. Ehlert and S. Grimme., J. Chem. Theory Comput., 2019,
     15, 1652-1671. DOI: 10.1021/acs.jctc.8b01176
   * P. Pracht, E. Caldeweyher, S. Ehlert, S. Grimme, ChemRxiv, 2019, preprint.
     DOI: 10.26434/chemrxiv.8326202.v1
   
   for DFT-D4:
   * E. Caldeweyher, C. Bannwarth and S. Grimme, J. Chem. Phys., 2017,
     147, 034112. DOI: 10.1063/1.4993215
   * E. Caldeweyher, S. Ehlert, A. Hansen, H. Neugebauer, S. Spicher,
     C. Bannwarth and S. Grimme, J. Chem. Phys., 2019, 150, 154122.
     DOI: 10.1063/1.5090222
   
   for sTDA-xTB:
   * S. Grimme and C. Bannwarth, J. Chem. Phys., 2016, 145, 054103.
     DOI: 10.1063/1.4959605
   
   in the mass-spec context:
   * V. Asgeirsson, C. Bauer and S. Grimme, Chem. Sci., 2017, 8, 4879.
     DOI: 10.1039/c7sc00601b
   
   for metadynamics refer to:
   * S. Grimme, J. Chem. Theory Comput., 2019, 155, 2847-2862
     DOI: 10.1021/acs.jctc.9b00143
   
   with help from (in alphabetical order)
   C. Bannwarth, F. Bohle, G. Brandenburg, E. Caldeweyher, M. Checinski,
   S. Dohm, S. Ehlert, S. Ehrlich, F. März, H. Neugebauer, J. Pisarek,
   P. Pracht, P. Shushkov, and S. Spicher.
   
 * started run on 2020/08/20 at 17:46:28.192     

           -------------------------------------------------
          |                Calculation Setup                |
           -------------------------------------------------

          program call               : /u/fd/ball4935/opt/bin/xtb 3ixBtq_reactant_constrained_opt8_xtb.xyz --chrg -1 --opt --gbsa Water --input xcontrol_3ixBtq_reactant_constrained_opt8_xtb
          hostname                   : comp0810
          coordinate file            : 3ixBtq_reactant_constrained_opt8_xtb.xyz
          omp threads                :                     4
          number of atoms            :                     6
          number of electrons        :                    22
          charge                     :                    -1
          spin                       :                   0.0
          first test random number   :      0.15024317743754

constraining bond 1 3 to    2.1410000 Å, actual value:    2.3023046 Å
constraining bond 2 3 to    3.3061000 Å, actual value:    3.1136567 Å

molecular fragmentation (1/2 indicates fragments):
122222
# atoms in fragment 1/2:     1     5
 fragment masses (1/2) :       19.00       50.49
CMA distance (Bohr)    :   8.487
constraining FC (au)   : 20.0000
########################################################################
[WARNING] Please study the warnings concerning your input carefully
-2- prog_main: XTBPATH is not set, using XTBHOME instead
-1- prog_main: XTBHOME is not set, using HOME instead
########################################################################
           ------------------------------------------------- 
          |                 G F N 2 - x T B                 |
          | Geometry, Frequencies, Noncovalent interactions |
          |            JCTC 2019 parametrisation            |
           ------------------------------------------------- 
             k(s)              :                1.8500
             k(p)              :                2.2300
             k(d)              :                2.2300
             k(f)              :                2.0000
             kEN (H0ij)        :               -2.0000
             D4 a1             :                0.5200
             D4 a2             :                5.0000
             D4 s6             :                1.0000
             D4 s8             :                2.7000
             D4 s9             :                5.0000
             alphaj            :                2.0000

  Z AO/shell   Hii/eV     exponent
  1     Wed Apr 25 08:07:45 CEST 2018   EN: 2.200 GM2: 0.406  GM3: 0.0800  RAES: 1.40
     1s    -10.707211    1.230000
  6     Wed Apr 25 08:07:45 CEST 2018   EN: 2.550 GM2: 0.538  GM3: 0.1500  RAES: 3.00
     2s    -13.970922    2.096432
     2p    -10.063292    1.800000
  9     Mon Apr 23 13:58:50 CEST 2018   EN: 3.980 GM2: 0.532  GM3: 0.1426  RAES: 2.40
     2s    -23.458179    2.416361
     2p    -15.746583    2.308399
 17     Mon Apr 23 14:09:22 CEST 2018   EN: 3.160 GM2: 0.249  GM3: 0.1495  RAES: 2.50
     3s    -29.278781    2.485265
     3p    -12.673758    2.199650
     3d     -0.240338    2.476089

 Solvent             : Water
 Using internal parameter file: .param_gbsa2_Water
 Gsolv ref. state (COSMO-RS): gsolv [1 M gas/solution]
 temperature (mdtemp)       :    298.150000000000     
 dielectric constant        :    80.2000000000000     
 rho                        :    1.00000000000000     
 mass                       :    18.0000000000000     
 surface tension            :    15.5689454083859     
 probe radius               :   0.975313790000000     
 Gshift (Eh)                :   1.857443126794793E-003
 c1                         :    1.55243817000000     
 soset                      :   0.130326360000000     
 HB correction              :  T
           ------------------------------------------------- 
          |        Self-Consistent Charge Iterations        |
           ------------------------------------------------- 

          ...................................................
          :                      SETUP                      :
          :.................................................:
          :  # basis functions                  21          :
          :  # atomic orbitals                  20          :
          :  # shells                           10          :
          :  # electrons                        22          :
          :  max. iterations                   250          :
          :  Hamiltonian                  GFN2-xTB          :
          :  restarted?                      false          :
          :  GBSA solvation                   true          :
          :  PC potential                    false          :
          :  electronic temp.          300.0000000     K    :
          :  accuracy                    1.0000000          :
          :  -> integral cutoff          0.2500000E+02      :
          :  -> integral neglect         0.1000000E-07      :
          :  -> SCF convergence          0.1000000E-05 Eh   :
          :  -> wf. convergence          0.1000000E-03 e    :
          :  Broyden damping             0.4000000          :
          ...................................................

 iter      E             dE          RMSdq      gap      omega  full diag
   1    -13.1066226 -0.131066E+02  0.893E+00    3.32       0.0  T
   2    -12.8842380  0.222385E+00  0.808E+00    0.47       1.0  T
   3    -13.1826624 -0.298424E+00  0.583E+00    1.72       1.0  T
   4    -13.2470687 -0.644063E-01  0.235E+00    0.70       1.0  T
   5    -13.2421286  0.494007E-02  0.237E+00    1.03       1.0  T
   6    -13.2580081 -0.158794E-01  0.336E-01    0.99       1.0  T
   7    -13.2575569  0.451121E-03  0.464E-01    0.95       1.0  T
   8    -13.2581580 -0.601068E-03  0.103E-01    0.94       1.0  T
   9    -13.2577332  0.424816E-03  0.344E-01    0.94       1.0  T
  10    -13.2581714 -0.438225E-03  0.613E-02    0.93       1.0  T
  11    -13.2581812 -0.975223E-05  0.286E-02    0.94       1.4  T
  12    -13.2581822 -0.103090E-05  0.105E-02    0.94       3.9  T
  13    -13.2581826 -0.437337E-06  0.302E-03    0.94      13.5  T
  14    -13.2581827 -0.252103E-07  0.544E-04    0.94      75.1  T
  15    -13.2581827 -0.350854E-09  0.380E-05    0.94    1075.5  T

   *** convergence criteria satisfied after 15 iterations ***

         #    Occupation            Energy/Eh            Energy/eV
      -------------------------------------------------------------
         1        2.0000           -0.9987483             -27.1773
       ...           ...                  ...                  ...
         5        2.0000           -0.5104612             -13.8904
         6        2.0000           -0.4306226             -11.7178
         7        2.0000           -0.4147003             -11.2846
         8        2.0000           -0.4146997             -11.2846
         9        2.0000           -0.3943122             -10.7298
        10        2.0000           -0.3905326             -10.6269
        11        2.0000           -0.3905317             -10.6269 (HOMO)
        12                         -0.3560058              -9.6874 (LUMO)
        13                          0.0986137               2.6834
        14                          0.1194003               3.2490
        15                          0.1194021               3.2491
        16                          0.1194177               3.2495
       ...                                ...                  ...
        20                          0.2616538               7.1200
      -------------------------------------------------------------
                  HL-Gap            0.0345259 Eh            0.9395 eV
             Fermi-level           -0.3729353 Eh          -10.1481 eV

 SCC (total)                   0 d,  0 h,  0 min,  0.005 sec
 SCC setup                      ...        0 min,  0.000 sec (  6.419%)
 Dispersion                     ...        0 min,  0.000 sec (  0.648%)
 integral evaluation            ...        0 min,  0.001 sec ( 10.000%)
 zeroth order Hamiltonian       ...        0 min,  0.000 sec (  0.629%)
 iterations                     ...        0 min,  0.003 sec ( 64.676%)
 molecular gradient             ...        0 min,  0.001 sec ( 13.561%)
 printout                       ...        0 min,  0.000 sec (  2.440%)

         :::::::::::::::::::::::::::::::::::::::::::::::::::::
         ::                     SUMMARY                     ::
         :::::::::::::::::::::::::::::::::::::::::::::::::::::
         :: total energy              -8.694225320166 Eh    ::
         :: total w/o Gsasa/hb        -8.692589005551 Eh    ::
         :: gradient norm             32.823189357993 Eh/a0 ::
         :: HOMO-LUMO gap              0.939497068385 eV    ::
         ::.................................................::
         :: SCC energy               -13.255703893335 Eh    ::
         :: -> isotropic ES            0.192521140064 Eh    ::
         :: -> anisotropic ES         -0.005535638089 Eh    ::
         :: -> anisotropic XC          0.006545831267 Eh    ::
         :: -> dispersion             -0.001668670100 Eh    ::
         :: -> Gsolv                  -0.099470623258 Eh    ::
         ::    -> Gborn               -0.097834308644 Eh    ::
         ::    -> Gsasa                0.000621321554 Eh    ::
         ::    -> Ghb                 -0.004115079295 Eh    ::
         ::    -> Gshift               0.001857443127 Eh    ::
         :: repulsion energy           0.058111071312 Eh    ::
         :: add. restraining           4.503368831246 Eh    ::
         :::::::::::::::::::::::::::::::::::::::::::::::::::::

      ----------------------------------------------------------- 
     |                   =====================                   |
     |                        A N C O P T                        |
     |                   =====================                   |
     |               Approximate Normal Coordinate               |
     |                Rational Function Optimizer                |
      ----------------------------------------------------------- 

          ...................................................
          :                      SETUP                      :
          :.................................................:
          :   optimization level            normal          :
          :   max. optcycles                   200          :
          :   ANC micro-cycles                  20          :
          :   degrees of freedom                12          :
          :.................................................:
          :   RF solver                   davidson          :
          :   write xtbopt.log                true          :
          :   linear?                        false          :
          :   energy convergence         0.5000000E-05 Eh   :
          :   grad. convergence          0.1000000E-02 Eh/α :
          :   maximium RF displ.         1.0000000          :
          :   Hlow (freq-cutoff)         0.1000000E-01      :
          :   Hmax (freq-cutoff)         5.0000000          :
          :   S6 in model hess.         20.0000000          :
          ...................................................

generating ANC from model Hessian ...
Using Lindh-Hessian (1995)
 Shifting diagonal of input Hessian by   0.842269097681729     
 Lowest  eigenvalues of input Hessian
    0.010000    0.010600   -0.000000   -0.000000   -0.000000   -0.000000
    0.000000    0.000000    0.849488    0.989213    0.989447    1.275730
    1.520643    1.521151    3.484877    3.485143   40.855855  120.879523
 Highest eigenvalues
    1.520643    1.521151    3.484877    3.485143   40.855855  120.879523
 

........................................................................
.............................. CYCLE    1 ..............................
........................................................................
   1    -13.2581827 -0.132582E+02  0.305E-05    0.94       0.0  T
   2    -13.2581827  0.633982E-11  0.445E-05    0.94     916.5  T
   3    -13.2581827 -0.881606E-11  0.935E-06    0.94    4366.7  T
     SCC iter.                  ...        0 min,  0.000 sec
     gradient                   ...        0 min,  0.000 sec
 * total energy  :    -8.6942253 Eh     change       -0.3004157E-09 Eh
   gradient norm :    32.8231897 Eh/α   predicted     0.0000000E+00 (-100.00%)
   displ. norm   :     0.9267308 α      lambda       -0.3041825E+02
   maximum displ.:     0.9255774 α      in ANC's #11, #12, #6, ...

........................................................................
.............................. CYCLE    2 ..............................
........................................................................
   1    -13.2643315 -0.132643E+02  0.233E+00    4.73       0.0  T
   2    -13.2702041 -0.587262E-02  0.105E+00    4.26       1.0  T
   3    -13.2712261 -0.102197E-02  0.550E-01    3.71       1.0  T
   4    -13.2715954 -0.369348E-03  0.272E-01    3.64       1.0  T
   5    -13.2716173 -0.218602E-04  0.329E-02    3.60       1.2  T
   6    -13.2716178 -0.511117E-06  0.239E-02    3.60       1.7  T
   7    -13.2716181 -0.275660E-06  0.303E-03    3.60      13.5  T
   8    -13.2716181 -0.142456E-07  0.116E-03    3.60      35.1  T
     SCC iter.                  ...        0 min,  0.001 sec
     gradient                   ...        0 min,  0.000 sec
 * total energy  :    12.3201531 Eh     change        0.2101438E+02 Eh
   gradient norm :    78.2900359 Eh/α   predicted    -0.2827119E+02 (-234.53%)
   displ. norm   :     0.4940828 α      lambda       -0.3866134E+02
   maximum displ.:     0.4938705 α      in ANC's #11, #12, #3, ...

........................................................................
.............................. CYCLE    3 ..............................
........................................................................
   1    -13.2596718 -0.132597E+02  0.156E+00    0.95       0.0  T
   2    -13.2612689 -0.159705E-02  0.132E+00    0.86       1.0  T
   3    -13.2660680 -0.479912E-02  0.492E-01    1.15       1.0  T
   4    -13.2661851 -0.117165E-03  0.299E-01    1.28       1.0  T
   5    -13.2663646 -0.179436E-03  0.974E-02    1.31       1.0  T
   6    -13.2663864 -0.218674E-04  0.399E-02    1.30       1.0  T
   7    -13.2663912 -0.475582E-05  0.111E-02    1.30       3.7  T
   8    -13.2663913 -0.984554E-07  0.760E-03    1.30       5.4  T
   9    -13.2663914 -0.143915E-06  0.173E-03    1.30      23.6  T
  10    -13.2663914 -0.775425E-08  0.740E-04    1.30      55.2  T
     SCC iter.                  ...        0 min,  0.001 sec
     gradient                   ...        0 min,  0.000 sec
 * total energy  :   -11.6948625 Eh     change       -0.2401502E+02 Eh
   gradient norm :    19.0198127 Eh/α   predicted    -0.2404963E+02 (   0.14%)
   displ. norm   :     0.1959988 α      lambda       -0.3049091E+01
   maximum displ.:     0.1553572 α      in ANC's #11, #12, #6, ...

........................................................................
.............................. CYCLE    4 ..............................
........................................................................
   1    -13.2678512 -0.132679E+02  0.450E-01    1.09       0.0  T
   2    -13.2678553 -0.412174E-05  0.439E-01    1.08       1.0  T
   3    -13.2684532 -0.597914E-03  0.109E-01    1.17       1.0  T
   4    -13.2684565 -0.326361E-05  0.896E-02    1.19       1.0  T
   5    -13.2684703 -0.138808E-04  0.823E-03    1.20       5.0  T
   6    -13.2684705 -0.123144E-06  0.344E-03    1.20      11.9  T
   7    -13.2684705 -0.281473E-07  0.768E-04    1.20      53.1  T
     SCC iter.                  ...        0 min,  0.001 sec
     gradient                   ...        0 min,  0.000 sec
 * total energy  :   -13.0097472 Eh     change       -0.1314885E+01 Eh
   gradient norm :     3.9903696 Eh/α   predicted    -0.1583110E+01 (  20.40%)
   displ. norm   :     0.4693973 α      lambda       -0.1858802E+01
   maximum displ.:     0.4587660 α      in ANC's #12, #11, #3, ...

........................................................................
.............................. CYCLE    5 ..............................
........................................................................
   1    -13.2448504 -0.132449E+02  0.160E+00    0.35       0.0  T
   2    -13.2485812 -0.373080E-02  0.467E-01    0.68       1.0  T
   3    -13.2482085  0.372653E-03  0.511E-01    0.55       1.0  T
   4    -13.2489930 -0.784457E-03  0.187E-01    0.59       1.0  T
   5    -13.2490071 -0.141077E-04  0.508E-02    0.57       1.0  T
   6    -13.2490070  0.514762E-07  0.424E-02    0.59       1.0  T
   7    -13.2490109 -0.386122E-05  0.628E-03    0.59       6.5  T
   8    -13.2490110 -0.119006E-06  0.216E-03    0.59      18.9  T
   9    -13.2490110 -0.919047E-08  0.715E-04    0.59      57.1  T
     SCC iter.                  ...        0 min,  0.001 sec
     gradient                   ...        0 min,  0.000 sec
 * total energy  :   -10.0732675 Eh     change        0.2936480E+01 Eh
   gradient norm :    18.4095863 Eh/α   predicted    -0.1134181E+01 (-138.62%)
   displ. norm   :     0.3282916 α      lambda       -0.5587901E+01
   maximum displ.:     0.3150543 α      in ANC's #12, #11, #3, ...

........................................................................
.............................. CYCLE    6 ..............................
........................................................................
   1    -13.2616537 -0.132617E+02  0.713E-01    1.21       0.0  T
   2    -13.2614757  0.178042E-03  0.636E-01    1.16       1.0  T
   3    -13.2626637 -0.118804E-02  0.213E-01    1.01       1.0  T
   4    -13.2627529 -0.891095E-04  0.120E-01    0.98       1.0  T
   5    -13.2627772 -0.243757E-04  0.142E-02    0.98       2.9  T
   6    -13.2627771  0.174087E-06  0.131E-02    0.97       3.1  T
   7    -13.2627774 -0.369724E-06  0.146E-03    0.98      28.0  T
   8    -13.2627774 -0.318942E-08  0.918E-04    0.98      44.5  T
     SCC iter.                  ...        0 min,  0.001 sec
     gradient                   ...        0 min,  0.000 sec
 * total energy  :   -13.1677330 Eh     change       -0.3094465E+01 Eh
   gradient norm :     1.8316895 Eh/α   predicted    -0.3095070E+01 (   0.02%)
   displ. norm   :     0.0472796 α      lambda       -0.8051449E-01
   maximum displ.:     0.0443547 α      in ANC's #12, #3, #1, ...

........................................................................
.............................. CYCLE    7 ..............................
........................................................................
   1    -13.2658210 -0.132658E+02  0.617E-02    1.06       0.0  T
   2    -13.2658197  0.123024E-05  0.514E-02    1.06       1.0  T
   3    -13.2658277 -0.792288E-05  0.223E-02    1.05       1.8  T
   4    -13.2658287 -0.101065E-05  0.749E-03    1.04       5.4  T
   5    -13.2658287 -0.700316E-07  0.282E-03    1.04      14.5  T
   6    -13.2658288 -0.982344E-08  0.310E-04    1.04     131.6  T
     SCC iter.                  ...        0 min,  0.001 sec
     gradient                   ...        0 min,  0.000 sec
 * total energy  :   -13.2080586 Eh     change       -0.4032564E-01 Eh
   gradient norm :     0.0210600 Eh/α   predicted    -0.4034722E-01 (   0.05%)
   displ. norm   :     0.0433108 α      lambda       -0.1635031E-03
   maximum displ.:     0.0328861 α      in ANC's #1, #2, #3, ...

........................................................................
.............................. CYCLE    8 ..............................
........................................................................
   1    -13.2666397 -0.132666E+02  0.502E-02    1.04       0.0  T
   2    -13.2666399 -0.190009E-06  0.304E-02    1.04       1.3  T
   3    -13.2666388  0.114611E-05  0.178E-02    1.05       2.3  T
   4    -13.2666401 -0.131195E-05  0.395E-03    1.04      10.3  T
   5    -13.2666401 -0.205362E-07  0.854E-04    1.04      47.8  T
     SCC iter.                  ...        0 min,  0.001 sec
     gradient                   ...        0 min,  0.000 sec
 * total energy  :   -13.2081356 Eh     change       -0.7705574E-04 Eh
   gradient norm :     0.0135889 Eh/α   predicted    -0.8190460E-04 (   6.29%)
   displ. norm   :     0.0934281 α      lambda       -0.9381137E-03
   maximum displ.:     0.0794689 α      in ANC's #3, #1, #6, ...

........................................................................
.............................. CYCLE    9 ..............................
........................................................................
   1    -13.2716765 -0.132717E+02  0.752E-02    1.03       0.0  T
   2    -13.2716777 -0.120034E-05  0.579E-02    1.04       1.0  T
   3    -13.2716799 -0.210565E-05  0.320E-02    1.05       1.3  T
   4    -13.2716816 -0.179200E-05  0.173E-02    1.05       2.4  T
   5    -13.2716822 -0.572763E-06  0.147E-03    1.05      27.7  T
   6    -13.2716822 -0.940783E-09  0.236E-04    1.05     173.1  T
     SCC iter.                  ...        0 min,  0.001 sec
     gradient                   ...        0 min,  0.000 sec
 * total energy  :   -13.2085775 Eh     change       -0.4418990E-03 Eh
   gradient norm :     0.1096936 Eh/α   predicted    -0.4731512E-03 (   7.07%)
   displ. norm   :     0.0504844 α      lambda       -0.1916401E-03
   maximum displ.:     0.0369872 α      in ANC's #2, #1, #3, ...

........................................................................
.............................. CYCLE   10 ..............................
........................................................................
   1    -13.2715371 -0.132715E+02  0.713E-02    1.05       0.0  T
   2    -13.2715357  0.143379E-05  0.502E-02    1.04       1.0  T
   3    -13.2715371 -0.139934E-05  0.381E-02    1.05       1.1  T
   4    -13.2715402 -0.313233E-05  0.406E-03    1.05      10.1  T
   5    -13.2715402 -0.153321E-07  0.109E-03    1.05      37.4  T
     SCC iter.                  ...        0 min,  0.001 sec
     gradient                   ...        0 min,  0.000 sec
 * total energy  :   -13.2086334 Eh     change       -0.5584560E-04 Eh
   gradient norm :     0.0258757 Eh/α   predicted    -0.9606304E-04 (  72.02%)
   displ. norm   :     0.0967955 α      lambda       -0.5597138E-03
   maximum displ.:     0.0703299 α      in ANC's #2, #3, #1, ...

........................................................................
.............................. CYCLE   11 ..............................
........................................................................
   1    -13.2701933 -0.132702E+02  0.150E-01    1.05       0.0  T
   2    -13.2701760  0.172913E-04  0.121E-01    1.03       1.0  T
   3    -13.2702149 -0.389459E-04  0.691E-02    1.05       1.0  T
   4    -13.2702220 -0.709326E-05  0.850E-03    1.05       4.8  T
   5    -13.2702221 -0.851054E-07  0.225E-03    1.05      18.1  T
   6    -13.2702221 -0.372850E-08  0.474E-04    1.05      86.0  T
     SCC iter.                  ...        0 min,  0.001 sec
     gradient                   ...        0 min,  0.000 sec
 * total energy  :   -13.2085068 Eh     change        0.1265425E-03 Eh
   gradient norm :     0.2514248 Eh/α   predicted    -0.2824759E-03 (-323.23%)
   displ. norm   :     0.0411553 α      lambda       -0.5615775E-03
   maximum displ.:     0.0325416 α      in ANC's #2, #1, #3, ...

........................................................................
.............................. CYCLE   12 ..............................
........................................................................
   1    -13.2704536 -0.132705E+02  0.597E-02    1.06       0.0  T
   2    -13.2704521  0.146763E-05  0.440E-02    1.06       1.0  T
   3    -13.2704551 -0.296025E-05  0.299E-02    1.05       1.4  T
   4    -13.2704567 -0.164160E-05  0.428E-03    1.05       9.5  T
   5    -13.2704567 -0.259326E-07  0.969E-04    1.05      42.1  T
     SCC iter.                  ...        0 min,  0.001 sec
     gradient                   ...        0 min,  0.000 sec
 * total energy  :   -13.2088207 Eh     change       -0.3138247E-03 Eh
   gradient norm :     0.0426891 Eh/α   predicted    -0.2812644E-03 ( -10.38%)
   displ. norm   :     0.0109275 α      lambda       -0.4447914E-04
   maximum displ.:     0.0076134 α      in ANC's #3, #2, #6, ...

........................................................................
.............................. CYCLE   13 ..............................
........................................................................
   1    -13.2698747 -0.132699E+02  0.235E-02    1.06       0.0  T
   2    -13.2698738  0.837857E-06  0.210E-02    1.05       1.9  T
   3    -13.2698758 -0.198499E-05  0.849E-03    1.06       4.8  T
   4    -13.2698759 -0.105914E-06  0.592E-04    1.06      69.0  T
   5    -13.2698759 -0.750564E-10  0.217E-04    1.06     188.6  T
     SCC iter.                  ...        0 min,  0.001 sec
     gradient                   ...        0 min,  0.000 sec
 * total energy  :   -13.2088540 Eh     change       -0.3332355E-04 Eh
   gradient norm :     0.0113900 Eh/α   predicted    -0.2224262E-04 ( -33.25%)
   displ. norm   :     0.0158107 α      lambda       -0.3328311E-04
   maximum displ.:     0.0139150 α      in ANC's #3, #6, #2, ...

........................................................................
.............................. CYCLE   14 ..............................
........................................................................
   1    -13.2689731 -0.132690E+02  0.371E-02    1.06       0.0  T
   2    -13.2689706  0.243660E-05  0.351E-02    1.05       1.2  T
   3    -13.2689765 -0.584200E-05  0.113E-02    1.06       3.6  T
   4    -13.2689767 -0.208624E-06  0.101E-03    1.06      40.4  T
   5    -13.2689767 -0.689090E-09  0.240E-04    1.06     170.4  T
     SCC iter.                  ...        0 min,  0.001 sec
     gradient                   ...        0 min,  0.000 sec
 * total energy  :   -13.2088718 Eh     change       -0.1781994E-04 Eh
   gradient norm :     0.0046320 Eh/α   predicted    -0.1664474E-04 (  -6.59%)
   displ. norm   :     0.0019750 α      lambda       -0.5861679E-06
   maximum displ.:     0.0012894 α      in ANC's #3, #2, #6, ...

........................................................................
.............................. CYCLE   15 ..............................
........................................................................
   1    -13.2688825 -0.132689E+02  0.409E-03    1.06       0.0  T
   2    -13.2688825  0.245673E-07  0.371E-03    1.06      11.0  T
   3    -13.2688826 -0.588552E-07  0.147E-03    1.06      27.9  T
   4    -13.2688826 -0.302386E-08  0.155E-04    1.06     263.9  T
     SCC iter.                  ...        0 min,  0.001 sec
     gradient                   ...        0 min,  0.000 sec
 * total energy  :   -13.2088721 Eh     change       -0.3256363E-06 Eh
   gradient norm :     0.0009462 Eh/α   predicted    -0.2938937E-06 (  -9.75%)
   displ. norm   :     0.0004423 α      lambda       -0.2060384E-07
   maximum displ.:     0.0004044 α      in ANC's #2, #1, #6, ...

   *** GEOMETRY OPTIMIZATION CONVERGED AFTER 15 ITERATIONS ***

------------------------------------------------------------------------
 total energy gain   :        -4.5146468 Eh    -2832.9837 kcal/mol
 total RMSD          :         0.1354067 a0        0.0717 Å
 total power (kW/mol):      -790.2135737 (step)********** (real)
------------------------------------------------------------------------

 ANCopt (total)                0 d,  0 h,  0 min,  0.031 sec
 optimizer setup                ...        0 min,  0.000 sec (  0.320%)
 model hessian                  ...        0 min,  0.000 sec (  0.755%)
 ANC generation                 ...        0 min,  0.000 sec (  0.509%)
 coordinate transformation      ...        0 min,  0.000 sec (  0.754%)
 single point calculation       ...        0 min,  0.027 sec ( 88.911%)
 optimization log               ...        0 min,  0.001 sec (  2.095%)
 hessian update                 ...        0 min,  0.000 sec (  0.591%)
 rational function              ...        0 min,  0.001 sec (  2.447%)

================
 final structure:
================
6
 xtb: 6.2.3 (830e466)
F        -2.96738324030824   -0.05851287792161    0.04367323260344
Cl        2.47719715894956    0.06056350866523   -0.02156823206804
C        -0.82786709126380   -0.01481243094369    0.00641303013719
H        -0.74673871978567   -0.64881053243466   -0.85529386871150
H        -0.72103405183416   -0.44003044722435    0.98551638992202
H        -0.76983405575793    1.04951277985911   -0.11448055188309
 
 Bond Distances (Angstroems)
 ---------------------------
C3-H4=1.0729         C3-H5=1.0728         C3-H6=1.0727         H4-C3=1.0729         H5-C3=1.0728         H6-C3=1.0727         
 C  H  Rav=1.0728 sigma=0.0001  Rmin=1.0727  Rmax=1.0729     3
 
 selected bond angles (degree)
 --------------------
H5-C3-H4=119.42                H6-C3-H4=119.45                H6-C3-H5=119.39                
 
 selected dihedral angles (degree)
 ---------------------------------

 
 CMA Distance (Angstroems)
 ---------------------------
R(CMA):  4.4667
           -------------------------------------------------
          |                Final Singlepoint                |
           -------------------------------------------------

          ...................................................
          :                      SETUP                      :
          :.................................................:
          :  # basis functions                  21          :
          :  # atomic orbitals                  20          :
          :  # shells                           10          :
          :  # electrons                        22          :
          :  max. iterations                   250          :
          :  Hamiltonian                  GFN2-xTB          :
          :  restarted?                      false          :
          :  GBSA solvation                   true          :
          :  PC potential                    false          :
          :  electronic temp.          300.0000000     K    :
          :  accuracy                    1.0000000          :
          :  -> integral cutoff          0.2500000E+02      :
          :  -> integral neglect         0.1000000E-07      :
          :  -> SCF convergence          0.1000000E-05 Eh   :
          :  -> wf. convergence          0.1000000E-03 e    :
          :  Broyden damping             0.4000000          :
          ...................................................

 iter      E             dE          RMSdq      gap      omega  full diag
   1    -13.2688826 -0.132689E+02  0.627E-05    1.06       0.0  T
   2    -13.2688826  0.959233E-13  0.331E-05    1.06    1234.4  T
   3    -13.2688826  0.140510E-11  0.441E-05    1.06     925.1  T

   *** convergence criteria satisfied after 3 iterations ***

         #    Occupation            Energy/Eh            Energy/eV
      -------------------------------------------------------------
         1        2.0000           -0.9905321             -26.9537
       ...           ...                  ...                  ...
         5        2.0000           -0.5144552             -13.9990
         6        2.0000           -0.4537994             -12.3485
         7        2.0000           -0.4323077             -11.7637
         8        2.0000           -0.4323061             -11.7636
         9        2.0000           -0.3920137             -10.6672
        10        2.0000           -0.3896730             -10.6035
        11        2.0000           -0.3896718             -10.6035 (HOMO)
        12                         -0.3507207              -9.5436 (LUMO)
        13                          0.0970596               2.6411
        14                          0.1338860               3.6432
        15                          0.1339881               3.6460
        16                          0.1339902               3.6461
       ...                                ...                  ...
        20                          0.2540067               6.9119
      -------------------------------------------------------------
                  HL-Gap            0.0389511 Eh            1.0599 eV
             Fermi-level           -0.3698475 Eh          -10.0641 eV

 SCC (total)                   0 d,  0 h,  0 min,  0.002 sec
 SCC setup                      ...        0 min,  0.000 sec (  8.648%)
 Dispersion                     ...        0 min,  0.000 sec (  0.757%)
 integral evaluation            ...        0 min,  0.000 sec ( 24.583%)
 zeroth order Hamiltonian       ...        0 min,  0.000 sec (  1.472%)
 iterations                     ...        0 min,  0.000 sec ( 27.456%)
 molecular gradient             ...        0 min,  0.000 sec ( 27.400%)
 printout                       ...        0 min,  0.000 sec (  5.116%)

         :::::::::::::::::::::::::::::::::::::::::::::::::::::
         ::                     SUMMARY                     ::
         :::::::::::::::::::::::::::::::::::::::::::::::::::::
         :: total energy             -13.208872142107 Eh    ::
         :: total w/o Gsasa/hb       -13.207132764801 Eh    ::
         :: gradient norm              0.000947596015 Eh/a0 ::
         :: HOMO-LUMO gap              1.059913721989 eV    ::
         ::.................................................::
         :: SCC energy               -13.266482505204 Eh    ::
         :: -> isotropic ES            0.192484091707 Eh    ::
         :: -> anisotropic ES         -0.006439893557 Eh    ::
         :: -> anisotropic XC          0.006666646857 Eh    ::
         :: -> dispersion             -0.001607496035 Eh    ::
         :: -> Gsolv                  -0.102831718307 Eh    ::
         ::    -> Gborn               -0.101092341001 Eh    ::
         ::    -> Gsasa                0.000542618285 Eh    ::
         ::    -> Ghb                 -0.004139438718 Eh    ::
         ::    -> Gshift               0.001857443127 Eh    ::
         :: repulsion energy           0.057575065985 Eh    ::
         :: add. restraining           0.000036572747 Eh    ::
         :::::::::::::::::::::::::::::::::::::::::::::::::::::

           -------------------------------------------------
          |                Property Printout                |
           -------------------------------------------------

    * Orbital Energies and Occupations

         #    Occupation            Energy/Eh            Energy/eV
      -------------------------------------------------------------
         1        2.0000           -0.9905321             -26.9537
         2        2.0000           -0.7217026             -19.6385
         3        2.0000           -0.6127445             -16.6736
         4        2.0000           -0.5145106             -14.0005
         5        2.0000           -0.5144552             -13.9990
         6        2.0000           -0.4537994             -12.3485
         7        2.0000           -0.4323077             -11.7637
         8        2.0000           -0.4323061             -11.7636
         9        2.0000           -0.3920137             -10.6672
        10        2.0000           -0.3896730             -10.6035
        11        2.0000           -0.3896718             -10.6035 (HOMO)
        12                         -0.3507207              -9.5436 (LUMO)
        13                          0.0970596               2.6411
        14                          0.1338860               3.6432
        15                          0.1339881               3.6460
        16                          0.1339902               3.6461
        17                          0.1349337               3.6717
        18                          0.1349338               3.6717
        19                          0.2537783               6.9057
        20                          0.2540067               6.9119
      -------------------------------------------------------------
                  HL-Gap            0.0389511 Eh            1.0599 eV
             Fermi-level           -0.3698475 Eh          -10.0641 eV

     #   Z        covCN         q      C6AA      α(0)
     1   9 F      0.039    -0.509    15.451     4.579
     2  17 Cl     0.000    -0.952   125.046    17.018
     3   6 C      2.818     0.000    28.014     8.672
     4   1 H      0.926     0.154     1.367     1.829
     5   1 H      0.926     0.153     1.369     1.830
     6   1 H      0.926     0.153     1.368     1.829

 Mol. C6AA /au·bohr⁶  :        565.490523
 Mol. C8AA /au·bohr⁸  :      16532.567482
 Mol. α(0) /au        :         35.756812


Wiberg/Mayer (AO) data.
largest (>0.10) Wiberg bond orders for each atom
          total WBO             WBO to atom ...
     1  F   0.718        C    3 0.716
     2  Cl  0.070
     3  C   3.711        H    5 0.975    H    6 0.975    H    4 0.975    F    1 0.716
     4  H   0.976        C    3 0.975
     5  H   0.976        C    3 0.975
     6  H   0.976        C    3 0.975

molecular dipole:
                 x           y           z       tot (Debye)
 q only:       -2.254      -0.064       0.001
   full:       -2.062      -0.060      -0.001       5.244
molecular quadrupole (traceless):
                xx          xy          yy          xz          yz          zz
 q only:      -36.868      -1.243      18.424       0.640       0.015      18.444
  q+dip:      -37.183      -1.248      18.582       0.658       0.016      18.601
   full:      -36.250      -1.219      18.116       0.635       0.016      18.135

           -------------------------------------------------
          |                Geometry Summary                 |
           -------------------------------------------------

      molecular mass/u    :       69.4858989
   center of mass at/Å    :        0.2770304       0.0117715       0.0022732
  moments of inertia/u·Å² :        0.3461358E+01   0.3913955E+03   0.3913982E+03
rotational constants/cm⁻¹ :        0.4870237E+01   0.4307058E-01   0.4307029E-01

 * 3 selected distances

     #   Z        #   Z                                     value/Å
     3   6 C      4   1 H                                 1.0728813 (max)
     3   6 C      5   1 H                                 1.0727847
     3   6 C      6   1 H                                 1.0727401 (min)

 * 1 distinct bonds (by element types)

   Z      Z             #   av. dist./Å        max./Å        min./Å
   1 H    6 C           3     1.0728020     1.0728813     1.0727401


optimized geometry written to: xtbopt.xyz


           -------------------------------------------------
          | TOTAL ENERGY              -13.208872142107 Eh   |
          | GRADIENT NORM               0.000947596015 Eh/α |
          | HOMO-LUMO GAP               1.059913721989 eV   |
           -------------------------------------------------

------------------------------------------------------------------------
 * finished run on 2020/08/20 at 17:46:28.264     
------------------------------------------------------------------------
 total:
 * wall-time:     0 d,  0 h,  0 min,  0.071 sec
 *  cpu-time:     0 d,  0 h,  0 min,  0.227 sec
 * ratio c/w:     3.184 speedup
 SCF:
 * wall-time:     0 d,  0 h,  0 min,  0.005 sec
 *  cpu-time:     0 d,  0 h,  0 min,  0.021 sec
 * ratio c/w:     3.985 speedup
 ANC optimizer:
 * wall-time:     0 d,  0 h,  0 min,  0.033 sec
 *  cpu-time:     0 d,  0 h,  0 min,  0.132 sec
 * ratio c/w:     3.990 speedup

