      -----------------------------------------------------------      
     |                   =====================                   |     
     |                           x T B                           |     
     |                   =====================                   |     
     |                         S. Grimme                         |     
     |          Mulliken Center for Theoretical Chemistry        |     
     |                    University of Bonn                     |     
      -----------------------------------------------------------      

   * xtb version 6.2.3 (830e466) compiled by 'ehlert@majestix' on 2020-03-16

   xtb is free software: you can redistribute it and/or modify it under
   the terms of the GNU Lesser General Public License as published by
   the Free Software Foundation, either version 3 of the License, or
   (at your option) any later version.
   
   xtb is distributed in the hope that it will be useful,
   but WITHOUT ANY WARRANTY; without even the implied warranty of
   MERCHANTABILITY or FITNESS FOR A PARTICULAR PURPOSE.  See the
   GNU Lesser General Public License for more details.
   
   Cite this work as:
   * S. Grimme, C. Bannwarth, P. Shushkov, J. Chem. Theory Comput., 2017,
     13, 1989-2009. DOI: 10.1021/acs.jctc.7b00118
   * C. Bannwarth, S. Ehlert and S. Grimme., J. Chem. Theory Comput., 2019,
     15, 1652-1671. DOI: 10.1021/acs.jctc.8b01176
   * P. Pracht, E. Caldeweyher, S. Ehlert, S. Grimme, ChemRxiv, 2019, preprint.
     DOI: 10.26434/chemrxiv.8326202.v1
   
   for DFT-D4:
   * E. Caldeweyher, C. Bannwarth and S. Grimme, J. Chem. Phys., 2017,
     147, 034112. DOI: 10.1063/1.4993215
   * E. Caldeweyher, S. Ehlert, A. Hansen, H. Neugebauer, S. Spicher,
     C. Bannwarth and S. Grimme, J. Chem. Phys., 2019, 150, 154122.
     DOI: 10.1063/1.5090222
   
   for sTDA-xTB:
   * S. Grimme and C. Bannwarth, J. Chem. Phys., 2016, 145, 054103.
     DOI: 10.1063/1.4959605
   
   in the mass-spec context:
   * V. Asgeirsson, C. Bauer and S. Grimme, Chem. Sci., 2017, 8, 4879.
     DOI: 10.1039/c7sc00601b
   
   for metadynamics refer to:
   * S. Grimme, J. Chem. Theory Comput., 2019, 155, 2847-2862
     DOI: 10.1021/acs.jctc.9b00143
   
   with help from (in alphabetical order)
   C. Bannwarth, F. Bohle, G. Brandenburg, E. Caldeweyher, M. Checinski,
   S. Dohm, S. Ehlert, S. Ehrlich, F. März, H. Neugebauer, J. Pisarek,
   P. Pracht, P. Shushkov, and S. Spicher.
   
 * started run on 2020/08/20 at 17:46:28.380     

           -------------------------------------------------
          |                Calculation Setup                |
           -------------------------------------------------

          program call               : /u/fd/ball4935/opt/bin/xtb 3ixBtq_reactant_constrained_opt10_xtb.xyz --chrg -1 --opt --gbsa Water --input xcontrol_3ixBtq_reactant_constrained_opt10_xtb
          hostname                   : comp0810
          coordinate file            : 3ixBtq_reactant_constrained_opt10_xtb.xyz
          omp threads                :                     4
          number of atoms            :                     6
          number of electrons        :                    22
          charge                     :                    -1
          spin                       :                   0.0
          first test random number   :      0.64902498767112

constraining bond 1 3 to    1.8173000 Å, actual value:    1.9782367 Å
constraining bond 2 3 to    3.6907000 Å, actual value:    3.4983792 Å

molecular fragmentation (1/2 indicates fragments):
122222
# atoms in fragment 1/2:     1     5
 fragment masses (1/2) :       19.00       50.49
CMA distance (Bohr)    :   8.395
constraining FC (au)   : 20.0000
########################################################################
[WARNING] Please study the warnings concerning your input carefully
-2- prog_main: XTBPATH is not set, using XTBHOME instead
-1- prog_main: XTBHOME is not set, using HOME instead
########################################################################
           ------------------------------------------------- 
          |                 G F N 2 - x T B                 |
          | Geometry, Frequencies, Noncovalent interactions |
          |            JCTC 2019 parametrisation            |
           ------------------------------------------------- 
             k(s)              :                1.8500
             k(p)              :                2.2300
             k(d)              :                2.2300
             k(f)              :                2.0000
             kEN (H0ij)        :               -2.0000
             D4 a1             :                0.5200
             D4 a2             :                5.0000
             D4 s6             :                1.0000
             D4 s8             :                2.7000
             D4 s9             :                5.0000
             alphaj            :                2.0000

  Z AO/shell   Hii/eV     exponent
  1     Wed Apr 25 08:07:45 CEST 2018   EN: 2.200 GM2: 0.406  GM3: 0.0800  RAES: 1.40
     1s    -10.707211    1.230000
  6     Wed Apr 25 08:07:45 CEST 2018   EN: 2.550 GM2: 0.538  GM3: 0.1500  RAES: 3.00
     2s    -13.970922    2.096432
     2p    -10.063292    1.800000
  9     Mon Apr 23 13:58:50 CEST 2018   EN: 3.980 GM2: 0.532  GM3: 0.1426  RAES: 2.40
     2s    -23.458179    2.416361
     2p    -15.746583    2.308399
 17     Mon Apr 23 14:09:22 CEST 2018   EN: 3.160 GM2: 0.249  GM3: 0.1495  RAES: 2.50
     3s    -29.278781    2.485265
     3p    -12.673758    2.199650
     3d     -0.240338    2.476089

 Solvent             : Water
 Using internal parameter file: .param_gbsa2_Water
 Gsolv ref. state (COSMO-RS): gsolv [1 M gas/solution]
 temperature (mdtemp)       :    298.150000000000     
 dielectric constant        :    80.2000000000000     
 rho                        :    1.00000000000000     
 mass                       :    18.0000000000000     
 surface tension            :    15.5689454083859     
 probe radius               :   0.975313790000000     
 Gshift (Eh)                :   1.857443126794793E-003
 c1                         :    1.55243817000000     
 soset                      :   0.130326360000000     
 HB correction              :  T
           ------------------------------------------------- 
          |        Self-Consistent Charge Iterations        |
           ------------------------------------------------- 

          ...................................................
          :                      SETUP                      :
          :.................................................:
          :  # basis functions                  21          :
          :  # atomic orbitals                  20          :
          :  # shells                           10          :
          :  # electrons                        22          :
          :  max. iterations                   250          :
          :  Hamiltonian                  GFN2-xTB          :
          :  restarted?                      false          :
          :  GBSA solvation                   true          :
          :  PC potential                    false          :
          :  electronic temp.          300.0000000     K    :
          :  accuracy                    1.0000000          :
          :  -> integral cutoff          0.2500000E+02      :
          :  -> integral neglect         0.1000000E-07      :
          :  -> SCF convergence          0.1000000E-05 Eh   :
          :  -> wf. convergence          0.1000000E-03 e    :
          :  Broyden damping             0.4000000          :
          ...................................................

 iter      E             dE          RMSdq      gap      omega  full diag
   1    -13.1677707 -0.131678E+02  0.771E+00    4.53       0.0  T
   2    -13.2268819 -0.591112E-01  0.364E+00    1.67       1.0  T
   3    -13.2688620 -0.419801E-01  0.344E+00    2.17       1.0  T
   4    -13.2855194 -0.166574E-01  0.643E-01    1.36       1.0  T
   5    -13.2848944  0.625013E-03  0.481E-01    1.68       1.0  T
   6    -13.2856838 -0.789379E-03  0.110E-01    1.61       1.0  T
   7    -13.2856112  0.725680E-04  0.158E-01    1.62       1.0  T
   8    -13.2856802 -0.690318E-04  0.884E-02    1.63       1.0  T
   9    -13.2857078 -0.275537E-04  0.874E-03    1.64       4.7  T
  10    -13.2857081 -0.284175E-06  0.266E-03    1.64      15.4  T
  11    -13.2857081 -0.229336E-07  0.157E-04    1.64     259.6  T
  12    -13.2857081 -0.357137E-10  0.797E-05    1.64     512.5  T

   *** convergence criteria satisfied after 12 iterations ***

         #    Occupation            Energy/Eh            Energy/eV
      -------------------------------------------------------------
         1        2.0000           -0.9870200             -26.8582
       ...           ...                  ...                  ...
         5        2.0000           -0.5151084             -14.0168
         6        2.0000           -0.4739485             -12.8968
         7        2.0000           -0.4448543             -12.1051
         8        2.0000           -0.4448538             -12.1051
         9        2.0000           -0.3910264             -10.6404
        10        2.0000           -0.3895182             -10.5993
        11        2.0000           -0.3895168             -10.5993 (HOMO)
        12                         -0.3291749              -8.9573 (LUMO)
        13                          0.1009249               2.7463
        14                          0.1401393               3.8134
        15                          0.1402600               3.8167
        16                          0.1402619               3.8167
       ...                                ...                  ...
        20                          0.2482349               6.7548
      -------------------------------------------------------------
                  HL-Gap            0.0603419 Eh            1.6420 eV
             Fermi-level           -0.3589868 Eh           -9.7685 eV

 SCC (total)                   0 d,  0 h,  0 min,  0.005 sec
 SCC setup                      ...        0 min,  0.000 sec (  6.998%)
 Dispersion                     ...        0 min,  0.000 sec (  0.700%)
 integral evaluation            ...        0 min,  0.000 sec ( 10.466%)
 zeroth order Hamiltonian       ...        0 min,  0.000 sec (  0.659%)
 iterations                     ...        0 min,  0.003 sec ( 63.465%)
 molecular gradient             ...        0 min,  0.001 sec ( 12.773%)
 printout                       ...        0 min,  0.000 sec (  3.149%)

         :::::::::::::::::::::::::::::::::::::::::::::::::::::
         ::                     SUMMARY                     ::
         :::::::::::::::::::::::::::::::::::::::::::::::::::::
         :: total energy              -8.734668719684 Eh    ::
         :: total w/o Gsasa/hb        -8.733082610238 Eh    ::
         :: gradient norm             32.821968036478 Eh/a0 ::
         :: HOMO-LUMO gap              1.641986762368 eV    ::
         ::.................................................::
         :: SCC energy               -13.283392417854 Eh    ::
         :: -> isotropic ES            0.189994354802 Eh    ::
         :: -> anisotropic ES         -0.005720200614 Eh    ::
         :: -> anisotropic XC          0.006322819189 Eh    ::
         :: -> dispersion             -0.001559383502 Eh    ::
         :: -> Gsolv                  -0.104691191833 Eh    ::
         ::    -> Gborn               -0.103105082387 Eh    ::
         ::    -> Gsasa                0.000458232072 Eh    ::
         ::    -> Ghb                 -0.003901784644 Eh    ::
         ::    -> Gshift               0.001857443127 Eh    ::
         :: repulsion energy           0.057191101448 Eh    ::
         :: add. restraining           4.491533786306 Eh    ::
         :::::::::::::::::::::::::::::::::::::::::::::::::::::

      ----------------------------------------------------------- 
     |                   =====================                   |
     |                        A N C O P T                        |
     |                   =====================                   |
     |               Approximate Normal Coordinate               |
     |                Rational Function Optimizer                |
      ----------------------------------------------------------- 

          ...................................................
          :                      SETUP                      :
          :.................................................:
          :   optimization level            normal          :
          :   max. optcycles                   200          :
          :   ANC micro-cycles                  20          :
          :   degrees of freedom                12          :
          :.................................................:
          :   RF solver                   davidson          :
          :   write xtbopt.log                true          :
          :   linear?                        false          :
          :   energy convergence         0.5000000E-05 Eh   :
          :   grad. convergence          0.1000000E-02 Eh/α :
          :   maximium RF displ.         1.0000000          :
          :   Hlow (freq-cutoff)         0.1000000E-01      :
          :   Hmax (freq-cutoff)         5.0000000          :
          :   S6 in model hess.         20.0000000          :
          ...................................................

generating ANC from model Hessian ...
Using Lindh-Hessian (1995)
 Shifting diagonal of input Hessian by   0.502575849514831     
 Lowest  eigenvalues of input Hessian
    0.010000    0.010355   -0.000000   -0.000000   -0.000000    0.000000
    0.000000    0.000000    0.529832    0.639459    0.639555    0.939577
    1.191073    1.191360    4.502090    4.502564   40.546529  120.662888
 Highest eigenvalues
    1.191073    1.191360    4.502090    4.502564   40.546529  120.662888
 

........................................................................
.............................. CYCLE    1 ..............................
........................................................................
   1    -13.2857081 -0.132857E+02  0.215E-06    1.64       0.0  T
   2    -13.2857081 -0.177636E-14  0.171E-06    1.64   23922.4  T
   3    -13.2857081 -0.301981E-13  0.417E-07    1.64   97809.5  T
     SCC iter.                  ...        0 min,  0.000 sec
     gradient                   ...        0 min,  0.000 sec
 * total energy  :    -8.7346687 Eh     change       -0.8632099E-09 Eh
   gradient norm :    32.8219673 Eh/α   predicted     0.0000000E+00 (-100.00%)
   displ. norm   :     0.9267282 α      lambda       -0.3041704E+02
   maximum displ.:     0.9255437 α      in ANC's #11, #12, #6, ...

........................................................................
.............................. CYCLE    2 ..............................
........................................................................
   1    -13.2975162 -0.132975E+02  0.236E+00   10.53       0.0  T
   2    -13.3003850 -0.286876E-02  0.129E+00   10.16       1.0  T
   3    -13.3011649 -0.779941E-03  0.323E-01    9.84       1.0  T
   4    -13.3011893 -0.243767E-04  0.117E-01    9.79       1.0  T
   5    -13.3011992 -0.990303E-05  0.492E-02    9.80       1.0  T
   6    -13.3012021 -0.288905E-05  0.187E-02    9.79       2.2  T
   7    -13.3012024 -0.285613E-06  0.114E-02    9.79       3.6  T
   8    -13.3012026 -0.194050E-06  0.830E-04    9.79      49.2  T
   9    -13.3012026 -0.890488E-10  0.175E-04    9.79     232.9  T
     SCC iter.                  ...        0 min,  0.001 sec
     gradient                   ...        0 min,  0.000 sec
 * total energy  :    12.3195243 Eh     change        0.2105419E+02 Eh
   gradient norm :    78.4059232 Eh/α   predicted    -0.2826998E+02 (-234.27%)
   displ. norm   :     0.4942238 α      lambda       -0.3872910E+02
   maximum displ.:     0.4940057 α      in ANC's #11, #12, #10, ...

........................................................................
.............................. CYCLE    3 ..............................
........................................................................
   1    -13.2990789 -0.132991E+02  0.142E+00    3.12       0.0  T
   2    -13.3006223 -0.154340E-02  0.811E-01    3.31       1.0  T
   3    -13.3009168 -0.294505E-03  0.357E-01    3.64       1.0  T
   4    -13.3010375 -0.120679E-03  0.144E-01    3.73       1.0  T
   5    -13.3010514 -0.139528E-04  0.432E-02    3.73       1.0  T
   6    -13.3010524 -0.992340E-06  0.217E-02    3.73       1.9  T
   7    -13.3010532 -0.761320E-06  0.844E-03    3.73       4.8  T
   8    -13.3010533 -0.120710E-06  0.126E-03    3.74      32.4  T
   9    -13.3010533 -0.166867E-08  0.573E-04    3.74      71.2  T
     SCC iter.                  ...        0 min,  0.001 sec
     gradient                   ...        0 min,  0.000 sec
 * total energy  :   -11.7300890 Eh     change       -0.2404961E+02 Eh
   gradient norm :    19.0398087 Eh/α   predicted    -0.2409448E+02 (   0.19%)
   displ. norm   :     0.1986946 α      lambda       -0.3059341E+01
   maximum displ.:     0.1553775 α      in ANC's #11, #12, #6, ...

........................................................................
.............................. CYCLE    4 ..............................
........................................................................
   1    -13.3033838 -0.133034E+02  0.277E-01    3.08       0.0  T
   2    -13.3035149 -0.131090E-03  0.150E-01    3.08       1.0  T
   3    -13.3035434 -0.285417E-04  0.790E-02    3.13       1.0  T
   4    -13.3035482 -0.477892E-05  0.272E-02    3.16       1.5  T
   5    -13.3035487 -0.490915E-06  0.727E-03    3.16       5.6  T
   6    -13.3035487 -0.380260E-07  0.277E-03    3.16      14.8  T
   7    -13.3035487 -0.130794E-07  0.141E-03    3.17      29.0  T
     SCC iter.                  ...        0 min,  0.001 sec
     gradient                   ...        0 min,  0.000 sec
 * total energy  :   -13.0325835 Eh     change       -0.1302495E+01 Eh
   gradient norm :     4.1374138 Eh/α   predicted    -0.1590062E+01 (  22.08%)
   displ. norm   :     0.4745525 α      lambda       -0.1945980E+01
   maximum displ.:     0.4631432 α      in ANC's #12, #11, #6, ...

........................................................................
.............................. CYCLE    5 ..............................
........................................................................
   1    -13.2742770 -0.132743E+02  0.990E-01    1.14       0.0  T
   2    -13.2748029 -0.525891E-03  0.713E-01    1.08       1.0  T
   3    -13.2761937 -0.139077E-02  0.337E-01    1.25       1.0  T
   4    -13.2763267 -0.133002E-03  0.105E-01    1.34       1.0  T
   5    -13.2763422 -0.155124E-04  0.514E-02    1.35       1.0  T
   6    -13.2763468 -0.460967E-05  0.185E-02    1.34       2.2  T
   7    -13.2763478 -0.953092E-06  0.463E-03    1.35       8.8  T
   8    -13.2763478 -0.258024E-07  0.270E-03    1.35      15.1  T
     SCC iter.                  ...        0 min,  0.001 sec
     gradient                   ...        0 min,  0.000 sec
 * total energy  :   -10.0555265 Eh     change        0.2977057E+01 Eh
   gradient norm :    18.7182533 Eh/α   predicted    -0.1192107E+01 (-140.04%)
   displ. norm   :     0.3292813 α      lambda       -0.5681614E+01
   maximum displ.:     0.3149901 α      in ANC's #12, #11, #3, ...

........................................................................
.............................. CYCLE    6 ..............................
........................................................................
   1    -13.2960014 -0.132960E+02  0.656E-01    2.75       0.0  T
   2    -13.2964758 -0.474442E-03  0.349E-01    2.75       1.0  T
   3    -13.2966376 -0.161791E-03  0.209E-01    2.63       1.0  T
   4    -13.2966842 -0.465734E-04  0.501E-02    2.58       1.0  T
   5    -13.2966862 -0.199371E-05  0.194E-02    2.58       2.1  T
   6    -13.2966861  0.233834E-07  0.930E-03    2.58       4.4  T
   7    -13.2966864 -0.232657E-06  0.313E-03    2.58      13.0  T
   8    -13.2966864 -0.183812E-07  0.414E-04    2.58      98.5  T
     SCC iter.                  ...        0 min,  0.001 sec
     gradient                   ...        0 min,  0.000 sec
 * total energy  :   -13.2040378 Eh     change       -0.3148511E+01 Eh
   gradient norm :     1.8687050 Eh/α   predicted    -0.3148826E+01 (   0.01%)
   displ. norm   :     0.0521747 α      lambda       -0.8389693E-01
   maximum displ.:     0.0451712 α      in ANC's #12, #3, #6, ...

........................................................................
.............................. CYCLE    7 ..............................
........................................................................
   1    -13.3018160 -0.133018E+02  0.778E-02    2.77       0.0  T
   2    -13.3018205 -0.451800E-05  0.405E-02    2.77       1.0  T
   3    -13.3018216 -0.103843E-05  0.270E-02    2.76       1.5  T
   4    -13.3018224 -0.793525E-06  0.512E-03    2.76       8.0  T
   5    -13.3018224 -0.134428E-07  0.174E-03    2.76      23.4  T
     SCC iter.                  ...        0 min,  0.001 sec
     gradient                   ...        0 min,  0.000 sec
 * total energy  :   -13.2461287 Eh     change       -0.4209088E-01 Eh
   gradient norm :     0.0242640 Eh/α   predicted    -0.4206264E-01 (  -0.07%)
   displ. norm   :     0.0315563 α      lambda       -0.2913172E-03
   maximum displ.:     0.0200151 α      in ANC's #1, #3, #2, ...

........................................................................
.............................. CYCLE    8 ..............................
........................................................................
   1    -13.3035601 -0.133036E+02  0.255E-02    2.75       0.0  T
   2    -13.3035603 -0.136750E-06  0.154E-02    2.75       2.6  T
   3    -13.3035603 -0.282290E-07  0.357E-03    2.76      11.4  T
   4    -13.3035603 -0.110356E-07  0.247E-03    2.76      16.5  T
     SCC iter.                  ...        0 min,  0.000 sec
     gradient                   ...        0 min,  0.000 sec
 * total energy  :   -13.2463587 Eh     change       -0.2300165E-03 Eh
   gradient norm :     0.0118153 Eh/α   predicted    -0.1458066E-03 ( -36.61%)
   displ. norm   :     0.2488239 α      lambda       -0.1711615E-02
   maximum displ.:     0.1762700 α      in ANC's #1, #3, #2, ...

........................................................................
.............................. CYCLE    9 ..............................
........................................................................
   1    -13.3122605 -0.133123E+02  0.199E-01    2.71       0.0  T
   2    -13.3122699 -0.936850E-05  0.119E-01    2.73       1.0  T
   3    -13.3122697  0.153329E-06  0.391E-02    2.76       1.0  T
   4    -13.3122729 -0.310372E-05  0.170E-02    2.75       2.4  T
   5    -13.3122730 -0.183677E-06  0.157E-03    2.75      26.0  T
   6    -13.3122730 -0.111315E-08  0.566E-04    2.75      72.1  T
     SCC iter.                  ...        0 min,  0.001 sec
     gradient                   ...        0 min,  0.000 sec
 * total energy  :   -13.2449470 Eh     change        0.1411689E-02 Eh
   gradient norm :     0.1504569 Eh/α   predicted    -0.9088275E-03 (-164.38%)
   displ. norm   :     0.1798226 α      lambda       -0.3263511E-02
   maximum displ.:     0.1474901 α      in ANC's #1, #2, #3, ...

........................................................................
.............................. CYCLE   10 ..............................
........................................................................
   1    -13.3081161 -0.133081E+02  0.154E-01    2.78       0.0  T
   2    -13.3081182 -0.208405E-05  0.911E-02    2.77       1.0  T
   3    -13.3081189 -0.639440E-06  0.129E-02    2.76       3.2  T
   4    -13.3081190 -0.101528E-06  0.835E-03    2.76       4.9  T
   5    -13.3081190 -0.794641E-07  0.124E-03    2.76      33.0  T
   6    -13.3081190 -0.760965E-09  0.394E-04    2.76     103.5  T
     SCC iter.                  ...        0 min,  0.001 sec
     gradient                   ...        0 min,  0.000 sec
 * total energy  :   -13.2467142 Eh     change       -0.1767187E-02 Eh
   gradient norm :     0.0134304 Eh/α   predicted    -0.1684514E-02 (  -4.68%)
   displ. norm   :     0.0249539 α      lambda       -0.6514924E-04
   maximum displ.:     0.0231910 α      in ANC's #2, #6, #3, ...

........................................................................
.............................. CYCLE   11 ..............................
........................................................................
   1    -13.3069068 -0.133069E+02  0.278E-02    2.77       0.0  T
   2    -13.3069070 -0.173992E-06  0.158E-02    2.76       2.6  T
   3    -13.3069069  0.436373E-07  0.800E-03    2.76       5.1  T
   4    -13.3069070 -0.103361E-06  0.130E-03    2.76      31.4  T
   5    -13.3069070 -0.608829E-09  0.250E-04    2.76     163.3  T
     SCC iter.                  ...        0 min,  0.001 sec
     gradient                   ...        0 min,  0.000 sec
 * total energy  :   -13.2467421 Eh     change       -0.2794706E-04 Eh
   gradient norm :     0.0070169 Eh/α   predicted    -0.3259511E-04 (  16.63%)
   displ. norm   :     0.0695369 α      lambda       -0.1357554E-03
   maximum displ.:     0.0495740 α      in ANC's #1, #2, #6, ...

........................................................................
.............................. CYCLE   12 ..............................
........................................................................
   1    -13.3043166 -0.133043E+02  0.792E-02    2.77       0.0  T
   2    -13.3043180 -0.146000E-05  0.453E-02    2.77       1.0  T
   3    -13.3043177  0.349480E-06  0.230E-02    2.77       1.8  T
   4    -13.3043185 -0.862020E-06  0.289E-03    2.77      14.1  T
   5    -13.3043185 -0.210730E-08  0.546E-04    2.77      74.7  T
     SCC iter.                  ...        0 min,  0.001 sec
     gradient                   ...        0 min,  0.000 sec
 * total energy  :   -13.2466442 Eh     change        0.9796052E-04 Eh
   gradient norm :     0.0385176 Eh/α   predicted    -0.6820116E-04 (-169.62%)
   displ. norm   :     0.0502382 α      lambda       -0.2653848E-03
   maximum displ.:     0.0372636 α      in ANC's #1, #2, #6, ...

........................................................................
.............................. CYCLE   13 ..............................
........................................................................
   1    -13.3061380 -0.133061E+02  0.527E-02    2.76       0.0  T
   2    -13.3061382 -0.216962E-06  0.313E-02    2.76       1.3  T
   3    -13.3061382  0.598298E-07  0.798E-03    2.77       5.1  T
   4    -13.3061383 -0.143336E-06  0.250E-03    2.77      16.3  T
   5    -13.3061383 -0.141501E-08  0.358E-04    2.77     114.1  T
     SCC iter.                  ...        0 min,  0.001 sec
     gradient                   ...        0 min,  0.000 sec
 * total energy  :   -13.2467830 Eh     change       -0.1387829E-03 Eh
   gradient norm :     0.0037582 Eh/α   predicted    -0.1330260E-03 (  -4.15%)
   displ. norm   :     0.0069840 α      lambda       -0.7283117E-05
   maximum displ.:     0.0063496 α      in ANC's #3, #1, #6, ...

........................................................................
.............................. CYCLE   14 ..............................
........................................................................
   1    -13.3060657 -0.133061E+02  0.825E-03    2.77       0.0  T
   2    -13.3060658 -0.813543E-07  0.397E-03    2.77      10.3  T
   3    -13.3060658 -0.232336E-07  0.237E-03    2.77      17.2  T
   4    -13.3060658 -0.326071E-08  0.493E-04    2.77      82.8  T
   5    -13.3060658 -0.989768E-10  0.819E-05    2.77     498.2  T
     SCC iter.                  ...        0 min,  0.001 sec
     gradient                   ...        0 min,  0.000 sec
 * total energy  :   -13.2467882 Eh     change       -0.5222692E-05 Eh
   gradient norm :     0.0014738 Eh/α   predicted    -0.3643812E-05 ( -30.23%)
   displ. norm   :     0.0081162 α      lambda       -0.2821360E-05
   maximum displ.:     0.0077658 α      in ANC's #3, #6, #1, ...

........................................................................
.............................. CYCLE   15 ..............................
........................................................................
   1    -13.3058503 -0.133059E+02  0.108E-02    2.77       0.0  T
   2    -13.3058504 -0.154594E-06  0.483E-03    2.77       8.4  T
   3    -13.3058505 -0.456352E-07  0.297E-03    2.77      13.8  T
   4    -13.3058505 -0.511149E-08  0.553E-04    2.77      73.8  T
   5    -13.3058505 -0.125439E-09  0.120E-04    2.77     339.3  T
     SCC iter.                  ...        0 min,  0.001 sec
     gradient                   ...        0 min,  0.000 sec
 * total energy  :   -13.2467893 Eh     change       -0.1114520E-05 Eh
   gradient norm :     0.0008337 Eh/α   predicted    -0.1412427E-05 (  26.73%)
   displ. norm   :     0.0027461 α      lambda       -0.4457227E-06
   maximum displ.:     0.0025397 α      in ANC's #3, #1, #6, ...

   *** GEOMETRY OPTIMIZATION CONVERGED AFTER 15 ITERATIONS ***

------------------------------------------------------------------------
 total energy gain   :        -4.5121206 Eh    -2831.3984 kcal/mol
 total RMSD          :         0.1299972 a0        0.0688 Å
 total power (kW/mol):      -789.7713954 (step)********** (real)
------------------------------------------------------------------------

 ANCopt (total)                0 d,  0 h,  0 min,  0.030 sec
 optimizer setup                ...        0 min,  0.000 sec (  0.323%)
 model hessian                  ...        0 min,  0.000 sec (  0.719%)
 ANC generation                 ...        0 min,  0.000 sec (  0.425%)
 coordinate transformation      ...        0 min,  0.000 sec (  0.695%)
 single point calculation       ...        0 min,  0.027 sec ( 89.015%)
 optimization log               ...        0 min,  0.001 sec (  2.112%)
 hessian update                 ...        0 min,  0.000 sec (  0.640%)
 rational function              ...        0 min,  0.001 sec (  2.464%)

================
 final structure:
================
6
 xtb: 6.2.3 (830e466)
F        -2.80867226206427   -0.05507665794281    0.04126667065294
Cl        2.69661151136347    0.06636337603566   -0.02176179793083
C        -0.99297300186215   -0.01847091533340    0.00863163149079
H        -0.82074297151175   -0.64513447727762   -0.84770350977300
H        -0.79025262087969   -0.43836297599256    0.97736267535507
H        -0.83963065504562    1.03860165051073   -0.11354566979499
 
 Bond Distances (Angstroems)
 ---------------------------
C3-H4=1.0750         C3-H5=1.0751         C3-H6=1.0751         H4-C3=1.0750         H5-C3=1.0751         H6-C3=1.0751         
 C  H  Rav=1.0751 sigma=0.0000  Rmin=1.0750  Rmax=1.0751     3
 
 selected bond angles (degree)
 --------------------
H5-C3-H4=117.38                H6-C3-H4=117.37                H6-C3-H5=117.36                
 
 selected dihedral angles (degree)
 ---------------------------------

 
 CMA Distance (Angstroems)
 ---------------------------
R(CMA):  4.4185
           -------------------------------------------------
          |                Final Singlepoint                |
           -------------------------------------------------

          ...................................................
          :                      SETUP                      :
          :.................................................:
          :  # basis functions                  21          :
          :  # atomic orbitals                  20          :
          :  # shells                           10          :
          :  # electrons                        22          :
          :  max. iterations                   250          :
          :  Hamiltonian                  GFN2-xTB          :
          :  restarted?                      false          :
          :  GBSA solvation                   true          :
          :  PC potential                    false          :
          :  electronic temp.          300.0000000     K    :
          :  accuracy                    1.0000000          :
          :  -> integral cutoff          0.2500000E+02      :
          :  -> integral neglect         0.1000000E-07      :
          :  -> SCF convergence          0.1000000E-05 Eh   :
          :  -> wf. convergence          0.1000000E-03 e    :
          :  Broyden damping             0.4000000          :
          ...................................................

 iter      E             dE          RMSdq      gap      omega  full diag
   1    -13.3058505 -0.133059E+02  0.652E-05    2.77       0.0  T
   2    -13.3058505 -0.255618E-11  0.524E-05    2.77     778.9  T
   3    -13.3058505 -0.411049E-11  0.213E-05    2.77    1918.4  T

   *** convergence criteria satisfied after 3 iterations ***

         #    Occupation            Energy/Eh            Energy/eV
      -------------------------------------------------------------
         1        2.0000           -0.9863209             -26.8392
       ...           ...                  ...                  ...
         5        2.0000           -0.5147219             -14.0063
         6        2.0000           -0.4925965             -13.4042
         7        2.0000           -0.4539676             -12.3531
         8        2.0000           -0.4539638             -12.3530
         9        2.0000           -0.3904926             -10.6258
        10        2.0000           -0.3893609             -10.5950
        11        2.0000           -0.3893598             -10.5950 (HOMO)
        12                         -0.2876179              -7.8265 (LUMO)
        13                          0.1091155               2.9692
        14                          0.1415515               3.8518
        15                          0.1416591               3.8547
        16                          0.1416604               3.8548
       ...                                ...                  ...
        20                          0.2413938               6.5687
      -------------------------------------------------------------
                  HL-Gap            0.1017419 Eh            2.7685 eV
             Fermi-level           -0.3384889 Eh           -9.2108 eV

 SCC (total)                   0 d,  0 h,  0 min,  0.002 sec
 SCC setup                      ...        0 min,  0.000 sec (  8.973%)
 Dispersion                     ...        0 min,  0.000 sec (  0.802%)
 integral evaluation            ...        0 min,  0.000 sec ( 23.191%)
 zeroth order Hamiltonian       ...        0 min,  0.000 sec (  1.248%)
 iterations                     ...        0 min,  0.000 sec ( 28.792%)
 molecular gradient             ...        0 min,  0.000 sec ( 27.841%)
 printout                       ...        0 min,  0.000 sec (  5.289%)

         :::::::::::::::::::::::::::::::::::::::::::::::::::::
         ::                     SUMMARY                     ::
         :::::::::::::::::::::::::::::::::::::::::::::::::::::
         :: total energy             -13.246789288901 Eh    ::
         :: total w/o Gsasa/hb       -13.245559733567 Eh    ::
         :: gradient norm              0.000833870951 Eh/a0 ::
         :: HOMO-LUMO gap              2.768536739527 eV    ::
         ::.................................................::
         :: SCC energy               -13.303608642679 Eh    ::
         :: -> isotropic ES            0.184472769094 Eh    ::
         :: -> anisotropic ES         -0.004089511365 Eh    ::
         :: -> anisotropic XC          0.005372292182 Eh    ::
         :: -> dispersion             -0.001502201154 Eh    ::
         :: -> Gsolv                  -0.104585308005 Eh    ::
         ::    -> Gborn               -0.103355752670 Eh    ::
         ::    -> Gsasa                0.000384375932 Eh    ::
         ::    -> Ghb                 -0.003471374393 Eh    ::
         ::    -> Gshift               0.001857443127 Eh    ::
         :: repulsion energy           0.056757483828 Eh    ::
         :: add. restraining           0.000062932967 Eh    ::
         :::::::::::::::::::::::::::::::::::::::::::::::::::::

           -------------------------------------------------
          |                Property Printout                |
           -------------------------------------------------

    * Orbital Energies and Occupations

         #    Occupation            Energy/Eh            Energy/eV
      -------------------------------------------------------------
         1        2.0000           -0.9863209             -26.8392
         2        2.0000           -0.7534475             -20.5024
         3        2.0000           -0.6102622             -16.6061
         4        2.0000           -0.5147520             -14.0071
         5        2.0000           -0.5147219             -14.0063
         6        2.0000           -0.4925965             -13.4042
         7        2.0000           -0.4539676             -12.3531
         8        2.0000           -0.4539638             -12.3530
         9        2.0000           -0.3904926             -10.6258
        10        2.0000           -0.3893609             -10.5950
        11        2.0000           -0.3893598             -10.5950 (HOMO)
        12                         -0.2876179              -7.8265 (LUMO)
        13                          0.1091155               2.9692
        14                          0.1415515               3.8518
        15                          0.1416591               3.8547
        16                          0.1416604               3.8548
        17                          0.1422849               3.8718
        18                          0.1422850               3.8718
        19                          0.2411943               6.5632
        20                          0.2413938               6.5687
      -------------------------------------------------------------
                  HL-Gap            0.1017419 Eh            2.7685 eV
             Fermi-level           -0.3384889 Eh           -9.2108 eV

     #   Z        covCN         q      C6AA      α(0)
     1   9 F      0.458    -0.410    13.825     4.369
     2  17 Cl     0.000    -0.999   126.965    17.149
     3   6 C      3.237     0.011    26.876     8.410
     4   1 H      0.926     0.133     1.514     1.924
     5   1 H      0.926     0.132     1.516     1.926
     6   1 H      0.926     0.133     1.516     1.925

 Mol. C6AA /au·bohr⁶  :        563.722321
 Mol. C8AA /au·bohr⁸  :      16479.517011
 Mol. α(0) /au        :         35.702051


Wiberg/Mayer (AO) data.
largest (>0.10) Wiberg bond orders for each atom
          total WBO             WBO to atom ...
     1  F   0.833        C    3 0.827
     2  Cl  0.002
     3  C   3.769        H    5 0.980    H    6 0.980    H    4 0.980    F    1 0.827
     4  H   0.982        C    3 0.980
     5  H   0.982        C    3 0.980
     6  H   0.982        C    3 0.980

molecular dipole:
                 x           y           z       tot (Debye)
 q only:       -3.547      -0.094       0.013
   full:       -3.367      -0.090       0.011       8.560
molecular quadrupole (traceless):
                xx          xy          yy          xz          yz          zz
 q only:      -37.299      -1.293      18.638       0.583       0.014      18.661
  q+dip:      -38.458      -1.324      19.217       0.621       0.015      19.241
   full:      -37.642      -1.300      18.809       0.598       0.014      18.833

           -------------------------------------------------
          |                Geometry Summary                 |
           -------------------------------------------------

      molecular mass/u    :       69.4858989
   center of mass at/Å    :        0.4007445       0.0149571       0.0019053
  moments of inertia/u·Å² :        0.3402653E+01   0.4123279E+03   0.4123299E+03
rotational constants/cm⁻¹ :        0.4954262E+01   0.4088404E-01   0.4088385E-01

 * 3 selected distances

     #   Z        #   Z                                     value/Å
     3   6 C      4   1 H                                 1.0750257 (min)
     3   6 C      5   1 H                                 1.0751022 (max)
     3   6 C      6   1 H                                 1.0751017

 * 1 distinct bonds (by element types)

   Z      Z             #   av. dist./Å        max./Å        min./Å
   1 H    6 C           3     1.0750765     1.0751022     1.0750257


optimized geometry written to: xtbopt.xyz


           -------------------------------------------------
          | TOTAL ENERGY              -13.246789288901 Eh   |
          | GRADIENT NORM               0.000833870951 Eh/α |
          | HOMO-LUMO GAP               2.768536739527 eV   |
           -------------------------------------------------

------------------------------------------------------------------------
 * finished run on 2020/08/20 at 17:46:28.452     
------------------------------------------------------------------------
 total:
 * wall-time:     0 d,  0 h,  0 min,  0.071 sec
 *  cpu-time:     0 d,  0 h,  0 min,  0.224 sec
 * ratio c/w:     3.143 speedup
 SCF:
 * wall-time:     0 d,  0 h,  0 min,  0.005 sec
 *  cpu-time:     0 d,  0 h,  0 min,  0.020 sec
 * ratio c/w:     3.982 speedup
 ANC optimizer:
 * wall-time:     0 d,  0 h,  0 min,  0.033 sec
 *  cpu-time:     0 d,  0 h,  0 min,  0.131 sec
 * ratio c/w:     3.990 speedup

