      -----------------------------------------------------------      
     |                   =====================                   |     
     |                           x T B                           |     
     |                   =====================                   |     
     |                         S. Grimme                         |     
     |          Mulliken Center for Theoretical Chemistry        |     
     |                    University of Bonn                     |     
      -----------------------------------------------------------      

   * xtb version 6.2.3 (830e466) compiled by 'ehlert@majestix' on 2020-03-16

   xtb is free software: you can redistribute it and/or modify it under
   the terms of the GNU Lesser General Public License as published by
   the Free Software Foundation, either version 3 of the License, or
   (at your option) any later version.
   
   xtb is distributed in the hope that it will be useful,
   but WITHOUT ANY WARRANTY; without even the implied warranty of
   MERCHANTABILITY or FITNESS FOR A PARTICULAR PURPOSE.  See the
   GNU Lesser General Public License for more details.
   
   Cite this work as:
   * S. Grimme, C. Bannwarth, P. Shushkov, J. Chem. Theory Comput., 2017,
     13, 1989-2009. DOI: 10.1021/acs.jctc.7b00118
   * C. Bannwarth, S. Ehlert and S. Grimme., J. Chem. Theory Comput., 2019,
     15, 1652-1671. DOI: 10.1021/acs.jctc.8b01176
   * P. Pracht, E. Caldeweyher, S. Ehlert, S. Grimme, ChemRxiv, 2019, preprint.
     DOI: 10.26434/chemrxiv.8326202.v1
   
   for DFT-D4:
   * E. Caldeweyher, C. Bannwarth and S. Grimme, J. Chem. Phys., 2017,
     147, 034112. DOI: 10.1063/1.4993215
   * E. Caldeweyher, S. Ehlert, A. Hansen, H. Neugebauer, S. Spicher,
     C. Bannwarth and S. Grimme, J. Chem. Phys., 2019, 150, 154122.
     DOI: 10.1063/1.5090222
   
   for sTDA-xTB:
   * S. Grimme and C. Bannwarth, J. Chem. Phys., 2016, 145, 054103.
     DOI: 10.1063/1.4959605
   
   in the mass-spec context:
   * V. Asgeirsson, C. Bauer and S. Grimme, Chem. Sci., 2017, 8, 4879.
     DOI: 10.1039/c7sc00601b
   
   for metadynamics refer to:
   * S. Grimme, J. Chem. Theory Comput., 2019, 155, 2847-2862
     DOI: 10.1021/acs.jctc.9b00143
   
   with help from (in alphabetical order)
   C. Bannwarth, F. Bohle, G. Brandenburg, E. Caldeweyher, M. Checinski,
   S. Dohm, S. Ehlert, S. Ehrlich, F. März, H. Neugebauer, J. Pisarek,
   P. Pracht, P. Shushkov, and S. Spicher.
   
 * started run on 2020/08/20 at 17:46:27.092     

           -------------------------------------------------
          |                Calculation Setup                |
           -------------------------------------------------

          program call               : /u/fd/ball4935/opt/bin/xtb 3ixBtq_reactant_constrained_opt0_xtb.xyz --chrg -1 --opt --gbsa Water --input xcontrol_3ixBtq_reactant_constrained_opt0_xtb
          hostname                   : comp0810
          coordinate file            : 3ixBtq_reactant_constrained_opt0_xtb.xyz
          omp threads                :                     4
          number of atoms            :                     6
          number of electrons        :                    22
          charge                     :                    -1
          spin                       :                   0.0
          first test random number   :      0.78519605134691

constraining bond 1 3 to    3.4358000 Å, actual value:    3.4358338 Å
constraining bond 2 3 to    1.7676000 Å, actual value:    1.7676201 Å

molecular fragmentation (1/2 indicates fragments):
122222
# atoms in fragment 1/2:     1     5
 fragment masses (1/2) :       19.00       50.49
CMA distance (Bohr)    :   8.794
constraining FC (au)   : 20.0000
########################################################################
[WARNING] Please study the warnings concerning your input carefully
-2- prog_main: XTBPATH is not set, using XTBHOME instead
-1- prog_main: XTBHOME is not set, using HOME instead
########################################################################
           ------------------------------------------------- 
          |                 G F N 2 - x T B                 |
          | Geometry, Frequencies, Noncovalent interactions |
          |            JCTC 2019 parametrisation            |
           ------------------------------------------------- 
             k(s)              :                1.8500
             k(p)              :                2.2300
             k(d)              :                2.2300
             k(f)              :                2.0000
             kEN (H0ij)        :               -2.0000
             D4 a1             :                0.5200
             D4 a2             :                5.0000
             D4 s6             :                1.0000
             D4 s8             :                2.7000
             D4 s9             :                5.0000
             alphaj            :                2.0000

  Z AO/shell   Hii/eV     exponent
  1     Wed Apr 25 08:07:45 CEST 2018   EN: 2.200 GM2: 0.406  GM3: 0.0800  RAES: 1.40
     1s    -10.707211    1.230000
  6     Wed Apr 25 08:07:45 CEST 2018   EN: 2.550 GM2: 0.538  GM3: 0.1500  RAES: 3.00
     2s    -13.970922    2.096432
     2p    -10.063292    1.800000
  9     Mon Apr 23 13:58:50 CEST 2018   EN: 3.980 GM2: 0.532  GM3: 0.1426  RAES: 2.40
     2s    -23.458179    2.416361
     2p    -15.746583    2.308399
 17     Mon Apr 23 14:09:22 CEST 2018   EN: 3.160 GM2: 0.249  GM3: 0.1495  RAES: 2.50
     3s    -29.278781    2.485265
     3p    -12.673758    2.199650
     3d     -0.240338    2.476089

 Solvent             : Water
 Using internal parameter file: .param_gbsa2_Water
 Gsolv ref. state (COSMO-RS): gsolv [1 M gas/solution]
 temperature (mdtemp)       :    298.150000000000     
 dielectric constant        :    80.2000000000000     
 rho                        :    1.00000000000000     
 mass                       :    18.0000000000000     
 surface tension            :    15.5689454083859     
 probe radius               :   0.975313790000000     
 Gshift (Eh)                :   1.857443126794793E-003
 c1                         :    1.55243817000000     
 soset                      :   0.130326360000000     
 HB correction              :  T
           ------------------------------------------------- 
          |        Self-Consistent Charge Iterations        |
           ------------------------------------------------- 

          ...................................................
          :                      SETUP                      :
          :.................................................:
          :  # basis functions                  21          :
          :  # atomic orbitals                  20          :
          :  # shells                           10          :
          :  # electrons                        22          :
          :  max. iterations                   250          :
          :  Hamiltonian                  GFN2-xTB          :
          :  restarted?                      false          :
          :  GBSA solvation                   true          :
          :  PC potential                    false          :
          :  electronic temp.          300.0000000     K    :
          :  accuracy                    1.0000000          :
          :  -> integral cutoff          0.2500000E+02      :
          :  -> integral neglect         0.1000000E-07      :
          :  -> SCF convergence          0.1000000E-05 Eh   :
          :  -> wf. convergence          0.1000000E-03 e    :
          :  Broyden damping             0.4000000          :
          ...................................................

 iter      E             dE          RMSdq      gap      omega  full diag
   1    -13.2705093 -0.132705E+02  0.545E+00    7.84       0.0  T
   2    -13.3253076 -0.547983E-01  0.318E+00    5.78       1.0  T
   3    -13.3260956 -0.788044E-03  0.171E+00    5.37       1.0  T
   4    -13.3265052 -0.409513E-03  0.340E-01    4.79       1.0  T
   5    -13.3267081 -0.202975E-03  0.200E-01    4.77       1.0  T
   6    -13.3268218 -0.113678E-03  0.143E-01    4.68       1.0  T
   7    -13.3268733 -0.514718E-04  0.884E-03    4.65       4.6  T
   8    -13.3268733 -0.859897E-08  0.906E-03    4.65       4.5  T
   9    -13.3268734 -0.162173E-06  0.536E-04    4.65      76.2  T
  10    -13.3268735 -0.570758E-09  0.214E-04    4.65     191.0  T

   *** convergence criteria satisfied after 10 iterations ***

         #    Occupation            Energy/Eh            Energy/eV
      -------------------------------------------------------------
         1        2.0000           -1.0581671             -28.7942
       ...           ...                  ...                  ...
         5        2.0000           -0.5106239             -13.8948
         6        2.0000           -0.5035158             -13.7014
         7        2.0000           -0.4205481             -11.4437
         8        2.0000           -0.4196697             -11.4198
         9        2.0000           -0.3381379              -9.2012
        10        2.0000           -0.3377284              -9.1901
        11        2.0000           -0.3377241              -9.1899 (HOMO)
        12                         -0.1668265              -4.5396 (LUMO)
        13                          0.0153604               0.4180
        14                          0.0154789               0.4212
        15                          0.0215547               0.5865
        16                          0.0216603               0.5894
       ...                                ...                  ...
        20                          0.1891814               5.1479
      -------------------------------------------------------------
                  HL-Gap            0.1708976 Eh            4.6504 eV
             Fermi-level           -0.2522753 Eh           -6.8648 eV

 SCC (total)                   0 d,  0 h,  0 min,  0.005 sec
 SCC setup                      ...        0 min,  0.000 sec (  7.353%)
 Dispersion                     ...        0 min,  0.000 sec (  0.742%)
 integral evaluation            ...        0 min,  0.001 sec ( 11.028%)
 zeroth order Hamiltonian       ...        0 min,  0.000 sec (  0.742%)
 iterations                     ...        0 min,  0.003 sec ( 60.795%)
 molecular gradient             ...        0 min,  0.001 sec ( 14.818%)
 printout                       ...        0 min,  0.000 sec (  2.559%)

         :::::::::::::::::::::::::::::::::::::::::::::::::::::
         ::                     SUMMARY                     ::
         :::::::::::::::::::::::::::::::::::::::::::::::::::::
         :: total energy             -13.272990293570 Eh    ::
         :: total w/o Gsasa/hb       -13.270530698339 Eh    ::
         :: gradient norm              0.025237632662 Eh/a0 ::
         :: HOMO-LUMO gap              4.650361248092 eV    ::
         ::.................................................::
         :: SCC energy               -13.323943503842 Eh    ::
         :: -> isotropic ES            0.280913489110 Eh    ::
         :: -> anisotropic ES         -0.002212418525 Eh    ::
         :: -> anisotropic XC         -0.000089614228 Eh    ::
         :: -> dispersion             -0.001822938796 Eh    ::
         :: -> Gsolv                  -0.140525696472 Eh    ::
         ::    -> Gborn               -0.138066101241 Eh    ::
         ::    -> Gsasa                0.001072503535 Eh    ::
         ::    -> Ghb                 -0.005389541893 Eh    ::
         ::    -> Gshift               0.001857443127 Eh    ::
         :: repulsion energy           0.050954011157 Eh    ::
         :: add. restraining           0.000000110550 Eh    ::
         :::::::::::::::::::::::::::::::::::::::::::::::::::::

      ----------------------------------------------------------- 
     |                   =====================                   |
     |                        A N C O P T                        |
     |                   =====================                   |
     |               Approximate Normal Coordinate               |
     |                Rational Function Optimizer                |
      ----------------------------------------------------------- 

          ...................................................
          :                      SETUP                      :
          :.................................................:
          :   optimization level            normal          :
          :   max. optcycles                   200          :
          :   ANC micro-cycles                  20          :
          :   degrees of freedom                12          :
          :.................................................:
          :   RF solver                   davidson          :
          :   write xtbopt.log                true          :
          :   linear?                        false          :
          :   energy convergence         0.5000000E-05 Eh   :
          :   grad. convergence          0.1000000E-02 Eh/α :
          :   maximium RF displ.         1.0000000          :
          :   Hlow (freq-cutoff)         0.1000000E-01      :
          :   Hmax (freq-cutoff)         5.0000000          :
          :   S6 in model hess.         20.0000000          :
          ...................................................

generating ANC from model Hessian ...
Using Lindh-Hessian (1995)
 Shifting diagonal of input Hessian by   8.949748749168500E-003
 Lowest  eigenvalues of input Hessian
   -0.000000   -0.000000   -0.000000    0.000000    0.000000    0.000000
    0.010000    0.010024    0.080677    0.081898    0.112572    0.114649
    0.126941    0.473303    1.034745    1.060286   40.230212  120.908062
 Highest eigenvalues
    0.126941    0.473303    1.034745    1.060286   40.230212  120.908062
 

........................................................................
.............................. CYCLE    1 ..............................
........................................................................
   1    -13.3268735 -0.133269E+02  0.756E-05    4.65       0.0  T
   2    -13.3268735 -0.593303E-11  0.473E-05    4.65     863.3  T
   3    -13.3268735 -0.165024E-11  0.356E-05    4.65    1145.2  T
     SCC iter.                  ...        0 min,  0.000 sec
     gradient                   ...        0 min,  0.001 sec
 * total energy  :   -13.2729903 Eh     change        0.8159272E-08 Eh
   gradient norm :     0.0252377 Eh/α   predicted     0.0000000E+00 (-100.00%)
   displ. norm   :     0.0958660 α      lambda       -0.1664975E-02
   maximum displ.:     0.0497998 α      in ANC's #7, #5, #8, ...

........................................................................
.............................. CYCLE    2 ..............................
........................................................................
   1    -13.3320790 -0.133321E+02  0.198E-01    4.67       0.0  T
   2    -13.3320803 -0.125303E-05  0.118E-01    4.67       1.0  T
   3    -13.3320810 -0.765090E-06  0.123E-02    4.68       3.3  T
   4    -13.3320812 -0.118463E-06  0.861E-03    4.68       4.7  T
   5    -13.3320813 -0.118867E-06  0.557E-03    4.68       7.3  T
   6    -13.3320814 -0.966045E-07  0.981E-04    4.67      41.6  T
     SCC iter.                  ...        0 min,  0.001 sec
     gradient                   ...        0 min,  0.000 sec
 * total energy  :   -13.2737969 Eh     change       -0.8066376E-03 Eh
   gradient norm :     0.1993422 Eh/α   predicted    -0.8401378E-03 (   4.15%)
   displ. norm   :     0.3634796 α      lambda       -0.6470935E-02
   maximum displ.:     0.1947686 α      in ANC's #7, #5, #8, ...

........................................................................
.............................. CYCLE    3 ..............................
........................................................................
   1    -13.3392315 -0.133392E+02  0.758E-01    4.78       0.0  T
   2    -13.3392498 -0.182974E-04  0.455E-01    4.80       1.0  T
   3    -13.3392680 -0.181491E-04  0.612E-02    4.81       1.0  T
   4    -13.3392744 -0.637972E-05  0.394E-02    4.80       1.0  T
   5    -13.3392782 -0.379038E-05  0.247E-02    4.79       1.7  T
   6    -13.3392799 -0.177046E-05  0.475E-03    4.79       8.6  T
   7    -13.3392800 -0.285883E-07  0.371E-03    4.78      11.0  T
     SCC iter.                  ...        0 min,  0.001 sec
     gradient                   ...        0 min,  0.000 sec
 * total energy  :   -13.2374566 Eh     change        0.3634036E-01 Eh
   gradient norm :     2.5845948 Eh/α   predicted    -0.3662931E-02 (-110.08%)
   displ. norm   :     0.1872731 α      lambda       -0.6517090E-01
   maximum displ.:     0.1082277 α      in ANC's #8, #7, #5, ...

........................................................................
.............................. CYCLE    4 ..............................
........................................................................
   1    -13.3351946 -0.133352E+02  0.329E-01    4.63       0.0  T
   2    -13.3352011 -0.649714E-05  0.202E-01    4.62       1.0  T
   3    -13.3352096 -0.845365E-05  0.430E-02    4.62       1.0  T
   4    -13.3352124 -0.276078E-05  0.324E-02    4.63       1.3  T
   5    -13.3352157 -0.331777E-05  0.171E-02    4.64       2.4  T
   6    -13.3352165 -0.837650E-06  0.237E-03    4.64      17.3  T
   7    -13.3352165 -0.554804E-08  0.178E-03    4.64      22.9  T
     SCC iter.                  ...        0 min,  0.001 sec
     gradient                   ...        0 min,  0.001 sec
 * total energy  :   -13.2696716 Eh     change       -0.3221504E-01 Eh
   gradient norm :     0.4865278 Eh/α   predicted    -0.3372826E-01 (   4.70%)
   displ. norm   :     0.5056410 α      lambda       -0.5831809E-01
   maximum displ.:     0.2214989 α      in ANC's #2, #5, #4, ...

........................................................................
.............................. CYCLE    5 ..............................
........................................................................
   1    -13.3155146 -0.133155E+02  0.133E+00    4.82       0.0  T
   2    -13.3155670 -0.524151E-04  0.778E-01    4.77       1.0  T
   3    -13.3155919 -0.249179E-04  0.768E-02    4.73       1.0  T
   4    -13.3155960 -0.406920E-05  0.556E-02    4.73       1.0  T
   5    -13.3156005 -0.452137E-05  0.289E-02    4.73       1.4  T
   6    -13.3156024 -0.182544E-05  0.464E-03    4.72       8.8  T
   7    -13.3156024 -0.248309E-07  0.272E-03    4.72      15.0  T
     SCC iter.                  ...        0 min,  0.001 sec
     gradient                   ...        0 min,  0.000 sec
 * total energy  :   -13.1732879 Eh     change        0.9638374E-01 Eh
   gradient norm :     3.0779202 Eh/α   predicted    -0.3661421E-01 (-137.99%)
   displ. norm   :     0.2308591 α      lambda       -0.1696049E+00
   maximum displ.:     0.1665456 α      in ANC's #2, #1, #4, ...

........................................................................
.............................. CYCLE    6 ..............................
........................................................................
   1    -13.3130235 -0.133130E+02  0.660E-01    4.27       0.0  T
   2    -13.3130578 -0.342778E-04  0.395E-01    4.31       1.0  T
   3    -13.3130788 -0.210096E-04  0.808E-02    4.33       1.0  T
   4    -13.3130858 -0.695329E-05  0.643E-02    4.34       1.0  T
   5    -13.3130990 -0.131805E-04  0.239E-02    4.35       1.7  T
   6    -13.3131005 -0.150448E-05  0.534E-03    4.36       7.6  T
   7    -13.3131005 -0.385150E-07  0.411E-03    4.36       9.9  T
     SCC iter.                  ...        0 min,  0.001 sec
     gradient                   ...        0 min,  0.000 sec
 * total energy  :   -13.2276725 Eh     change       -0.5438461E-01 Eh
   gradient norm :     2.8913504 Eh/α   predicted    -0.8932207E-01 (  64.24%)
   displ. norm   :     0.7763118 α      lambda       -0.2886323E+00
   maximum displ.:     0.4172591 α      in ANC's #4, #2, #3, ...

........................................................................
.............................. CYCLE    7 ..............................
........................................................................
   1    -13.3339832 -0.133340E+02  0.237E+00    4.41       0.0  T
   2    -13.3340961 -0.112851E-03  0.139E+00    4.43       1.0  T
   3    -13.3341653 -0.692200E-04  0.107E-01    4.45       1.0  T
   4    -13.3341741 -0.881422E-05  0.570E-02    4.45       1.0  T
   5    -13.3341782 -0.404586E-05  0.397E-02    4.45       1.0  T
   6    -13.3341814 -0.323247E-05  0.519E-03    4.45       7.9  T
   7    -13.3341814 -0.347071E-07  0.200E-03    4.45      20.4  T
     SCC iter.                  ...        0 min,  0.001 sec
     gradient                   ...        0 min,  0.000 sec
 * total energy  :   -13.0227501 Eh     change        0.2049224E+00 Eh
   gradient norm :     5.2397417 Eh/α   predicted    -0.2312898E+00 (-212.87%)
   displ. norm   :     0.3383796 α      lambda       -0.5747856E+00
   maximum displ.:     0.1978850 α      in ANC's #2, #4, #1, ...

........................................................................
.............................. CYCLE    8 ..............................
........................................................................
   1    -13.3371311 -0.133371E+02  0.112E+00    4.90       0.0  T
   2    -13.3372014 -0.702694E-04  0.663E-01    4.86       1.0  T
   3    -13.3372346 -0.331956E-04  0.863E-02    4.84       1.0  T
   4    -13.3372406 -0.598829E-05  0.670E-02    4.84       1.0  T
   5    -13.3372502 -0.960809E-05  0.374E-02    4.83       1.1  T
   6    -13.3372549 -0.475576E-05  0.618E-03    4.81       6.6  T
   7    -13.3372550 -0.486116E-07  0.432E-03    4.81       9.5  T
   8    -13.3372550 -0.358382E-07  0.197E-03    4.81      20.8  T
     SCC iter.                  ...        0 min,  0.001 sec
     gradient                   ...        0 min,  0.000 sec
 * total energy  :   -13.2573688 Eh     change       -0.2346187E+00 Eh
   gradient norm :     1.7616619 Eh/α   predicted    -0.3202994E+00 (  36.52%)
   displ. norm   :     0.4073005 α      lambda       -0.6294259E-01
   maximum displ.:     0.3071252 α      in ANC's #2, #1, #7, ...

........................................................................
.............................. CYCLE    9 ..............................
........................................................................
   1    -13.3382869 -0.133383E+02  0.356E-01    4.53       0.0  T
   2    -13.3383091 -0.221701E-04  0.217E-01    4.54       1.0  T
   3    -13.3383202 -0.111648E-04  0.516E-02    4.58       1.0  T
   4    -13.3383219 -0.163479E-05  0.368E-02    4.58       1.1  T
   5    -13.3383239 -0.204608E-05  0.187E-02    4.58       2.2  T
   6    -13.3383250 -0.114750E-05  0.394E-03    4.59      10.3  T
   7    -13.3383251 -0.196291E-07  0.256E-03    4.59      15.9  T
     SCC iter.                  ...        0 min,  0.001 sec
     gradient                   ...        0 min,  0.000 sec
 * total energy  :   -13.2407614 Eh     change        0.1660743E-01 Eh
   gradient norm :     2.4861066 Eh/α   predicted    -0.3669203E-01 (-320.94%)
   displ. norm   :     0.2074510 α      lambda       -0.6223490E-01
   maximum displ.:     0.1353677 α      in ANC's #2, #9, #8, ...

........................................................................
.............................. CYCLE   10 ..............................
........................................................................
   1    -13.3326295 -0.133326E+02  0.289E-01    4.74       0.0  T
   2    -13.3326443 -0.148046E-04  0.176E-01    4.72       1.0  T
   3    -13.3326520 -0.777503E-05  0.420E-02    4.69       1.0  T
   4    -13.3326527 -0.655277E-06  0.225E-02    4.69       1.8  T
   5    -13.3326532 -0.464868E-06  0.116E-02    4.69       3.5  T
   6    -13.3326535 -0.360642E-06  0.289E-03    4.69      14.1  T
   7    -13.3326535 -0.124106E-07  0.150E-03    4.69      27.2  T
     SCC iter.                  ...        0 min,  0.001 sec
     gradient                   ...        0 min,  0.001 sec
 * total energy  :   -13.2735488 Eh     change       -0.3278741E-01 Eh
   gradient norm :     0.1646682 Eh/α   predicted    -0.3245653E-01 (  -1.01%)
   displ. norm   :     0.1330246 α      lambda       -0.1171178E-02
   maximum displ.:     0.0911522 α      in ANC's #2, #1, #7, ...

........................................................................
.............................. CYCLE   11 ..............................
........................................................................
   1    -13.3335883 -0.133336E+02  0.155E-01    4.68       0.0  T
   2    -13.3335909 -0.255898E-05  0.925E-02    4.68       1.0  T
   3    -13.3335916 -0.762474E-06  0.142E-02    4.68       2.9  T
   4    -13.3335917 -0.105420E-06  0.868E-03    4.68       4.7  T
   5    -13.3335918 -0.763856E-07  0.409E-03    4.68      10.0  T
   6    -13.3335919 -0.588302E-07  0.891E-04    4.68      45.8  T
     SCC iter.                  ...        0 min,  0.001 sec
     gradient                   ...        0 min,  0.000 sec
 * total energy  :   -13.2740175 Eh     change       -0.4686851E-03 Eh
   gradient norm :     0.0328669 Eh/α   predicted    -0.5959496E-03 (  27.15%)
   displ. norm   :     0.0370290 α      lambda       -0.8012029E-04
   maximum displ.:     0.0224848 α      in ANC's #2, #1, #3, ...

........................................................................
.............................. CYCLE   12 ..............................
........................................................................
   1    -13.3341978 -0.133342E+02  0.366E-02    4.69       0.0  T
   2    -13.3341979 -0.100260E-06  0.215E-02    4.69       1.9  T
   3    -13.3341980 -0.491447E-07  0.310E-03    4.69      13.2  T
   4    -13.3341980 -0.305360E-08  0.173E-03    4.69      23.6  T
     SCC iter.                  ...        0 min,  0.001 sec
     gradient                   ...        0 min,  0.000 sec
 * total energy  :   -13.2740512 Eh     change       -0.3369630E-04 Eh
   gradient norm :     0.0156165 Eh/α   predicted    -0.4011378E-04 (  19.05%)
   displ. norm   :     0.0026567 α      lambda       -0.3844310E-05
   maximum displ.:     0.0015818 α      in ANC's #7, #8, #1, ...

........................................................................
.............................. CYCLE   13 ..............................
........................................................................
   1    -13.3339907 -0.133340E+02  0.396E-03    4.69       0.0  T
   2    -13.3339907 -0.705637E-08  0.222E-03    4.69      18.4  T
   3    -13.3339907 -0.520451E-09  0.896E-04    4.69      45.5  T
     SCC iter.                  ...        0 min,  0.000 sec
     gradient                   ...        0 min,  0.000 sec
 * total energy  :   -13.2740531 Eh     change       -0.1894965E-05 Eh
   gradient norm :     0.0018821 Eh/α   predicted    -0.1923056E-05 (   1.48%)
   displ. norm   :     0.0011797 α      lambda       -0.9395416E-07
   maximum displ.:     0.0006994 α      in ANC's #1, #2, #4, ...

........................................................................
.............................. CYCLE   14 ..............................
........................................................................
   1    -13.3339995 -0.133340E+02  0.216E-03    4.69       0.0  T
   2    -13.3339995 -0.902762E-10  0.127E-03    4.69      32.1  T
   3    -13.3339995 -0.640981E-10  0.118E-04    4.69     346.9  T
   4    -13.3339995 -0.114060E-10  0.974E-05    4.69     419.3  T
     SCC iter.                  ...        0 min,  0.000 sec
     gradient                   ...        0 min,  0.001 sec
 * total energy  :   -13.2740531 Eh     change       -0.7610377E-07 Eh
   gradient norm :     0.0005208 Eh/α   predicted    -0.4832489E-07 ( -36.50%)
   displ. norm   :     0.0009319 α      lambda       -0.1116206E-07
   maximum displ.:     0.0006697 α      in ANC's #2, #1, #3, ...

   *** GEOMETRY OPTIMIZATION CONVERGED AFTER 14 ITERATIONS ***

------------------------------------------------------------------------
 total energy gain   :        -0.0010628 Eh       -0.6669 kcal/mol
 total RMSD          :         0.0674481 a0        0.0357 Å
 total power (kW/mol):        -0.1993203 (step)  -96.4367 (real)
------------------------------------------------------------------------

 ANCopt (total)                0 d,  0 h,  0 min,  0.029 sec
 optimizer setup                ...        0 min,  0.000 sec (  0.418%)
 model hessian                  ...        0 min,  0.000 sec (  1.046%)
 ANC generation                 ...        0 min,  0.000 sec (  0.469%)
 coordinate transformation      ...        0 min,  0.000 sec (  0.651%)
 single point calculation       ...        0 min,  0.026 sec ( 88.732%)
 optimization log               ...        0 min,  0.001 sec (  2.095%)
 hessian update                 ...        0 min,  0.000 sec (  0.619%)
 rational function              ...        0 min,  0.001 sec (  2.454%)

================
 final structure:
================
6
 xtb: 6.2.3 (830e466)
F        -3.57477732451871   -0.07864514812715    0.06268169381368
Cl        1.62676554953773    0.02761405304534   -0.01591786501597
C        -0.14057231776108    0.00330609283863   -0.00257816095529
H        -0.48683263295958   -0.61133152172843   -0.82650221813774
H        -0.47676175198483   -0.41235640763178    0.94117576197818
H        -0.50350152231368    1.01931293160344   -0.11459921168263
 
 Bond Distances (Angstroems)
 ---------------------------
Cl2-C3=1.7676        C3-Cl2=1.7676        C3-H4=1.0847         C3-H5=1.0847         C3-H6=1.0847         H4-C3=1.0847         
H5-C3=1.0847         H6-C3=1.0847         
 C  H  Rav=1.0847 sigma=0.0000  Rmin=1.0847  Rmax=1.0847     3
 Cl C  Rav=1.7676 sigma=0.0000  Rmin=1.7676  Rmax=1.7676     1
 
 selected bond angles (degree)
 --------------------
H4-C3-Cl2=108.74               H5-C3-Cl2=108.77               H5-C3-H4=110.17                H6-C3-Cl2=108.72               
H6-C3-H4=110.21                H6-C3-H5=110.19                
 
 selected dihedral angles (degree)
 ---------------------------------

 
 CMA Distance (Angstroems)
 ---------------------------
R(CMA):  4.6560
           -------------------------------------------------
          |                Final Singlepoint                |
           -------------------------------------------------

          ...................................................
          :                      SETUP                      :
          :.................................................:
          :  # basis functions                  21          :
          :  # atomic orbitals                  20          :
          :  # shells                           10          :
          :  # electrons                        22          :
          :  max. iterations                   250          :
          :  Hamiltonian                  GFN2-xTB          :
          :  restarted?                      false          :
          :  GBSA solvation                   true          :
          :  PC potential                    false          :
          :  electronic temp.          300.0000000     K    :
          :  accuracy                    1.0000000          :
          :  -> integral cutoff          0.2500000E+02      :
          :  -> integral neglect         0.1000000E-07      :
          :  -> SCF convergence          0.1000000E-05 Eh   :
          :  -> wf. convergence          0.1000000E-03 e    :
          :  Broyden damping             0.4000000          :
          ...................................................

 iter      E             dE          RMSdq      gap      omega  full diag
   1    -13.3339995 -0.133340E+02  0.691E-05    4.69       0.0  T
   2    -13.3339995 -0.354028E-11  0.578E-05    4.69     706.6  T
   3    -13.3339995 -0.929390E-11  0.226E-05    4.69    1804.8  T

   *** convergence criteria satisfied after 3 iterations ***

         #    Occupation            Energy/Eh            Energy/eV
      -------------------------------------------------------------
         1        2.0000           -1.0587307             -28.8095
       ...           ...                  ...                  ...
         5        2.0000           -0.5147090             -14.0059
         6        2.0000           -0.5024327             -13.6719
         7        2.0000           -0.4203292             -11.4377
         8        2.0000           -0.4203252             -11.4376
         9        2.0000           -0.3380776              -9.1996
        10        2.0000           -0.3376665              -9.1884
        11        2.0000           -0.3376658              -9.1884 (HOMO)
        12                         -0.1654077              -4.5010 (LUMO)
        13                          0.0171597               0.4669
        14                          0.0171939               0.4679
        15                          0.0216098               0.5880
        16                          0.0216339               0.5887
       ...                                ...                  ...
        20                          0.2110102               5.7419
      -------------------------------------------------------------
                  HL-Gap            0.1722581 Eh            4.6874 eV
             Fermi-level           -0.2515368 Eh           -6.8447 eV

 SCC (total)                   0 d,  0 h,  0 min,  0.002 sec
 SCC setup                      ...        0 min,  0.000 sec (  8.571%)
 Dispersion                     ...        0 min,  0.000 sec (  0.657%)
 integral evaluation            ...        0 min,  0.000 sec ( 22.357%)
 zeroth order Hamiltonian       ...        0 min,  0.000 sec (  1.086%)
 iterations                     ...        0 min,  0.000 sec ( 24.800%)
 molecular gradient             ...        0 min,  0.001 sec ( 32.600%)
 printout                       ...        0 min,  0.000 sec (  5.871%)

         :::::::::::::::::::::::::::::::::::::::::::::::::::::
         ::                     SUMMARY                     ::
         :::::::::::::::::::::::::::::::::::::::::::::::::::::
         :: total energy             -13.274053130481 Eh    ::
         :: total w/o Gsasa/hb       -13.271540490217 Eh    ::
         :: gradient norm              0.000519993283 Eh/a0 ::
         :: HOMO-LUMO gap              4.687381312133 eV    ::
         ::.................................................::
         :: SCC energy               -13.331049029855 Eh    ::
         :: -> isotropic ES            0.281162358797 Eh    ::
         :: -> anisotropic ES         -0.002297909926 Eh    ::
         :: -> anisotropic XC         -0.000646682933 Eh    ::
         :: -> dispersion             -0.001810967360 Eh    ::
         :: -> Gsolv                  -0.140591264918 Eh    ::
         ::    -> Gborn               -0.138078624653 Eh    ::
         ::    -> Gsasa                0.001093044209 Eh    ::
         ::    -> Ghb                 -0.005463127601 Eh    ::
         ::    -> Gshift               0.001857443127 Eh    ::
         :: repulsion energy           0.056996646571 Eh    ::
         :: add. restraining           0.000000142753 Eh    ::
         :::::::::::::::::::::::::::::::::::::::::::::::::::::

           -------------------------------------------------
          |                Property Printout                |
           -------------------------------------------------

    * Orbital Energies and Occupations

         #    Occupation            Energy/Eh            Energy/eV
      -------------------------------------------------------------
         1        2.0000           -1.0587307             -28.8095
         2        2.0000           -0.6140884             -16.7102
         3        2.0000           -0.5942862             -16.1714
         4        2.0000           -0.5147560             -14.0072
         5        2.0000           -0.5147090             -14.0059
         6        2.0000           -0.5024327             -13.6719
         7        2.0000           -0.4203292             -11.4377
         8        2.0000           -0.4203252             -11.4376
         9        2.0000           -0.3380776              -9.1996
        10        2.0000           -0.3376665              -9.1884
        11        2.0000           -0.3376658              -9.1884 (HOMO)
        12                         -0.1654077              -4.5010 (LUMO)
        13                          0.0171597               0.4669
        14                          0.0171939               0.4679
        15                          0.0216098               0.5880
        16                          0.0216339               0.5887
        17                          0.1332849               3.6269
        18                          0.1673955               4.5551
        19                          0.2109208               5.7394
        20                          0.2110102               5.7419
      -------------------------------------------------------------
                  HL-Gap            0.1722581 Eh            4.6874 eV
             Fermi-level           -0.2515368 Eh           -6.8447 eV

     #   Z        covCN         q      C6AA      α(0)
     1   9 F      0.000    -1.000    24.532     5.769
     2  17 Cl     0.889    -0.204   105.549    15.717
     3   6 C      3.664    -0.006    20.949     6.565
     4   1 H      0.925     0.070     2.087     2.259
     5   1 H      0.925     0.070     2.090     2.261
     6   1 H      0.925     0.070     2.085     2.258

 Mol. C6AA /au·bohr⁶  :        575.393885
 Mol. C8AA /au·bohr⁸  :      15846.753965
 Mol. α(0) /au        :         34.829162


Wiberg/Mayer (AO) data.
largest (>0.10) Wiberg bond orders for each atom
          total WBO             WBO to atom ...
     1  F   0.000
     2  Cl  0.988        C    3 0.966
     3  C   3.930        H    5 0.988    H    4 0.988    H    6 0.988    Cl   2 0.966
     4  H   0.995        C    3 0.988
     5  H   0.995        C    3 0.988
     6  H   0.995        C    3 0.988

molecular dipole:
                 x           y           z       tot (Debye)
 q only:        5.935       0.138      -0.113
   full:        5.509       0.130      -0.107      14.010
molecular quadrupole (traceless):
                xx          xy          yy          xz          yz          zz
 q only:      -47.752      -1.563      23.871       1.233       0.028      23.881
  q+dip:      -51.139      -1.646      25.564       1.284       0.028      25.575
   full:      -50.039      -1.623      25.014       1.272       0.028      25.025

           -------------------------------------------------
          |                Geometry Summary                 |
           -------------------------------------------------

      molecular mass/u    :       69.4858989
   center of mass at/Å    :       -0.1929682      -0.0069055       0.0085719
  moments of inertia/u·Å² :        0.3194205E+01   0.3367872E+03   0.3367907E+03
rotational constants/cm⁻¹ :        0.5277568E+01   0.5005426E-01   0.5005374E-01

 * 4 selected distances

     #   Z        #   Z                                     value/Å
     2  17 Cl     3   6 C                                 1.7675554 (max)
     3   6 C      4   1 H                                 1.0846780
     3   6 C      5   1 H                                 1.0846521 (min)
     3   6 C      6   1 H                                 1.0846825

 * 2 distinct bonds (by element types)

   Z      Z             #   av. dist./Å        max./Å        min./Å
   1 H    6 C           3     1.0846709     1.0846825     1.0846521
   6 C   17 Cl          1     1.7675554     1.7675554     1.7675554


optimized geometry written to: xtbopt.xyz


           -------------------------------------------------
          | TOTAL ENERGY              -13.274053130481 Eh   |
          | GRADIENT NORM               0.000519993283 Eh/α |
          | HOMO-LUMO GAP               4.687381312133 eV   |
           -------------------------------------------------

------------------------------------------------------------------------
 * finished run on 2020/08/20 at 17:46:27.300     
------------------------------------------------------------------------
 total:
 * wall-time:     0 d,  0 h,  0 min,  0.207 sec
 *  cpu-time:     0 d,  0 h,  0 min,  0.624 sec
 * ratio c/w:     3.011 speedup
 SCF:
 * wall-time:     0 d,  0 h,  0 min,  0.005 sec
 *  cpu-time:     0 d,  0 h,  0 min,  0.020 sec
 * ratio c/w:     3.980 speedup
 ANC optimizer:
 * wall-time:     0 d,  0 h,  0 min,  0.031 sec
 *  cpu-time:     0 d,  0 h,  0 min,  0.126 sec
 * ratio c/w:     3.989 speedup

