      -----------------------------------------------------------      
     |                   =====================                   |     
     |                           x T B                           |     
     |                   =====================                   |     
     |                         S. Grimme                         |     
     |          Mulliken Center for Theoretical Chemistry        |     
     |                    University of Bonn                     |     
      -----------------------------------------------------------      

   * xtb version 6.2.3 (830e466) compiled by 'ehlert@majestix' on 2020-03-16

   xtb is free software: you can redistribute it and/or modify it under
   the terms of the GNU Lesser General Public License as published by
   the Free Software Foundation, either version 3 of the License, or
   (at your option) any later version.
   
   xtb is distributed in the hope that it will be useful,
   but WITHOUT ANY WARRANTY; without even the implied warranty of
   MERCHANTABILITY or FITNESS FOR A PARTICULAR PURPOSE.  See the
   GNU Lesser General Public License for more details.
   
   Cite this work as:
   * S. Grimme, C. Bannwarth, P. Shushkov, J. Chem. Theory Comput., 2017,
     13, 1989-2009. DOI: 10.1021/acs.jctc.7b00118
   * C. Bannwarth, S. Ehlert and S. Grimme., J. Chem. Theory Comput., 2019,
     15, 1652-1671. DOI: 10.1021/acs.jctc.8b01176
   * P. Pracht, E. Caldeweyher, S. Ehlert, S. Grimme, ChemRxiv, 2019, preprint.
     DOI: 10.26434/chemrxiv.8326202.v1
   
   for DFT-D4:
   * E. Caldeweyher, C. Bannwarth and S. Grimme, J. Chem. Phys., 2017,
     147, 034112. DOI: 10.1063/1.4993215
   * E. Caldeweyher, S. Ehlert, A. Hansen, H. Neugebauer, S. Spicher,
     C. Bannwarth and S. Grimme, J. Chem. Phys., 2019, 150, 154122.
     DOI: 10.1063/1.5090222
   
   for sTDA-xTB:
   * S. Grimme and C. Bannwarth, J. Chem. Phys., 2016, 145, 054103.
     DOI: 10.1063/1.4959605
   
   in the mass-spec context:
   * V. Asgeirsson, C. Bauer and S. Grimme, Chem. Sci., 2017, 8, 4879.
     DOI: 10.1039/c7sc00601b
   
   for metadynamics refer to:
   * S. Grimme, J. Chem. Theory Comput., 2019, 155, 2847-2862
     DOI: 10.1021/acs.jctc.9b00143
   
   with help from (in alphabetical order)
   C. Bannwarth, F. Bohle, G. Brandenburg, E. Caldeweyher, M. Checinski,
   S. Dohm, S. Ehlert, S. Ehrlich, F. März, H. Neugebauer, J. Pisarek,
   P. Pracht, P. Shushkov, and S. Spicher.
   
 * started run on 2020/08/20 at 17:46:28.657     

           -------------------------------------------------
          |                Calculation Setup                |
           -------------------------------------------------

          program call               : /u/fd/ball4935/opt/bin/xtb 3ixBtq_reactant_constrained_opt13_xtb.xyz --chrg -1 --opt --gbsa Water --input xcontrol_3ixBtq_reactant_constrained_opt13_xtb
          hostname                   : comp0810
          coordinate file            : 3ixBtq_reactant_constrained_opt13_xtb.xyz
          omp threads                :                     4
          number of atoms            :                     6
          number of electrons        :                    22
          charge                     :                    -1
          spin                       :                   0.0
          first test random number   :      0.42797527526407

constraining bond 1 3 to    1.3317000 Å, actual value:    1.4928933 Å
constraining bond 2 3 to    4.2676000 Å, actual value:    4.0752998 Å

molecular fragmentation (1/2 indicates fragments):
121111
# atoms in fragment 1/2:     5     1
 fragment masses (1/2) :       34.03       35.45
CMA distance (Bohr)    :   9.227
constraining FC (au)   : 20.0000
########################################################################
[WARNING] Please study the warnings concerning your input carefully
-2- prog_main: XTBPATH is not set, using XTBHOME instead
-1- prog_main: XTBHOME is not set, using HOME instead
########################################################################
           ------------------------------------------------- 
          |                 G F N 2 - x T B                 |
          | Geometry, Frequencies, Noncovalent interactions |
          |            JCTC 2019 parametrisation            |
           ------------------------------------------------- 
             k(s)              :                1.8500
             k(p)              :                2.2300
             k(d)              :                2.2300
             k(f)              :                2.0000
             kEN (H0ij)        :               -2.0000
             D4 a1             :                0.5200
             D4 a2             :                5.0000
             D4 s6             :                1.0000
             D4 s8             :                2.7000
             D4 s9             :                5.0000
             alphaj            :                2.0000

  Z AO/shell   Hii/eV     exponent
  1     Wed Apr 25 08:07:45 CEST 2018   EN: 2.200 GM2: 0.406  GM3: 0.0800  RAES: 1.40
     1s    -10.707211    1.230000
  6     Wed Apr 25 08:07:45 CEST 2018   EN: 2.550 GM2: 0.538  GM3: 0.1500  RAES: 3.00
     2s    -13.970922    2.096432
     2p    -10.063292    1.800000
  9     Mon Apr 23 13:58:50 CEST 2018   EN: 3.980 GM2: 0.532  GM3: 0.1426  RAES: 2.40
     2s    -23.458179    2.416361
     2p    -15.746583    2.308399
 17     Mon Apr 23 14:09:22 CEST 2018   EN: 3.160 GM2: 0.249  GM3: 0.1495  RAES: 2.50
     3s    -29.278781    2.485265
     3p    -12.673758    2.199650
     3d     -0.240338    2.476089

 Solvent             : Water
 Using internal parameter file: .param_gbsa2_Water
 Gsolv ref. state (COSMO-RS): gsolv [1 M gas/solution]
 temperature (mdtemp)       :    298.150000000000     
 dielectric constant        :    80.2000000000000     
 rho                        :    1.00000000000000     
 mass                       :    18.0000000000000     
 surface tension            :    15.5689454083859     
 probe radius               :   0.975313790000000     
 Gshift (Eh)                :   1.857443126794793E-003
 c1                         :    1.55243817000000     
 soset                      :   0.130326360000000     
 HB correction              :  T
           ------------------------------------------------- 
          |        Self-Consistent Charge Iterations        |
           ------------------------------------------------- 

          ...................................................
          :                      SETUP                      :
          :.................................................:
          :  # basis functions                  21          :
          :  # atomic orbitals                  20          :
          :  # shells                           10          :
          :  # electrons                        22          :
          :  max. iterations                   250          :
          :  Hamiltonian                  GFN2-xTB          :
          :  restarted?                      false          :
          :  GBSA solvation                   true          :
          :  PC potential                    false          :
          :  electronic temp.          300.0000000     K    :
          :  accuracy                    1.0000000          :
          :  -> integral cutoff          0.2500000E+02      :
          :  -> integral neglect         0.1000000E-07      :
          :  -> SCF convergence          0.1000000E-05 Eh   :
          :  -> wf. convergence          0.1000000E-03 e    :
          :  Broyden damping             0.4000000          :
          ...................................................

 iter      E             dE          RMSdq      gap      omega  full diag
   1    -13.2786644 -0.132787E+02  0.577E+00   10.92       0.0  T
   2    -13.3437621 -0.650977E-01  0.273E+00    8.42       1.0  T
   3    -13.3446550 -0.892966E-03  0.153E+00    8.14       1.0  T
   4    -13.3448437 -0.188669E-03  0.187E-01    7.89       1.0  T
   5    -13.3448751 -0.313540E-04  0.773E-02    7.99       1.0  T
   6    -13.3448814 -0.633700E-05  0.508E-02    7.99       1.0  T
   7    -13.3448866 -0.522595E-05  0.150E-02    8.00       2.7  T
   8    -13.3448864  0.223383E-06  0.909E-03    7.99       4.5  T
   9    -13.3448867 -0.319586E-06  0.618E-04    8.00      66.1  T
  10    -13.3448867 -0.431085E-09  0.107E-04    8.00     382.6  T

   *** convergence criteria satisfied after 10 iterations ***

         #    Occupation            Energy/Eh            Energy/eV
      -------------------------------------------------------------
         1        2.0000           -0.9864334             -26.8422
       ...           ...                  ...                  ...
         5        2.0000           -0.5272597             -14.3475
         6        2.0000           -0.5272052             -14.3460
         7        2.0000           -0.4626424             -12.5891
         8        2.0000           -0.4626222             -12.5886
         9        2.0000           -0.3900505             -10.6138
        10        2.0000           -0.3893846             -10.5957
        11        2.0000           -0.3893842             -10.5957 (HOMO)
        12                         -0.0954887              -2.5984 (LUMO)
        13                          0.1306649               3.5556
        14                          0.1420490               3.8653
        15                          0.1420747               3.8661
        16                          0.1420753               3.8661
       ...                                ...                  ...
        20                          0.2169302               5.9030
      -------------------------------------------------------------
                  HL-Gap            0.2938955 Eh            7.9973 eV
             Fermi-level           -0.2424364 Eh           -6.5970 eV

 SCC (total)                   0 d,  0 h,  0 min,  0.004 sec
 SCC setup                      ...        0 min,  0.000 sec (  7.413%)
 Dispersion                     ...        0 min,  0.000 sec (  0.761%)
 integral evaluation            ...        0 min,  0.000 sec ( 11.138%)
 zeroth order Hamiltonian       ...        0 min,  0.000 sec (  0.761%)
 iterations                     ...        0 min,  0.003 sec ( 60.752%)
 molecular gradient             ...        0 min,  0.001 sec ( 14.326%)
 printout                       ...        0 min,  0.000 sec (  3.081%)

         :::::::::::::::::::::::::::::::::::::::::::::::::::::
         ::                     SUMMARY                     ::
         :::::::::::::::::::::::::::::::::::::::::::::::::::::
         :: total energy              -8.789372507604 Eh    ::
         :: total w/o Gsasa/hb        -8.788949429935 Eh    ::
         :: gradient norm             32.821296587995 Eh/a0 ::
         :: HOMO-LUMO gap              7.997304033951 eV    ::
         ::.................................................::
         :: SCC energy               -13.342811045155 Eh    ::
         :: -> isotropic ES            0.172982640370 Eh    ::
         :: -> anisotropic ES         -0.001028947632 Eh    ::
         :: -> anisotropic XC          0.000837199084 Eh    ::
         :: -> dispersion             -0.001345829823 Eh    ::
         :: -> Gsolv                  -0.104106541296 Eh    ::
         ::    -> Gborn               -0.103683463627 Eh    ::
         ::    -> Gsasa                0.000218225436 Eh    ::
         ::    -> Ghb                 -0.002498746232 Eh    ::
         ::    -> Gshift               0.001857443127 Eh    ::
         :: repulsion energy           0.056567546931 Eh    ::
         :: add. restraining           4.496871750255 Eh    ::
         :::::::::::::::::::::::::::::::::::::::::::::::::::::

      ----------------------------------------------------------- 
     |                   =====================                   |
     |                        A N C O P T                        |
     |                   =====================                   |
     |               Approximate Normal Coordinate               |
     |                Rational Function Optimizer                |
      ----------------------------------------------------------- 

          ...................................................
          :                      SETUP                      :
          :.................................................:
          :   optimization level            normal          :
          :   max. optcycles                   200          :
          :   ANC micro-cycles                  20          :
          :   degrees of freedom                12          :
          :.................................................:
          :   RF solver                   davidson          :
          :   write xtbopt.log                true          :
          :   linear?                        false          :
          :   energy convergence         0.5000000E-05 Eh   :
          :   grad. convergence          0.1000000E-02 Eh/α :
          :   maximium RF displ.         1.0000000          :
          :   Hlow (freq-cutoff)         0.1000000E-01      :
          :   Hmax (freq-cutoff)         5.0000000          :
          :   S6 in model hess.         20.0000000          :
          ...................................................

generating ANC from model Hessian ...
Using Lindh-Hessian (1995)
 Shifting diagonal of input Hessian by   0.230395613325088     
 Lowest  eigenvalues of input Hessian
    0.010000    0.010039   -0.000000   -0.000000    0.000000    0.000000
    0.000000    0.000000    0.335081    0.335206    0.347218    0.695678
    0.861163    0.861953    7.118732    7.119412   40.449133  121.064356
 Highest eigenvalues
    0.861163    0.861953    7.118732    7.119412   40.449133  121.064356
 

........................................................................
.............................. CYCLE    1 ..............................
........................................................................
   1    -13.3448867 -0.133449E+02  0.998E-06    8.00       0.0  T
   2    -13.3448867 -0.781597E-13  0.488E-06    8.00    8366.0  T
   3    -13.3448867 -0.124345E-13  0.237E-06    8.00   17245.6  T
     SCC iter.                  ...        0 min,  0.001 sec
     gradient                   ...        0 min,  0.000 sec
 * total energy  :    -8.7893725 Eh     change        0.4524047E-08 Eh
   gradient norm :    32.8212958 Eh/α   predicted     0.0000000E+00 (-100.00%)
   displ. norm   :     0.9267271 α      lambda       -0.3041638E+02
   maximum displ.:     0.9253566 α      in ANC's #9, #12, #6, ...

........................................................................
.............................. CYCLE    2 ..............................
........................................................................
   1    -13.1623351 -0.131623E+02  0.598E+00   11.14       0.0  T
   2    -13.2219540 -0.596189E-01  0.199E+00   10.50       1.0  T
   3    -13.2264097 -0.445567E-02  0.875E-01   10.42       1.0  T
   4    -13.2267184 -0.308732E-03  0.370E-01   10.37       1.0  T
   5    -13.2267372 -0.187099E-04  0.675E-02   10.36       1.0  T
   6    -13.2267433 -0.618094E-05  0.355E-02   10.35       1.1  T
   7    -13.2267449 -0.151827E-05  0.119E-02   10.34       3.4  T
   8    -13.2267450 -0.139040E-06  0.115E-03   10.34      35.6  T
   9    -13.2267450 -0.591621E-09  0.521E-04   10.34      78.3  T
     SCC iter.                  ...        0 min,  0.001 sec
     gradient                   ...        0 min,  0.000 sec
 * total energy  :    12.7058724 Eh     change        0.2149524E+02 Eh
   gradient norm :    80.3739480 Eh/α   predicted    -0.2826933E+02 (-231.51%)
   displ. norm   :     0.4965840 α      lambda       -0.3987783E+02
   maximum displ.:     0.4959936 α      in ANC's #9, #12, #10, ...

........................................................................
.............................. CYCLE    3 ..............................
........................................................................
   1    -13.3237147 -0.133237E+02  0.310E+00   12.02       0.0  T
   2    -13.3310075 -0.729277E-02  0.134E+00   12.56       1.0  T
   3    -13.3327925 -0.178495E-02  0.392E-01   12.76       1.0  T
   4    -13.3328518 -0.593544E-04  0.220E-01   12.79       1.0  T
   5    -13.3328640 -0.122089E-04  0.484E-02   12.82       1.0  T
   6    -13.3328682 -0.417673E-05  0.110E-02   12.83       3.7  T
   7    -13.3328684 -0.166768E-06  0.344E-03   12.83      11.9  T
   8    -13.3328684 -0.757737E-08  0.633E-04   12.83      64.4  T
     SCC iter.                  ...        0 min,  0.001 sec
     gradient                   ...        0 min,  0.000 sec
 * total energy  :   -11.7755174 Eh     change       -0.2448139E+02 Eh
   gradient norm :    19.0441557 Eh/α   predicted    -0.2485577E+02 (   1.53%)
   displ. norm   :     0.2653187 α      lambda       -0.3227724E+01
   maximum displ.:     0.2145157 α      in ANC's #12, #9, #6, ...

........................................................................
.............................. CYCLE    4 ..............................
........................................................................
   1    -13.3463513 -0.133464E+02  0.195E-01   13.59       0.0  T
   2    -13.3463816 -0.302364E-04  0.976E-02   13.62       1.0  T
   3    -13.3463898 -0.825810E-05  0.388E-02   13.64       1.1  T
   4    -13.3463900 -0.176299E-06  0.125E-02   13.64       3.3  T
   5    -13.3463900 -0.158369E-07  0.188E-03   13.64      21.7  T
   6    -13.3463900 -0.576309E-08  0.624E-04   13.64      65.4  T
     SCC iter.                  ...        0 min,  0.001 sec
     gradient                   ...        0 min,  0.000 sec
 * total energy  :   -12.6136519 Eh     change       -0.8381345E+00 Eh
   gradient norm :     7.3784489 Eh/α   predicted    -0.1727470E+01 ( 106.11%)
   displ. norm   :     0.4972817 α      lambda       -0.3526613E+01
   maximum displ.:     0.4741248 α      in ANC's #12, #9, #6, ...

........................................................................
.............................. CYCLE    5 ..............................
........................................................................
   1    -13.3339567 -0.133340E+02  0.127E+00    6.23       0.0  T
   2    -13.3344277 -0.470930E-03  0.715E-01    6.52       1.0  T
   3    -13.3346062 -0.178529E-03  0.152E-01    6.87       1.0  T
   4    -13.3346123 -0.607345E-05  0.518E-02    6.87       1.0  T
   5    -13.3346142 -0.190976E-05  0.253E-02    6.87       1.6  T
   6    -13.3346149 -0.666522E-06  0.938E-03    6.87       4.4  T
   7    -13.3346150 -0.136252E-06  0.506E-03    6.87       8.1  T
   8    -13.3346150 -0.293825E-07  0.314E-04    6.87     130.1  T
     SCC iter.                  ...        0 min,  0.001 sec
     gradient                   ...        0 min,  0.000 sec
 * total energy  :   -10.2755181 Eh     change        0.2338134E+01 Eh
   gradient norm :    21.2474632 Eh/α   predicted    -0.2199353E+01 (-194.06%)
   displ. norm   :     0.2905410 α      lambda       -0.5523291E+01
   maximum displ.:     0.2509327 α      in ANC's #12, #9, #6, ...

........................................................................
.............................. CYCLE    6 ..............................
........................................................................
   1    -13.3444063 -0.133444E+02  0.890E-01   13.33       0.0  T
   2    -13.3446402 -0.233899E-03  0.504E-01   13.15       1.0  T
   3    -13.3447167 -0.765517E-04  0.954E-02   12.97       1.0  T
   4    -13.3447187 -0.198157E-05  0.375E-02   12.96       1.1  T
   5    -13.3447195 -0.752849E-06  0.145E-02   12.96       2.8  T
   6    -13.3447197 -0.271208E-06  0.464E-03   12.96       8.8  T
   7    -13.3447198 -0.276577E-07  0.191E-03   12.96      21.4  T
     SCC iter.                  ...        0 min,  0.001 sec
     gradient                   ...        0 min,  0.000 sec
 * total energy  :   -13.2570510 Eh     change       -0.2981533E+01 Eh
   gradient norm :     1.6218111 Eh/α   predicted    -0.2994769E+01 (   0.44%)
   displ. norm   :     0.0604901 α      lambda       -0.6876726E-01
   maximum displ.:     0.0419196 α      in ANC's #12, #6, #5, ...

........................................................................
.............................. CYCLE    7 ..............................
........................................................................
   1    -13.3503222 -0.133503E+02  0.981E-02   13.86       0.0  T
   2    -13.3503228 -0.605995E-06  0.585E-02   13.86       1.0  T
   3    -13.3503232 -0.355722E-06  0.477E-03   13.84       8.6  T
   4    -13.3503232 -0.126140E-07  0.216E-03   13.84      18.9  T
     SCC iter.                  ...        0 min,  0.000 sec
     gradient                   ...        0 min,  0.000 sec
 * total energy  :   -13.2901256 Eh     change       -0.3307455E-01 Eh
   gradient norm :     0.1506215 Eh/α   predicted    -0.3450943E-01 (   4.34%)
   displ. norm   :     0.0288800 α      lambda       -0.6634174E-03
   maximum displ.:     0.0220264 α      in ANC's #5, #6, #1, ...

........................................................................
.............................. CYCLE    8 ..............................
........................................................................
   1    -13.3525803 -0.133526E+02  0.266E-02   13.98       0.0  T
   2    -13.3525806 -0.283691E-06  0.149E-02   13.98       2.7  T
   3    -13.3525807 -0.706954E-07  0.479E-03   13.99       8.5  T
   4    -13.3525807 -0.428159E-09  0.158E-03   13.99      25.9  T
     SCC iter.                  ...        0 min,  0.000 sec
     gradient                   ...        0 min,  0.000 sec
 * total energy  :   -13.2905555 Eh     change       -0.4299170E-03 Eh
   gradient norm :     0.0141485 Eh/α   predicted    -0.3319864E-03 ( -22.78%)
   displ. norm   :     0.0830581 α      lambda       -0.2538349E-03
   maximum displ.:     0.0578577 α      in ANC's #1, #2, #5, ...

........................................................................
.............................. CYCLE    9 ..............................
........................................................................
   1    -13.3543944 -0.133544E+02  0.707E-02   13.96       0.0  T
   2    -13.3543947 -0.316269E-06  0.420E-02   13.97       1.0  T
   3    -13.3543948 -0.992565E-07  0.469E-03   13.98       8.7  T
   4    -13.3543948 -0.299565E-08  0.147E-03   13.98      27.7  T
   5    -13.3543948 -0.569583E-09  0.346E-04   13.97     118.0  T
     SCC iter.                  ...        0 min,  0.001 sec
     gradient                   ...        0 min,  0.000 sec
 * total energy  :   -13.2904509 Eh     change        0.1045966E-03 Eh
   gradient norm :     0.0407701 Eh/α   predicted    -0.1277929E-03 (-222.18%)
   displ. norm   :     0.1038227 α      lambda       -0.6344329E-03
   maximum displ.:     0.0731935 α      in ANC's #1, #2, #5, ...

........................................................................
.............................. CYCLE   10 ..............................
........................................................................
   1    -13.3565472 -0.133565E+02  0.883E-02   13.88       0.0  T
   2    -13.3565476 -0.405213E-06  0.527E-02   13.89       1.0  T
   3    -13.3565478 -0.141823E-06  0.546E-03   13.89       7.5  T
   4    -13.3565478 -0.503526E-08  0.110E-03   13.89      37.3  T
     SCC iter.                  ...        0 min,  0.000 sec
     gradient                   ...        0 min,  0.000 sec
 * total energy  :   -13.2905474 Eh     change       -0.9653901E-04 Eh
   gradient norm :     0.0304500 Eh/α   predicted    -0.3206358E-03 ( 232.13%)
   displ. norm   :     0.0406050 α      lambda       -0.2944738E-03
   maximum displ.:     0.0269925 α      in ANC's #5, #6, #1, ...

........................................................................
.............................. CYCLE   11 ..............................
........................................................................
   1    -13.3541131 -0.133541E+02  0.376E-02   14.00       0.0  T
   2    -13.3541136 -0.462826E-06  0.210E-02   13.99       1.9  T
   3    -13.3541137 -0.118985E-06  0.591E-03   13.99       6.9  T
   4    -13.3541137 -0.112319E-10  0.194E-03   13.99      21.0  T
     SCC iter.                  ...        0 min,  0.000 sec
     gradient                   ...        0 min,  0.000 sec
 * total energy  :   -13.2906741 Eh     change       -0.1266899E-03 Eh
   gradient norm :     0.0079425 Eh/α   predicted    -0.1474798E-03 (  16.41%)
   displ. norm   :     0.0109953 α      lambda       -0.1516699E-04
   maximum displ.:     0.0075032 α      in ANC's #1, #5, #6, ...

........................................................................
.............................. CYCLE   12 ..............................
........................................................................
   1    -13.3544863 -0.133545E+02  0.988E-03   13.97       0.0  T
   2    -13.3544863 -0.126949E-07  0.587E-03   13.97       7.0  T
   3    -13.3544863 -0.420062E-08  0.100E-03   13.97      40.7  T
   4    -13.3544863 -0.134003E-09  0.133E-04   13.97     306.5  T
     SCC iter.                  ...        0 min,  0.000 sec
     gradient                   ...        0 min,  0.000 sec
 * total energy  :   -13.2906809 Eh     change       -0.6781193E-05 Eh
   gradient norm :     0.0015873 Eh/α   predicted    -0.7584395E-05 (  11.84%)
   displ. norm   :     0.0270288 α      lambda       -0.4311662E-05
   maximum displ.:     0.0201276 α      in ANC's #2, #1, #5, ...

........................................................................
.............................. CYCLE   13 ..............................
........................................................................
   1    -13.3545015 -0.133545E+02  0.287E-02   13.95       0.0  T
   2    -13.3545015 -0.959239E-08  0.173E-02   13.95       2.4  T
   3    -13.3545015 -0.387574E-08  0.771E-04   13.96      53.0  T
   4    -13.3545015 -0.966640E-10  0.301E-04   13.95     135.5  T
     SCC iter.                  ...        0 min,  0.000 sec
     gradient                   ...        0 min,  0.000 sec
 * total energy  :   -13.2906556 Eh     change        0.2525286E-04 Eh
   gradient norm :     0.0059107 Eh/α   predicted    -0.2156631E-05 (-108.54%)
   displ. norm   :     0.0163369 α      lambda       -0.3491693E-04
   maximum displ.:     0.0133639 α      in ANC's #2, #1, #5, ...

........................................................................
.............................. CYCLE   14 ..............................
........................................................................
   1    -13.3544077 -0.133544E+02  0.174E-02   13.96       0.0  T
   2    -13.3544077 -0.364251E-08  0.105E-02   13.96       3.9  T
   3    -13.3544077 -0.147345E-08  0.483E-04   13.96      84.6  T
   4    -13.3544077 -0.345963E-10  0.136E-04   13.96     300.8  T
     SCC iter.                  ...        0 min,  0.001 sec
     gradient                   ...        0 min,  0.000 sec
 * total energy  :   -13.2906789 Eh     change       -0.2326433E-04 Eh
   gradient norm :     0.0018307 Eh/α   predicted    -0.1746527E-04 ( -24.93%)
   displ. norm   :     0.0123965 α      lambda       -0.5954163E-05
   maximum displ.:     0.0088443 α      in ANC's #2, #1, #6, ...

........................................................................
.............................. CYCLE   15 ..............................
........................................................................
   1    -13.3543057 -0.133543E+02  0.130E-02   13.96       0.0  T
   2    -13.3543057 -0.231414E-08  0.782E-03   13.96       5.2  T
   3    -13.3543057 -0.858741E-09  0.370E-04   13.96     110.2  T
   4    -13.3543057 -0.217764E-10  0.160E-04   13.96     255.8  T
     SCC iter.                  ...        0 min,  0.000 sec
     gradient                   ...        0 min,  0.000 sec
 * total energy  :   -13.2906811 Eh     change       -0.2236774E-05 Eh
   gradient norm :     0.0007564 Eh/α   predicted    -0.2977714E-05 (  33.13%)
   displ. norm   :     0.0041455 α      lambda       -0.1003606E-05
   maximum displ.:     0.0029893 α      in ANC's #1, #2, #5, ...

   *** GEOMETRY OPTIMIZATION CONVERGED AFTER 15 ITERATIONS ***

------------------------------------------------------------------------
 total energy gain   :        -4.5013086 Eh    -2824.6138 kcal/mol
 total RMSD          :         0.1242643 a0        0.0658 Å
 total power (kW/mol):      -787.8789469 (step)********** (real)
------------------------------------------------------------------------

 ANCopt (total)                0 d,  0 h,  0 min,  0.028 sec
 optimizer setup                ...        0 min,  0.000 sec (  0.371%)
 model hessian                  ...        0 min,  0.000 sec (  0.790%)
 ANC generation                 ...        0 min,  0.000 sec (  0.465%)
 coordinate transformation      ...        0 min,  0.000 sec (  0.736%)
 single point calculation       ...        0 min,  0.025 sec ( 88.529%)
 optimization log               ...        0 min,  0.001 sec (  2.246%)
 hessian update                 ...        0 min,  0.000 sec (  0.671%)
 rational function              ...        0 min,  0.001 sec (  2.555%)

================
 final structure:
================
6
 xtb: 6.2.3 (830e466)
F        -2.59225645567805   -0.05069353027135    0.03700322691228
Cl        3.00567746259748    0.07251965497865   -0.02455119507154
C        -1.26067100263164   -0.02360066453173    0.01282493970981
H        -0.90475385546912   -0.62937289867048   -0.82259529948524
H        -0.87646812730429   -0.42842943826859    0.95081835706781
H        -0.92717802151437    1.00750687676350   -0.10924002913312
 
 Bond Distances (Angstroems)
 ---------------------------
F1-C3=1.3321         C3-F1=1.3321         C3-H4=1.0916         C3-H5=1.0915         C3-H6=1.0906         H4-C3=1.0916         
H5-C3=1.0915         H6-C3=1.0906         
 C  H  Rav=1.0912 sigma=0.0005  Rmin=1.0906  Rmax=1.0916     3
 F  C  Rav=1.3321 sigma=0.0000  Rmin=1.3321  Rmax=1.3321     1
 
 selected bond angles (degree)
 --------------------
H4-C3-F1=109.18                H5-C3-F1=109.19                H5-C3-H4=109.70                H6-C3-F1=109.08                
H6-C3-H4=109.84                H6-C3-H5=109.83                
 
 selected dihedral angles (degree)
 ---------------------------------

 
 CMA Distance (Angstroems)
 ---------------------------
R(CMA):  4.9794
           -------------------------------------------------
          |                Final Singlepoint                |
           -------------------------------------------------

          ...................................................
          :                      SETUP                      :
          :.................................................:
          :  # basis functions                  21          :
          :  # atomic orbitals                  20          :
          :  # shells                           10          :
          :  # electrons                        22          :
          :  max. iterations                   250          :
          :  Hamiltonian                  GFN2-xTB          :
          :  restarted?                      false          :
          :  GBSA solvation                   true          :
          :  PC potential                    false          :
          :  electronic temp.          300.0000000     K    :
          :  accuracy                    1.0000000          :
          :  -> integral cutoff          0.2500000E+02      :
          :  -> integral neglect         0.1000000E-07      :
          :  -> SCF convergence          0.1000000E-05 Eh   :
          :  -> wf. convergence          0.1000000E-03 e    :
          :  Broyden damping             0.4000000          :
          ...................................................

 iter      E             dE          RMSdq      gap      omega  full diag
   1    -13.3543057 -0.133543E+02  0.432E-05   13.96       0.0  T
   2    -13.3543057 -0.103206E-11  0.343E-05   13.96    1189.3  T
   3    -13.3543057 -0.194689E-11  0.122E-05   13.96    3353.4  T

   *** convergence criteria satisfied after 3 iterations ***

         #    Occupation            Energy/Eh            Energy/eV
      -------------------------------------------------------------
         1        2.0000           -0.9866788             -26.8489
       ...           ...                  ...                  ...
         5        2.0000           -0.5471247             -14.8880
         6        2.0000           -0.5460344             -14.8584
         7        2.0000           -0.4592026             -12.4955
         8        2.0000           -0.4591291             -12.4935
         9        2.0000           -0.3899860             -10.6121
        10        2.0000           -0.3895213             -10.5994
        11        2.0000           -0.3895211             -10.5994 (HOMO)
        12                          0.1236486               3.3646 (LUMO)
        13                          0.1378441               3.7509
        14                          0.1420537               3.8655
        15                          0.1420539               3.8655
        16                          0.1421320               3.8676
       ...                                ...                  ...
        20                          0.1994982               5.4286
      -------------------------------------------------------------
                  HL-Gap            0.5131696 Eh           13.9641 eV
             Fermi-level           -0.1329362 Eh           -3.6174 eV

 SCC (total)                   0 d,  0 h,  0 min,  0.002 sec
 SCC setup                      ...        0 min,  0.000 sec (  8.170%)
 Dispersion                     ...        0 min,  0.000 sec (  0.818%)
 integral evaluation            ...        0 min,  0.000 sec ( 24.643%)
 zeroth order Hamiltonian       ...        0 min,  0.000 sec (  1.429%)
 iterations                     ...        0 min,  0.000 sec ( 28.036%)
 molecular gradient             ...        0 min,  0.000 sec ( 27.217%)
 printout                       ...        0 min,  0.000 sec (  5.804%)

         :::::::::::::::::::::::::::::::::::::::::::::::::::::
         ::                     SUMMARY                     ::
         :::::::::::::::::::::::::::::::::::::::::::::::::::::
         :: total energy             -13.290681142488 Eh    ::
         :: total w/o Gsasa/hb       -13.290616604483 Eh    ::
         :: gradient norm              0.000755810906 Eh/a0 ::
         :: HOMO-LUMO gap             13.964056834359 eV    ::
         ::.................................................::
         :: SCC energy               -13.352325891166 Eh    ::
         :: -> isotropic ES            0.168075065087 Eh    ::
         :: -> anisotropic ES         -0.000215377630 Eh    ::
         :: -> anisotropic XC         -0.003237211851 Eh    ::
         :: -> dispersion             -0.001328899169 Eh    ::
         :: -> Gsolv                  -0.104431828681 Eh    ::
         ::    -> Gborn               -0.104367290676 Eh    ::
         ::    -> Gsasa                0.000122359019 Eh    ::
         ::    -> Ghb                 -0.002044340150 Eh    ::
         ::    -> Gshift               0.001857443127 Eh    ::
         :: repulsion energy           0.061635014467 Eh    ::
         :: add. restraining           0.000010341781 Eh    ::
         :::::::::::::::::::::::::::::::::::::::::::::::::::::

           -------------------------------------------------
          |                Property Printout                |
           -------------------------------------------------

    * Orbital Energies and Occupations

         #    Occupation            Energy/Eh            Energy/eV
      -------------------------------------------------------------
         1        2.0000           -0.9866788             -26.8489
         2        2.0000           -0.8261812             -22.4815
         3        2.0000           -0.6187584             -16.8373
         4        2.0000           -0.5472053             -14.8902
         5        2.0000           -0.5471247             -14.8880
         6        2.0000           -0.5460344             -14.8584
         7        2.0000           -0.4592026             -12.4955
         8        2.0000           -0.4591291             -12.4935
         9        2.0000           -0.3899860             -10.6121
        10        2.0000           -0.3895213             -10.5994
        11        2.0000           -0.3895211             -10.5994 (HOMO)
        12                          0.1236486               3.3646 (LUMO)
        13                          0.1378441               3.7509
        14                          0.1420537               3.8655
        15                          0.1420539               3.8655
        16                          0.1421320               3.8676
        17                          0.1423170               3.8726
        18                          0.1423170               3.8726
        19                          0.1977700               5.3816
        20                          0.1994982               5.4286
      -------------------------------------------------------------
                  HL-Gap            0.5131696 Eh           13.9641 eV
             Fermi-level           -0.1329362 Eh           -3.6174 eV

     #   Z        covCN         q      C6AA      α(0)
     1   9 F      0.784    -0.255    11.824     4.062
     2  17 Cl     0.000    -1.000   127.012    17.152
     3   6 C      3.557     0.070    20.279     6.572
     4   1 H      0.924     0.062     2.179     2.308
     5   1 H      0.924     0.061     2.182     2.310
     6   1 H      0.924     0.062     2.178     2.308

 Mol. C6AA /au·bohr⁶  :        553.970722
 Mol. C8AA /au·bohr⁸  :      15925.323239
 Mol. α(0) /au        :         34.711242


Wiberg/Mayer (AO) data.
largest (>0.10) Wiberg bond orders for each atom
          total WBO             WBO to atom ...
     1  F   1.002        C    3 0.949
     2  Cl  0.000
     3  C   3.886        H    6 0.979    H    5 0.979    H    4 0.979    F    1 0.949
     4  H   0.996        C    3 0.979
     5  H   0.996        C    3 0.979
     6  H   0.996        C    3 0.979

molecular dipole:
                 x           y           z       tot (Debye)
 q only:       -4.912      -0.121       0.032
   full:       -4.753      -0.118       0.030      12.084
molecular quadrupole (traceless):
                xx          xy          yy          xz          yz          zz
 q only:      -37.792      -1.334      18.884       0.526       0.013      18.908
  q+dip:      -40.172      -1.406      20.075       0.589       0.013      20.097
   full:      -39.458      -1.383      19.718       0.569       0.013      19.741

           -------------------------------------------------
          |                Geometry Summary                 |
           -------------------------------------------------

      molecular mass/u    :       69.4858989
   center of mass at/Å    :        0.5675953       0.0183315       0.0000829
  moments of inertia/u·Å² :        0.3214036E+01   0.4489924E+03   0.4489932E+03
rotational constants/cm⁻¹ :        0.5245004E+01   0.3754547E-01   0.3754540E-01

 * 4 selected distances

     #   Z        #   Z                                     value/Å
     1   9 F      3   6 C                                 1.3320805 (max)
     3   6 C      4   1 H                                 1.0915878
     3   6 C      5   1 H                                 1.0914806
     3   6 C      6   1 H                                 1.0905504 (min)

 * 2 distinct bonds (by element types)

   Z      Z             #   av. dist./Å        max./Å        min./Å
   1 H    6 C           3     1.0912063     1.0915878     1.0905504
   6 C    9 F           1     1.3320805     1.3320805     1.3320805


optimized geometry written to: xtbopt.xyz


           -------------------------------------------------
          | TOTAL ENERGY              -13.290681142488 Eh   |
          | GRADIENT NORM               0.000755810906 Eh/α |
          | HOMO-LUMO GAP              13.964056834359 eV   |
           -------------------------------------------------

------------------------------------------------------------------------
 * finished run on 2020/08/20 at 17:46:28.727     
------------------------------------------------------------------------
 total:
 * wall-time:     0 d,  0 h,  0 min,  0.069 sec
 *  cpu-time:     0 d,  0 h,  0 min,  0.215 sec
 * ratio c/w:     3.110 speedup
 SCF:
 * wall-time:     0 d,  0 h,  0 min,  0.005 sec
 *  cpu-time:     0 d,  0 h,  0 min,  0.019 sec
 * ratio c/w:     3.978 speedup
 ANC optimizer:
 * wall-time:     0 d,  0 h,  0 min,  0.031 sec
 *  cpu-time:     0 d,  0 h,  0 min,  0.122 sec
 * ratio c/w:     3.990 speedup

