      -----------------------------------------------------------      
     |                   =====================                   |     
     |                           x T B                           |     
     |                   =====================                   |     
     |                         S. Grimme                         |     
     |          Mulliken Center for Theoretical Chemistry        |     
     |                    University of Bonn                     |     
      -----------------------------------------------------------      

   * xtb version 6.2.3 (830e466) compiled by 'ehlert@majestix' on 2020-03-16

   xtb is free software: you can redistribute it and/or modify it under
   the terms of the GNU Lesser General Public License as published by
   the Free Software Foundation, either version 3 of the License, or
   (at your option) any later version.
   
   xtb is distributed in the hope that it will be useful,
   but WITHOUT ANY WARRANTY; without even the implied warranty of
   MERCHANTABILITY or FITNESS FOR A PARTICULAR PURPOSE.  See the
   GNU Lesser General Public License for more details.
   
   Cite this work as:
   * S. Grimme, C. Bannwarth, P. Shushkov, J. Chem. Theory Comput., 2017,
     13, 1989-2009. DOI: 10.1021/acs.jctc.7b00118
   * C. Bannwarth, S. Ehlert and S. Grimme., J. Chem. Theory Comput., 2019,
     15, 1652-1671. DOI: 10.1021/acs.jctc.8b01176
   * P. Pracht, E. Caldeweyher, S. Ehlert, S. Grimme, ChemRxiv, 2019, preprint.
     DOI: 10.26434/chemrxiv.8326202.v1
   
   for DFT-D4:
   * E. Caldeweyher, C. Bannwarth and S. Grimme, J. Chem. Phys., 2017,
     147, 034112. DOI: 10.1063/1.4993215
   * E. Caldeweyher, S. Ehlert, A. Hansen, H. Neugebauer, S. Spicher,
     C. Bannwarth and S. Grimme, J. Chem. Phys., 2019, 150, 154122.
     DOI: 10.1063/1.5090222
   
   for sTDA-xTB:
   * S. Grimme and C. Bannwarth, J. Chem. Phys., 2016, 145, 054103.
     DOI: 10.1063/1.4959605
   
   in the mass-spec context:
   * V. Asgeirsson, C. Bauer and S. Grimme, Chem. Sci., 2017, 8, 4879.
     DOI: 10.1039/c7sc00601b
   
   for metadynamics refer to:
   * S. Grimme, J. Chem. Theory Comput., 2019, 155, 2847-2862
     DOI: 10.1021/acs.jctc.9b00143
   
   with help from (in alphabetical order)
   C. Bannwarth, F. Bohle, G. Brandenburg, E. Caldeweyher, M. Checinski,
   S. Dohm, S. Ehlert, S. Ehrlich, F. März, H. Neugebauer, J. Pisarek,
   P. Pracht, P. Shushkov, and S. Spicher.
   
 * started run on 2020/08/20 at 17:46:27.746     

           -------------------------------------------------
          |                Calculation Setup                |
           -------------------------------------------------

          program call               : /u/fd/ball4935/opt/bin/xtb 3ixBtq_reactant_constrained_opt4_xtb.xyz --chrg -1 --opt --gbsa Water --input xcontrol_3ixBtq_reactant_constrained_opt4_xtb
          hostname                   : comp0810
          coordinate file            : 3ixBtq_reactant_constrained_opt4_xtb.xyz
          omp threads                :                     4
          number of atoms            :                     6
          number of electrons        :                    22
          charge                     :                    -1
          spin                       :                   0.0
          first test random number   :      0.27814551845303

constraining bond 1 3 to    2.7884000 Å, actual value:    2.9502702 Å
constraining bond 2 3 to    2.5369000 Å, actual value:    2.3437522 Å

molecular fragmentation (1/2 indicates fragments):
122222
# atoms in fragment 1/2:     1     5
 fragment masses (1/2) :       19.00       50.49
CMA distance (Bohr)    :   8.667
constraining FC (au)   : 20.0000
########################################################################
[WARNING] Please study the warnings concerning your input carefully
-2- prog_main: XTBPATH is not set, using XTBHOME instead
-1- prog_main: XTBHOME is not set, using HOME instead
########################################################################
           ------------------------------------------------- 
          |                 G F N 2 - x T B                 |
          | Geometry, Frequencies, Noncovalent interactions |
          |            JCTC 2019 parametrisation            |
           ------------------------------------------------- 
             k(s)              :                1.8500
             k(p)              :                2.2300
             k(d)              :                2.2300
             k(f)              :                2.0000
             kEN (H0ij)        :               -2.0000
             D4 a1             :                0.5200
             D4 a2             :                5.0000
             D4 s6             :                1.0000
             D4 s8             :                2.7000
             D4 s9             :                5.0000
             alphaj            :                2.0000

  Z AO/shell   Hii/eV     exponent
  1     Wed Apr 25 08:07:45 CEST 2018   EN: 2.200 GM2: 0.406  GM3: 0.0800  RAES: 1.40
     1s    -10.707211    1.230000
  6     Wed Apr 25 08:07:45 CEST 2018   EN: 2.550 GM2: 0.538  GM3: 0.1500  RAES: 3.00
     2s    -13.970922    2.096432
     2p    -10.063292    1.800000
  9     Mon Apr 23 13:58:50 CEST 2018   EN: 3.980 GM2: 0.532  GM3: 0.1426  RAES: 2.40
     2s    -23.458179    2.416361
     2p    -15.746583    2.308399
 17     Mon Apr 23 14:09:22 CEST 2018   EN: 3.160 GM2: 0.249  GM3: 0.1495  RAES: 2.50
     3s    -29.278781    2.485265
     3p    -12.673758    2.199650
     3d     -0.240338    2.476089

 Solvent             : Water
 Using internal parameter file: .param_gbsa2_Water
 Gsolv ref. state (COSMO-RS): gsolv [1 M gas/solution]
 temperature (mdtemp)       :    298.150000000000     
 dielectric constant        :    80.2000000000000     
 rho                        :    1.00000000000000     
 mass                       :    18.0000000000000     
 surface tension            :    15.5689454083859     
 probe radius               :   0.975313790000000     
 Gshift (Eh)                :   1.857443126794793E-003
 c1                         :    1.55243817000000     
 soset                      :   0.130326360000000     
 HB correction              :  T
           ------------------------------------------------- 
          |        Self-Consistent Charge Iterations        |
           ------------------------------------------------- 

          ...................................................
          :                      SETUP                      :
          :.................................................:
          :  # basis functions                  21          :
          :  # atomic orbitals                  20          :
          :  # shells                           10          :
          :  # electrons                        22          :
          :  max. iterations                   250          :
          :  Hamiltonian                  GFN2-xTB          :
          :  restarted?                      false          :
          :  GBSA solvation                   true          :
          :  PC potential                    false          :
          :  electronic temp.          300.0000000     K    :
          :  accuracy                    1.0000000          :
          :  -> integral cutoff          0.2500000E+02      :
          :  -> integral neglect         0.1000000E-07      :
          :  -> SCF convergence          0.1000000E-05 Eh   :
          :  -> wf. convergence          0.1000000E-03 e    :
          :  Broyden damping             0.4000000          :
          ...................................................

 iter      E             dE          RMSdq      gap      omega  full diag
   1    -13.1584596 -0.131585E+02  0.761E+00    3.89       0.0  T
   2    -13.2312407 -0.727811E-01  0.501E+00    0.73       1.0  T
   3    -13.2780309 -0.467901E-01  0.236E+00    1.28       1.0  T
   4    -13.2796678 -0.163694E-02  0.723E-01    0.47       1.0  T
   5    -13.2821986 -0.253082E-02  0.651E-01    0.90       1.0  T
   6    -13.2828364 -0.637781E-03  0.250E-01    0.82       1.0  T
   7    -13.2829809 -0.144503E-03  0.106E-01    0.78       1.0  T
   8    -13.2830150 -0.340432E-04  0.422E-02    0.73       1.0  T
   9    -13.2830137  0.123126E-05  0.458E-02    0.72       1.0  T
  10    -13.2830193 -0.558024E-05  0.177E-03    0.75      23.0  T
  11    -13.2830193 -0.194951E-08  0.142E-03    0.75      28.8  T
  12    -13.2830193 -0.246394E-08  0.144E-04    0.75     283.2  T
  13    -13.2830193 -0.226290E-10  0.329E-05    0.75    1239.8  T

   *** convergence criteria satisfied after 13 iterations ***

         #    Occupation            Energy/Eh            Energy/eV
      -------------------------------------------------------------
         1        2.0000           -1.0372682             -28.2255
       ...           ...                  ...                  ...
         5        2.0000           -0.5009345             -13.6311
         6        2.0000           -0.4456944             -12.1280
         7        2.0000           -0.4116285             -11.2010
         8        2.0000           -0.4116274             -11.2010
         9        2.0000           -0.3442168              -9.3666
        10        2.0000           -0.3428236              -9.3287
        11        2.0000           -0.3428224              -9.3287 (HOMO)
        12        0.0000           -0.3153304              -8.5806 (LUMO)
        13                          0.0505223               1.3748
        14                          0.0505237               1.3748
        15                          0.0521260               1.4184
        16                          0.0521269               1.4184
       ...                                ...                  ...
        20                          0.2593741               7.0579
      -------------------------------------------------------------
                  HL-Gap            0.0274920 Eh            0.7481 eV
             Fermi-level           -0.3286956 Eh           -8.9443 eV

 SCC (total)                   0 d,  0 h,  0 min,  0.005 sec
 SCC setup                      ...        0 min,  0.000 sec (  6.889%)
 Dispersion                     ...        0 min,  0.000 sec (  0.703%)
 integral evaluation            ...        0 min,  0.001 sec ( 10.911%)
 zeroth order Hamiltonian       ...        0 min,  0.000 sec (  0.766%)
 iterations                     ...        0 min,  0.003 sec ( 62.757%)
 molecular gradient             ...        0 min,  0.001 sec ( 13.643%)
 printout                       ...        0 min,  0.000 sec (  2.606%)

         :::::::::::::::::::::::::::::::::::::::::::::::::::::
         ::                     SUMMARY                     ::
         :::::::::::::::::::::::::::::::::::::::::::::::::::::
         :: total energy              -8.686279138780 Eh    ::
         :: total w/o Gsasa/hb        -8.683572836666 Eh    ::
         :: gradient norm             32.841335894632 Eh/a0 ::
         :: HOMO-LUMO gap              0.748095408370 eV    ::
         ::.................................................::
         :: SCC energy               -13.280255114474 Eh    ::
         :: -> isotropic ES            0.258917414458 Eh    ::
         :: -> anisotropic ES         -0.001809177114 Eh    ::
         :: -> anisotropic XC          0.005480159645 Eh    ::
         :: -> dispersion             -0.001831457406 Eh    ::
         :: -> Gsolv                  -0.125366369588 Eh    ::
         ::    -> Gborn               -0.122660067474 Eh    ::
         ::    -> Gsasa                0.000906749359 Eh    ::
         ::    -> Ghb                 -0.005470494599 Eh    ::
         ::    -> Gshift               0.001857443127 Eh    ::
         :: repulsion energy           0.058152677472 Eh    ::
         :: add. restraining           4.535824526345 Eh    ::
         :::::::::::::::::::::::::::::::::::::::::::::::::::::

      ----------------------------------------------------------- 
     |                   =====================                   |
     |                        A N C O P T                        |
     |                   =====================                   |
     |               Approximate Normal Coordinate               |
     |                Rational Function Optimizer                |
      ----------------------------------------------------------- 

          ...................................................
          :                      SETUP                      :
          :.................................................:
          :   optimization level            normal          :
          :   max. optcycles                   200          :
          :   ANC micro-cycles                  20          :
          :   degrees of freedom                12          :
          :.................................................:
          :   RF solver                   davidson          :
          :   write xtbopt.log                true          :
          :   linear?                        false          :
          :   energy convergence         0.5000000E-05 Eh   :
          :   grad. convergence          0.1000000E-02 Eh/α :
          :   maximium RF displ.         1.0000000          :
          :   Hlow (freq-cutoff)         0.1000000E-01      :
          :   Hmax (freq-cutoff)         5.0000000          :
          :   S6 in model hess.         20.0000000          :
          ...................................................

generating ANC from model Hessian ...
Using Lindh-Hessian (1995)
 Shifting diagonal of input Hessian by    2.76235661283979     
 Lowest  eigenvalues of input Hessian
    0.010000    0.010106   -0.000000   -0.000000   -0.000000   -0.000000
    0.000000    0.000000    2.788841    2.900013    2.900016    3.206661
    3.210595    3.210722    4.055679    4.055691   42.786224  122.874731
 Highest eigenvalues
    3.210595    3.210722    4.055679    4.055691   42.786224  122.874731
 

........................................................................
.............................. CYCLE    1 ..............................
........................................................................
   1    -13.2830193 -0.132830E+02  0.373E-05    0.75       0.0  T
   2    -13.2830193 -0.119904E-11  0.176E-05    0.75    2325.0  T
   3    -13.2830193 -0.179412E-12  0.106E-05    0.75    3844.9  T
     SCC iter.                  ...        0 min,  0.001 sec
     gradient                   ...        0 min,  0.000 sec
 * total energy  :    -8.6862791 Eh     change       -0.8271019E-09 Eh
   gradient norm :    32.8413362 Eh/α   predicted     0.0000000E+00 (-100.00%)
   displ. norm   :     0.9267698 α      lambda       -0.3043635E+02
   maximum displ.:     0.9256485 α      in ANC's #11, #12, #6, ...

........................................................................
.............................. CYCLE    2 ..............................
........................................................................
   1    -13.0045465 -0.130045E+02  0.872E+00    0.48       0.0  T
   2    -13.0472873 -0.427408E-01  0.720E+00    3.43       1.0  T
   3    -13.2254454 -0.178158E+00  0.258E+00    1.26       1.0  T
   4    -13.2354648 -0.100194E-01  0.151E+00    0.85       1.0  T
   5    -13.2349775  0.487339E-03  0.167E+00    1.19       1.0  T
   6    -13.2447808 -0.980337E-02  0.165E-01    1.00       1.0  T
   7    -13.2448409 -0.600579E-04  0.835E-02    1.01       1.0  T
   8    -13.2444934  0.347521E-03  0.327E-01    1.06       1.0  T
   9    -13.2448549 -0.361482E-03  0.183E-02    1.03       2.2  T
  10    -13.2448556 -0.704644E-06  0.126E-02    1.03       3.2  T
  11    -13.2448550  0.541288E-06  0.149E-02    1.03       2.7  T
  12    -13.2448557 -0.688567E-06  0.471E-03    1.03       8.7  T
  13    -13.2448558 -0.732067E-07  0.608E-04    1.03      67.2  T
     SCC iter.                  ...        0 min,  0.002 sec
     gradient                   ...        0 min,  0.000 sec
 * total energy  :    12.2952494 Eh     change        0.2098153E+02 Eh
   gradient norm :    78.2112943 Eh/α   predicted    -0.2828910E+02 (-234.83%)
   displ. norm   :     0.4939640 α      lambda       -0.3861274E+02
   maximum displ.:     0.4937306 α      in ANC's #11, #12, #1, ...

........................................................................
.............................. CYCLE    3 ..............................
........................................................................
   1    -13.2506342 -0.132506E+02  0.348E+00    1.18       0.0  T
   2    -13.2539265 -0.329225E-02  0.144E+00    1.26       1.0  T
   3    -13.2392834  0.146431E-01  0.260E+00    0.51       1.0  T
   4    -13.2639437 -0.246604E-01  0.358E-01    0.86       1.0  T
   5    -13.2615602  0.238356E-02  0.790E-01    0.65       1.0  T
   6    -13.2640409 -0.248069E-02  0.927E-02    0.82       1.0  T
   7    -13.2640644 -0.235064E-04  0.292E-02    0.81       1.4  T
   8    -13.2640587  0.563528E-05  0.490E-02    0.79       1.0  T
   9    -13.2640648 -0.610777E-05  0.254E-02    0.80       1.6  T
  10    -13.2640669 -0.209839E-05  0.680E-04    0.81      60.0  T
  11    -13.2640669  0.655376E-09  0.760E-04    0.81      53.8  T
     SCC iter.                  ...        0 min,  0.001 sec
     gradient                   ...        0 min,  0.001 sec
 * total energy  :   -11.6928623 Eh     change       -0.2398811E+02 Eh
   gradient norm :    19.0096171 Eh/α   predicted    -0.2401714E+02 (   0.12%)
   displ. norm   :     0.1960181 α      lambda       -0.3048465E+01
   maximum displ.:     0.1555521 α      in ANC's #11, #12, #6, ...

........................................................................
.............................. CYCLE    4 ..............................
........................................................................
   1    -13.2721595 -0.132722E+02  0.118E+00    1.20       0.0  T
   2    -13.2738007 -0.164117E-02  0.268E-01    0.85       1.0  T
   3    -13.2738494 -0.487455E-04  0.909E-02    0.81       1.0  T
   4    -13.2738470  0.245459E-05  0.932E-02    0.80       1.0  T
   5    -13.2738484 -0.147770E-05  0.693E-02    0.83       1.0  T
   6    -13.2738525 -0.408321E-05  0.634E-02    0.79       1.0  T
   7    -13.2738642 -0.116526E-04  0.276E-02    0.80       1.5  T
   8    -13.2738658 -0.158170E-05  0.163E-02    0.81       2.5  T
   9    -13.2738666 -0.894169E-06  0.160E-04    0.81     255.0  T
  10    -13.2738666 -0.794156E-10  0.342E-05    0.81    1193.2  T
     SCC iter.                  ...        0 min,  0.001 sec
     gradient                   ...        0 min,  0.000 sec
 * total energy  :   -13.0074240 Eh     change       -0.1314562E+01 Eh
   gradient norm :     3.9855394 Eh/α   predicted    -0.1582798E+01 (  20.41%)
   displ. norm   :     0.4690978 α      lambda       -0.1855144E+01
   maximum displ.:     0.4586251 α      in ANC's #12, #11, #6, ...

........................................................................
.............................. CYCLE    5 ..............................
........................................................................
   1    -13.2607049 -0.132607E+02  0.337E-01    0.40       0.0  T
   2    -13.2596599  0.104507E-02  0.575E-01    0.53       1.0  T
   3    -13.2609148 -0.125492E-02  0.149E-01    0.43       1.0  T
   4    -13.2609229 -0.808348E-05  0.512E-02    0.43       1.0  T
   5    -13.2609286 -0.571445E-05  0.395E-02    0.43       1.0  T
   6    -13.2609236  0.496613E-05  0.489E-02    0.44       1.0  T
   7    -13.2609331 -0.949099E-05  0.699E-03    0.43       5.8  T
   8    -13.2609331  0.424130E-07  0.446E-03    0.43       9.2  T
   9    -13.2609331 -0.804532E-07  0.333E-04    0.43     122.5  T
     SCC iter.                  ...        0 min,  0.001 sec
     gradient                   ...        0 min,  0.000 sec
 * total energy  :   -10.0723876 Eh     change        0.2935036E+01 Eh
   gradient norm :    18.4051125 Eh/α   predicted    -0.1131687E+01 (-138.56%)
   displ. norm   :     0.3281809 α      lambda       -0.5584839E+01
   maximum displ.:     0.3150733 α      in ANC's #12, #11, #3, ...

........................................................................
.............................. CYCLE    6 ..............................
........................................................................
   1    -13.2685351 -0.132685E+02  0.234E-01    0.66       0.0  T
   2    -13.2685518 -0.166870E-04  0.159E-01    0.67       1.0  T
   3    -13.2685495  0.229539E-05  0.135E-01    0.71       1.0  T
   4    -13.2685937 -0.442038E-04  0.694E-02    0.68       1.0  T
   5    -13.2686016 -0.792735E-05  0.227E-02    0.68       1.8  T
   6    -13.2686029 -0.132870E-05  0.690E-03    0.68       5.9  T
   7    -13.2686031 -0.131563E-06  0.314E-03    0.68      13.0  T
   8    -13.2686031 -0.106831E-07  0.126E-04    0.68     323.2  T
     SCC iter.                  ...        0 min,  0.001 sec
     gradient                   ...        0 min,  0.000 sec
 * total energy  :   -13.1649461 Eh     change       -0.3092559E+01 Eh
   gradient norm :     1.8300071 Eh/α   predicted    -0.3093171E+01 (   0.02%)
   displ. norm   :     0.0485298 α      lambda       -0.8026513E-01
   maximum displ.:     0.0443208 α      in ANC's #12, #1, #11, ...

........................................................................
.............................. CYCLE    7 ..............................
........................................................................
   1    -13.2696042 -0.132696E+02  0.686E-02    0.74       0.0  T
   2    -13.2695931  0.110398E-04  0.736E-02    0.71       1.0  T
   3    -13.2696100 -0.169118E-04  0.315E-02    0.73       1.3  T
   4    -13.2696122 -0.220301E-05  0.117E-02    0.72       3.5  T
   5    -13.2696123 -0.744010E-07  0.495E-03    0.72       8.2  T
   6    -13.2696124 -0.532805E-07  0.251E-03    0.72      16.3  T
     SCC iter.                  ...        0 min,  0.001 sec
     gradient                   ...        0 min,  0.000 sec
 * total energy  :   -13.2050557 Eh     change       -0.4010962E-01 Eh
   gradient norm :     0.0210244 Eh/α   predicted    -0.4022708E-01 (   0.29%)
   displ. norm   :     0.2601713 α      lambda       -0.7746927E-03
   maximum displ.:     0.2598630 α      in ANC's #1, #2, #6, ...

........................................................................
.............................. CYCLE    8 ..............................
........................................................................
   1    -13.2664813 -0.132665E+02  0.442E-01    0.71       0.0  T
   2    -13.2665009 -0.195689E-04  0.259E-01    0.71       1.0  T
   3    -13.2664759  0.250613E-04  0.107E-01    0.73       1.0  T
   4    -13.2665055 -0.296542E-04  0.470E-02    0.71       1.0  T
   5    -13.2665107 -0.514446E-05  0.232E-02    0.72       1.8  T
   6    -13.2665114 -0.788346E-06  0.557E-03    0.71       7.3  T
   7    -13.2665115 -0.486028E-07  0.247E-03    0.71      16.5  T
     SCC iter.                  ...        0 min,  0.001 sec
     gradient                   ...        0 min,  0.001 sec
 * total energy  :   -13.1982291 Eh     change        0.6826595E-02 Eh
   gradient norm :     0.4222277 Eh/α   predicted    -0.4135434E-03 (-106.06%)
   displ. norm   :     0.2303978 α      lambda       -0.1646941E-01
   maximum displ.:     0.2291871 α      in ANC's #1, #2, #10, ...

........................................................................
.............................. CYCLE    9 ..............................
........................................................................
   1    -13.2692063 -0.132692E+02  0.395E-01    0.73       0.0  T
   2    -13.2692164 -0.100341E-04  0.237E-01    0.71       1.0  T
   3    -13.2690500  0.166418E-03  0.215E-01    0.77       1.0  T
   4    -13.2692319 -0.181967E-03  0.305E-02    0.72       1.3  T
   5    -13.2692320 -0.837367E-07  0.172E-02    0.72       2.4  T
   6    -13.2692322 -0.171404E-06  0.439E-03    0.72       9.3  T
   7    -13.2692322 -0.336856E-07  0.152E-03    0.72      26.9  T
     SCC iter.                  ...        0 min,  0.001 sec
     gradient                   ...        0 min,  0.000 sec
 * total energy  :   -13.2050678 Eh     change       -0.6838628E-02 Eh
   gradient norm :     0.0418336 Eh/α   predicted    -0.8671900E-02 (  26.81%)
   displ. norm   :     0.2298095 α      lambda       -0.6756247E-03
   maximum displ.:     0.2254316 α      in ANC's #2, #1, #6, ...

........................................................................
.............................. CYCLE   10 ..............................
........................................................................
   1    -13.2667475 -0.132667E+02  0.442E-01    0.71       0.0  T
   2    -13.2667629 -0.154063E-04  0.263E-01    0.71       1.0  T
   3    -13.2667568  0.608161E-05  0.724E-02    0.73       1.0  T
   4    -13.2667638 -0.694277E-05  0.473E-02    0.71       1.0  T
   5    -13.2667699 -0.612550E-05  0.208E-02    0.72       2.0  T
   6    -13.2667706 -0.734015E-06  0.481E-03    0.71       8.5  T
   7    -13.2667707 -0.388359E-07  0.188E-03    0.71      21.8  T
     SCC iter.                  ...        0 min,  0.001 sec
     gradient                   ...        0 min,  0.000 sec
 * total energy  :   -13.1998646 Eh     change        0.5203145E-02 Eh
   gradient norm :     0.3614225 Eh/α   predicted    -0.3556599E-03 (-106.84%)
   displ. norm   :     0.2115407 α      lambda       -0.1265261E-01
   maximum displ.:     0.2092888 α      in ANC's #2, #1, #9, ...

........................................................................
.............................. CYCLE   11 ..............................
........................................................................
   1    -13.2688527 -0.132689E+02  0.410E-01    0.73       0.0  T
   2    -13.2688613 -0.858498E-05  0.247E-01    0.71       1.0  T
   3    -13.2687182  0.143119E-03  0.199E-01    0.76       1.0  T
   4    -13.2688734 -0.155293E-03  0.285E-02    0.72       1.4  T
   5    -13.2688735 -0.494315E-07  0.151E-02    0.72       2.7  T
   6    -13.2688736 -0.142868E-06  0.412E-03    0.72       9.9  T
   7    -13.2688737 -0.292148E-07  0.147E-03    0.72      27.8  T
     SCC iter.                  ...        0 min,  0.001 sec
     gradient                   ...        0 min,  0.000 sec
 * total energy  :   -13.2051479 Eh     change       -0.5283322E-02 Eh
   gradient norm :     0.0161594 Eh/α   predicted    -0.6609412E-02 (  25.10%)
   displ. norm   :     0.0057333 α      lambda       -0.3321606E-04
   maximum displ.:     0.0043299 α      in ANC's #2, #6, #1, ...

........................................................................
.............................. CYCLE   12 ..............................
........................................................................
   1    -13.2685951 -0.132686E+02  0.109E-02    0.72       0.0  T
   2    -13.2685949  0.216401E-06  0.101E-02    0.72       4.0  T
   3    -13.2685951 -0.231394E-06  0.676E-03    0.72       6.0  T
   4    -13.2685952 -0.926914E-07  0.936E-04    0.72      43.6  T
   5    -13.2685952 -0.831893E-09  0.311E-04    0.72     131.4  T
     SCC iter.                  ...        0 min,  0.001 sec
     gradient                   ...        0 min,  0.000 sec
 * total energy  :   -13.2051745 Eh     change       -0.2655280E-04 Eh
   gradient norm :     0.0093562 Eh/α   predicted    -0.1661061E-04 ( -37.44%)
   displ. norm   :     0.0151677 α      lambda       -0.1085618E-03
   maximum displ.:     0.0107121 α      in ANC's #6, #3, #2, ...

........................................................................
.............................. CYCLE   13 ..............................
........................................................................
   1    -13.2673750 -0.132674E+02  0.317E-02    0.73       0.0  T
   2    -13.2673693  0.574508E-05  0.436E-02    0.71       1.0  T
   3    -13.2673773 -0.806457E-05  0.123E-02    0.72       3.3  T
   4    -13.2673775 -0.179209E-06  0.403E-03    0.72      10.1  T
   5    -13.2673775 -0.347294E-07  0.112E-03    0.72      36.5  T
   6    -13.2673775 -0.204656E-08  0.259E-04    0.72     157.9  T
     SCC iter.                  ...        0 min,  0.001 sec
     gradient                   ...        0 min,  0.000 sec
 * total energy  :   -13.2052568 Eh     change       -0.8235114E-04 Eh
   gradient norm :     0.0277007 Eh/α   predicted    -0.5429370E-04 ( -34.07%)
   displ. norm   :     0.0225454 α      lambda       -0.1190337E-03
   maximum displ.:     0.0157985 α      in ANC's #6, #3, #1, ...

........................................................................
.............................. CYCLE   14 ..............................
........................................................................
   1    -13.2656119 -0.132656E+02  0.441E-02    0.73       0.0  T
   2    -13.2656001  0.117203E-04  0.622E-02    0.71       1.0  T
   3    -13.2656168 -0.166392E-04  0.164E-02    0.72       2.5  T
   4    -13.2656171 -0.270924E-06  0.738E-03    0.72       5.5  T
   5    -13.2656172 -0.102746E-06  0.157E-03    0.72      26.0  T
   6    -13.2656172 -0.453039E-08  0.431E-04    0.72      94.8  T
     SCC iter.                  ...        0 min,  0.001 sec
     gradient                   ...        0 min,  0.000 sec
 * total energy  :   -13.2053334 Eh     change       -0.7655677E-04 Eh
   gradient norm :     0.0287495 Eh/α   predicted    -0.5954807E-04 ( -22.22%)
   displ. norm   :     0.0117518 α      lambda       -0.3999813E-04
   maximum displ.:     0.0092076 α      in ANC's #3, #6, #2, ...

........................................................................
.............................. CYCLE   15 ..............................
........................................................................
   1    -13.2649755 -0.132650E+02  0.185E-02    0.73       0.0  T
   2    -13.2649742  0.126773E-05  0.220E-02    0.72       1.9  T
   3    -13.2649761 -0.185028E-05  0.873E-03    0.72       4.7  T
   4    -13.2649761 -0.951827E-07  0.354E-03    0.72      11.5  T
   5    -13.2649762 -0.166361E-07  0.794E-04    0.72      51.4  T
     SCC iter.                  ...        0 min,  0.001 sec
     gradient                   ...        0 min,  0.001 sec
 * total energy  :   -13.2053629 Eh     change       -0.2952429E-04 Eh
   gradient norm :     0.0154583 Eh/α   predicted    -0.2000128E-04 ( -32.25%)
   displ. norm   :     0.0128437 α      lambda       -0.4266452E-04
   maximum displ.:     0.0114323 α      in ANC's #3, #6, #2, ...

........................................................................
.............................. CYCLE   16 ..............................
........................................................................
   1    -13.2646913 -0.132647E+02  0.170E-02    0.73       0.0  T
   2    -13.2646913 -0.769820E-07  0.104E-02    0.72       3.9  T
   3    -13.2646910  0.297289E-06  0.116E-02    0.72       3.5  T
   4    -13.2646915 -0.430985E-06  0.330E-03    0.72      12.4  T
   5    -13.2646915 -0.529265E-08  0.689E-04    0.72      59.3  T
   6    -13.2646915 -0.646855E-09  0.236E-04    0.72     172.9  T
     SCC iter.                  ...        0 min,  0.001 sec
     gradient                   ...        0 min,  0.000 sec
 * total energy  :   -13.2053950 Eh     change       -0.3211121E-04 Eh
   gradient norm :     0.0091889 Eh/α   predicted    -0.2133427E-04 ( -33.56%)
   displ. norm   :     0.0173068 α      lambda       -0.5632766E-04
   maximum displ.:     0.0166422 α      in ANC's #3, #1, #2, ...

........................................................................
.............................. CYCLE   17 ..............................
........................................................................
   1    -13.2647992 -0.132648E+02  0.264E-02    0.72       0.0  T
   2    -13.2647989  0.287383E-06  0.178E-02    0.73       2.3  T
   3    -13.2647990 -0.118655E-06  0.168E-02    0.72       2.4  T
   4    -13.2647998 -0.776496E-06  0.442E-03    0.72       9.2  T
   5    -13.2647998 -0.173490E-07  0.635E-04    0.72      64.3  T
   6    -13.2647998 -0.425164E-09  0.163E-04    0.72     250.2  T
     SCC iter.                  ...        0 min,  0.001 sec
     gradient                   ...        0 min,  0.000 sec
 * total energy  :   -13.2054379 Eh     change       -0.4291367E-04 Eh
   gradient norm :     0.0274979 Eh/α   predicted    -0.2817350E-04 ( -34.35%)
   displ. norm   :     0.0245921 α      lambda       -0.7758049E-04
   maximum displ.:     0.0241885 α      in ANC's #3, #1, #6, ...

........................................................................
.............................. CYCLE   18 ..............................
........................................................................
   1    -13.2654203 -0.132654E+02  0.463E-02    0.72       0.0  T
   2    -13.2654153  0.501101E-05  0.450E-02    0.73       1.0  T
   3    -13.2654221 -0.673169E-05  0.247E-02    0.72       1.7  T
   4    -13.2654236 -0.150306E-05  0.598E-03    0.72       6.8  T
   5    -13.2654236 -0.158690E-08  0.626E-04    0.72      65.2  T
     SCC iter.                  ...        0 min,  0.001 sec
     gradient                   ...        0 min,  0.001 sec
 * total energy  :   -13.2054944 Eh     change       -0.5643867E-04 Eh
   gradient norm :     0.0405336 Eh/α   predicted    -0.3881368E-04 ( -31.23%)
   displ. norm   :     0.0228583 α      lambda       -0.6778125E-04
   maximum displ.:     0.0221685 α      in ANC's #3, #6, #2, ...

........................................................................
.............................. CYCLE   19 ..............................
........................................................................
   1    -13.2663353 -0.132663E+02  0.513E-02    0.72       0.0  T
   2    -13.2663259  0.939388E-05  0.579E-02    0.73       1.0  T
   3    -13.2663390 -0.131453E-04  0.235E-02    0.72       1.7  T
   4    -13.2663403 -0.125326E-05  0.575E-03    0.72       7.1  T
   5    -13.2663403 -0.395753E-08  0.534E-04    0.72      76.5  T
     SCC iter.                  ...        0 min,  0.001 sec
     gradient                   ...        0 min,  0.001 sec
 * total energy  :   -13.2055407 Eh     change       -0.4630251E-04 Eh
   gradient norm :     0.0333432 Eh/α   predicted    -0.3390813E-04 ( -26.77%)
   displ. norm   :     0.0108121 α      lambda       -0.3054734E-04
   maximum displ.:     0.0092816 α      in ANC's #3, #2, #6, ...

........................................................................
.............................. CYCLE   20 ..............................
........................................................................
   1    -13.2669285 -0.132669E+02  0.281E-02    0.72       0.0  T
   2    -13.2669250  0.340960E-05  0.342E-02    0.73       1.2  T
   3    -13.2669298 -0.477742E-05  0.119E-02    0.72       3.4  T
   4    -13.2669301 -0.283978E-06  0.226E-03    0.72      18.1  T
   5    -13.2669301 -0.485278E-09  0.522E-04    0.72      78.2  T
     SCC iter.                  ...        0 min,  0.001 sec
     gradient                   ...        0 min,  0.001 sec
 * total energy  :   -13.2055597 Eh     change       -0.1903708E-04 Eh
   gradient norm :     0.0138295 Eh/α   predicted    -0.1527417E-04 ( -19.77%)
   displ. norm   :     0.0028484 α      lambda       -0.5427580E-05
   maximum displ.:     0.0026126 α      in ANC's #1, #2, #6, ...
 * RMSD in coord.:     0.1258245 α      energy gain  -0.4519281E+01 Eh

generating ANC from model Hessian ...
Using Lindh-Hessian (1995)
 Shifting diagonal of input Hessian by   1.866637856157976E-002
 Lowest  eigenvalues of input Hessian
    0.010000    0.010002   -0.000000   -0.000000    0.000000    0.000000
    0.000000    0.000000    0.021334    0.021348    0.031096    0.181902
    0.182323    0.457711    1.263111    1.265285   40.031341  120.065234
 Highest eigenvalues
    0.182323    0.457711    1.263111    1.265285   40.031341  120.065234
 

........................................................................
.............................. CYCLE   21 ..............................
........................................................................
   1    -13.2670164 -0.132670E+02  0.567E-03    0.72       0.0  T
   2    -13.2670163  0.395863E-07  0.479E-03    0.72       8.5  T
   3    -13.2670164 -0.316590E-07  0.370E-03    0.72      11.0  T
   4    -13.2670164 -0.320092E-07  0.574E-04    0.72      71.1  T
   5    -13.2670164 -0.425555E-09  0.284E-04    0.72     143.5  T
     SCC iter.                  ...        0 min,  0.001 sec
     gradient                   ...        0 min,  0.000 sec
 * total energy  :   -13.2055630 Eh     change       -0.3247196E-05 Eh
   gradient norm :     0.0028040 Eh/α   predicted     0.0000000E+00 (-100.00%)
   displ. norm   :     0.0042457 α      lambda       -0.2150410E-05
   maximum displ.:     0.0033201 α      in ANC's #1, #2, #5, ...

........................................................................
.............................. CYCLE   22 ..............................
........................................................................
   1    -13.2669457 -0.132669E+02  0.669E-03    0.72       0.0  T
   2    -13.2669457 -0.220727E-07  0.304E-03    0.72      13.4  T
   3    -13.2669457  0.200677E-07  0.326E-03    0.72      12.5  T
   4    -13.2669457 -0.252177E-07  0.133E-03    0.72      30.7  T
   5    -13.2669457 -0.454429E-08  0.210E-04    0.72     194.5  T
   6    -13.2669457 -0.574314E-10  0.103E-04    0.72     394.8  T
     SCC iter.                  ...        0 min,  0.001 sec
     gradient                   ...        0 min,  0.000 sec
 * total energy  :   -13.2055559 Eh     change        0.7033251E-05 Eh
   gradient norm :     0.0353993 Eh/α   predicted    -0.1073586E-05 (-115.26%)
   displ. norm   :     0.0032320 α      lambda       -0.1609111E-04
   maximum displ.:     0.0024732 α      in ANC's #1, #2, #5, ...

........................................................................
.............................. CYCLE   23 ..............................
........................................................................
   1    -13.2669203 -0.132669E+02  0.552E-03    0.72       0.0  T
   2    -13.2669202  0.764247E-07  0.591E-03    0.72       6.9  T
   3    -13.2669203 -0.118886E-06  0.256E-03    0.72      15.9  T
     SCC iter.                  ...        0 min,  0.000 sec
     gradient                   ...        0 min,  0.001 sec
 * total energy  :   -13.2055563 Eh     change       -0.3505050E-06 Eh
   gradient norm :     0.0340159 Eh/α   predicted    -0.8046633E-05 (2195.73%)
   displ. norm   :     0.0068691 α      lambda       -0.6437302E-04
   maximum displ.:     0.0043777 α      in ANC's #1, #12, #5, ...

........................................................................
.............................. CYCLE   24 ..............................
........................................................................
   1    -13.2670916 -0.132671E+02  0.924E-03    0.72       0.0  T
   2    -13.2670917 -0.504344E-07  0.361E-03    0.72      11.3  T
   3    -13.2670917  0.665777E-08  0.277E-03    0.72      14.7  T
     SCC iter.                  ...        0 min,  0.000 sec
     gradient                   ...        0 min,  0.001 sec
 * total energy  :   -13.2053811 Eh     change        0.1752148E-03 Eh
   gradient norm :     0.1207418 Eh/α   predicted    -0.3218748E-04 (-118.37%)
   displ. norm   :     0.0037291 α      lambda       -0.3652335E-03
   maximum displ.:     0.0030224 α      in ANC's #12, #1, #2, ...

........................................................................
.............................. CYCLE   25 ..............................
........................................................................
   1    -13.2669661 -0.132670E+02  0.663E-03    0.72       0.0  T
   2    -13.2669661 -0.397396E-07  0.203E-03    0.72      20.2  T
   3    -13.2669661  0.372880E-08  0.139E-03    0.72      29.4  T
     SCC iter.                  ...        0 min,  0.000 sec
     gradient                   ...        0 min,  0.000 sec
 * total energy  :   -13.2055635 Eh     change       -0.1824082E-03 Eh
   gradient norm :     0.0028417 Eh/α   predicted    -0.1826199E-03 (   0.12%)
   displ. norm   :     0.0027985 α      lambda       -0.2096446E-06
   maximum displ.:     0.0019494 α      in ANC's #1, #5, #2, ...

........................................................................
.............................. CYCLE   26 ..............................
........................................................................
   1    -13.2669545 -0.132670E+02  0.443E-03    0.72       0.0  T
   2    -13.2669545  0.659332E-07  0.481E-03    0.72       8.5  T
   3    -13.2669546 -0.867278E-07  0.225E-03    0.72      18.2  T
   4    -13.2669546 -0.103753E-07  0.245E-04    0.72     166.6  T
   5    -13.2669546 -0.513261E-10  0.118E-04    0.72     344.9  T
     SCC iter.                  ...        0 min,  0.001 sec
     gradient                   ...        0 min,  0.000 sec
 * total energy  :   -13.2055636 Eh     change       -0.8454533E-07 Eh
   gradient norm :     0.0003040 Eh/α   predicted    -0.1030471E-06 (  21.88%)
   displ. norm   :     0.0023090 α      lambda       -0.4270104E-07
   maximum displ.:     0.0013409 α      in ANC's #2, #1, #3, ...

   *** GEOMETRY OPTIMIZATION CONVERGED AFTER 26 ITERATIONS ***

------------------------------------------------------------------------
 total energy gain   :        -4.5192844 Eh    -2835.8938 kcal/mol
 total RMSD          :         0.1255897 a0        0.0665 Å
 total power (kW/mol):      -456.3607555 (step)********** (real)
------------------------------------------------------------------------

 ANCopt (total)                0 d,  0 h,  0 min,  0.054 sec
 optimizer setup                ...        0 min,  0.000 sec (  0.228%)
 model hessian                  ...        0 min,  0.000 sec (  0.768%)
 ANC generation                 ...        0 min,  0.000 sec (  0.442%)
 coordinate transformation      ...        0 min,  0.000 sec (  0.693%)
 single point calculation       ...        0 min,  0.048 sec ( 89.550%)
 optimization log               ...        0 min,  0.001 sec (  2.037%)
 hessian update                 ...        0 min,  0.000 sec (  0.592%)
 rational function              ...        0 min,  0.001 sec (  2.365%)

================
 final structure:
================
6
 xtb: 6.2.3 (830e466)
F        -3.28909817338676   -0.06505856817210    0.04900014116801
Cl        2.03378869208408    0.04955809258325   -0.02132388793093
C        -0.50177432056467   -0.00752485498285    0.00341295267434
H        -0.59386425162057   -0.64284484760537   -0.85309275634095
H        -0.58008949375892   -0.43536718422913    0.98135024963884
H        -0.62464245275316    1.04912736240621   -0.11507669920930
 
 Bond Distances (Angstroems)
 ---------------------------
C3-H4=1.0704         C3-H5=1.0703         C3-H6=1.0704         H4-C3=1.0704         H5-C3=1.0703         H6-C3=1.0704         
 C  H  Rav=1.0703 sigma=0.0000  Rmin=1.0703  Rmax=1.0704     3
 
 selected bond angles (degree)
 --------------------
H5-C3-H4=119.18                H6-C3-H4=119.18                H6-C3-H5=119.17                
 
 selected dihedral angles (degree)
 ---------------------------------

 
 CMA Distance (Angstroems)
 ---------------------------
R(CMA):  4.5634
           -------------------------------------------------
          |                Final Singlepoint                |
           -------------------------------------------------

          ...................................................
          :                      SETUP                      :
          :.................................................:
          :  # basis functions                  21          :
          :  # atomic orbitals                  20          :
          :  # shells                           10          :
          :  # electrons                        22          :
          :  max. iterations                   250          :
          :  Hamiltonian                  GFN2-xTB          :
          :  restarted?                      false          :
          :  GBSA solvation                   true          :
          :  PC potential                    false          :
          :  electronic temp.          300.0000000     K    :
          :  accuracy                    1.0000000          :
          :  -> integral cutoff          0.2500000E+02      :
          :  -> integral neglect         0.1000000E-07      :
          :  -> SCF convergence          0.1000000E-05 Eh   :
          :  -> wf. convergence          0.1000000E-03 e    :
          :  Broyden damping             0.4000000          :
          ...................................................

 iter      E             dE          RMSdq      gap      omega  full diag
   1    -13.2669546 -0.132670E+02  0.652E-05    0.72       0.0  T
   2    -13.2669546 -0.278355E-11  0.566E-05    0.72     720.8  T
   3    -13.2669546  0.412470E-11  0.637E-05    0.72     641.3  T

   *** convergence criteria satisfied after 3 iterations ***

         #    Occupation            Energy/Eh            Energy/eV
      -------------------------------------------------------------
         1        2.0000           -1.0270445             -27.9473
       ...           ...                  ...                  ...
         5        2.0000           -0.5009828             -13.6324
         6        2.0000           -0.4272370             -11.6257
         7        2.0000           -0.4034952             -10.9797
         8        2.0000           -0.4034952             -10.9797
         9        2.0000           -0.3626369              -9.8679
        10        2.0000           -0.3603533              -9.8057
        11        2.0000           -0.3603523              -9.8057 (HOMO)
        12        0.0000           -0.3339329              -9.0868 (LUMO)
        13                          0.0684406               1.8624
        14                          0.0684407               1.8624
        15                          0.0700341               1.9057
        16                          0.0700342               1.9057
       ...                                ...                  ...
        20                          0.2680231               7.2933
      -------------------------------------------------------------
                  HL-Gap            0.0264195 Eh            0.7189 eV
             Fermi-level           -0.3467926 Eh           -9.4367 eV

 SCC (total)                   0 d,  0 h,  0 min,  0.002 sec
 SCC setup                      ...        0 min,  0.000 sec (  9.409%)
 Dispersion                     ...        0 min,  0.000 sec (  0.801%)
 integral evaluation            ...        0 min,  0.000 sec ( 21.818%)
 zeroth order Hamiltonian       ...        0 min,  0.000 sec (  1.092%)
 iterations                     ...        0 min,  0.000 sec ( 24.862%)
 molecular gradient             ...        0 min,  0.001 sec ( 32.989%)
 printout                       ...        0 min,  0.000 sec (  5.258%)

         :::::::::::::::::::::::::::::::::::::::::::::::::::::
         ::                     SUMMARY                     ::
         :::::::::::::::::::::::::::::::::::::::::::::::::::::
         :: total energy             -13.205563568252 Eh    ::
         :: total w/o Gsasa/hb       -13.203456877303 Eh    ::
         :: gradient norm              0.000304073645 Eh/a0 ::
         :: HOMO-LUMO gap              0.718909898420 eV    ::
         ::.................................................::
         :: SCC energy               -13.264259206275 Eh    ::
         :: -> isotropic ES            0.230035799945 Eh    ::
         :: -> anisotropic ES         -0.002256528049 Eh    ::
         :: -> anisotropic XC          0.005693250837 Eh    ::
         :: -> dispersion             -0.001805507594 Eh    ::
         :: -> Gsolv                  -0.112085153198 Eh    ::
         ::    -> Gborn               -0.109978462249 Eh    ::
         ::    -> Gsasa                0.000837931664 Eh    ::
         ::    -> Ghb                 -0.004802065741 Eh    ::
         ::    -> Gshift               0.001857443127 Eh    ::
         :: repulsion energy           0.058672543312 Eh    ::
         :: add. restraining           0.000024382210 Eh    ::
         :::::::::::::::::::::::::::::::::::::::::::::::::::::

           -------------------------------------------------
          |                Property Printout                |
           -------------------------------------------------

    * Orbital Energies and Occupations

         #    Occupation            Energy/Eh            Energy/eV
      -------------------------------------------------------------
         1        2.0000           -1.0270445             -27.9473
         2        2.0000           -0.6305503             -17.1581
         3        2.0000           -0.5989234             -16.2975
         4        2.0000           -0.5010074             -13.6331
         5        2.0000           -0.5009828             -13.6324
         6        2.0000           -0.4272370             -11.6257
         7        2.0000           -0.4034952             -10.9797
         8        2.0000           -0.4034952             -10.9797
         9        2.0000           -0.3626369              -9.8679
        10        2.0000           -0.3603533              -9.8057
        11        2.0000           -0.3603523              -9.8057 (HOMO)
        12        0.0000           -0.3339329              -9.0868 (LUMO)
        13                          0.0684406               1.8624
        14                          0.0684407               1.8624
        15                          0.0700341               1.9057
        16                          0.0700342               1.9057
        17                          0.0705576               1.9200
        18                          0.1127047               3.0669
        19                          0.2679210               7.2905
        20                          0.2680231               7.2933
      -------------------------------------------------------------
                  HL-Gap            0.0264195 Eh            0.7189 eV
             Fermi-level           -0.3467926 Eh           -9.4367 eV

     #   Z        covCN         q      C6AA      α(0)
     1   9 F      0.000    -0.843    21.133     5.354
     2  17 Cl     0.144    -0.507   108.583    15.860
     3   6 C      2.924    -0.030    28.755     8.794
     4   1 H      0.926     0.127     1.560     1.953
     5   1 H      0.927     0.127     1.561     1.954
     6   1 H      0.926     0.127     1.561     1.954

 Mol. C6AA /au·bohr⁶  :        574.759851
 Mol. C8AA /au·bohr⁸  :      16265.432647
 Mol. α(0) /au        :         35.869020


Wiberg/Mayer (AO) data.
largest (>0.10) Wiberg bond orders for each atom
          total WBO             WBO to atom ...
     1  F   0.211        C    3 0.211
     2  Cl  0.667        C    3 0.666
     3  C   3.824        H    6 0.982    H    5 0.982    H    4 0.982    Cl   2 0.666    F    1 0.211
     4  H   0.984        C    3 0.982
     5  H   0.984        C    3 0.982
     6  H   0.984        C    3 0.982

molecular dipole:
                 x           y           z       tot (Debye)
 q only:        2.891       0.050      -0.055
   full:        2.967       0.052      -0.055       7.544
molecular quadrupole (traceless):
                xx          xy          yy          xz          yz          zz
 q only:      -40.347      -1.255      20.166       0.852       0.018      20.181
  q+dip:      -40.076      -1.244      20.031       0.852       0.018      20.045
   full:      -39.099      -1.211      19.543       0.837       0.017      19.556

           -------------------------------------------------
          |                Geometry Summary                 |
           -------------------------------------------------

      molecular mass/u    :       69.4858989
   center of mass at/Å    :        0.0255680       0.0057749       0.0032986
  moments of inertia/u·Å² :        0.3436244E+01   0.3581811E+03   0.3581823E+03
rotational constants/cm⁻¹ :        0.4905831E+01   0.4706455E-01   0.4706439E-01

 * 3 selected distances

     #   Z        #   Z                                     value/Å
     3   6 C      4   1 H                                 1.0703803 (max)
     3   6 C      5   1 H                                 1.0703007 (min)
     3   6 C      6   1 H                                 1.0703505

 * 1 distinct bonds (by element types)

   Z      Z             #   av. dist./Å        max./Å        min./Å
   1 H    6 C           3     1.0703439     1.0703803     1.0703007


optimized geometry written to: xtbopt.xyz


           -------------------------------------------------
          | TOTAL ENERGY              -13.205563568252 Eh   |
          | GRADIENT NORM               0.000304073645 Eh/α |
          | HOMO-LUMO GAP               0.718909898420 eV   |
           -------------------------------------------------

------------------------------------------------------------------------
 * finished run on 2020/08/20 at 17:46:27.842     
------------------------------------------------------------------------
 total:
 * wall-time:     0 d,  0 h,  0 min,  0.095 sec
 *  cpu-time:     0 d,  0 h,  0 min,  0.319 sec
 * ratio c/w:     3.343 speedup
 SCF:
 * wall-time:     0 d,  0 h,  0 min,  0.005 sec
 *  cpu-time:     0 d,  0 h,  0 min,  0.021 sec
 * ratio c/w:     3.977 speedup
 ANC optimizer:
 * wall-time:     0 d,  0 h,  0 min,  0.056 sec
 *  cpu-time:     0 d,  0 h,  0 min,  0.225 sec
 * ratio c/w:     3.990 speedup

