      -----------------------------------------------------------      
     |                   =====================                   |     
     |                           x T B                           |     
     |                   =====================                   |     
     |                         S. Grimme                         |     
     |          Mulliken Center for Theoretical Chemistry        |     
     |                    University of Bonn                     |     
      -----------------------------------------------------------      

   * xtb version 6.2.3 (830e466) compiled by 'ehlert@majestix' on 2020-03-16

   xtb is free software: you can redistribute it and/or modify it under
   the terms of the GNU Lesser General Public License as published by
   the Free Software Foundation, either version 3 of the License, or
   (at your option) any later version.
   
   xtb is distributed in the hope that it will be useful,
   but WITHOUT ANY WARRANTY; without even the implied warranty of
   MERCHANTABILITY or FITNESS FOR A PARTICULAR PURPOSE.  See the
   GNU Lesser General Public License for more details.
   
   Cite this work as:
   * S. Grimme, C. Bannwarth, P. Shushkov, J. Chem. Theory Comput., 2017,
     13, 1989-2009. DOI: 10.1021/acs.jctc.7b00118
   * C. Bannwarth, S. Ehlert and S. Grimme., J. Chem. Theory Comput., 2019,
     15, 1652-1671. DOI: 10.1021/acs.jctc.8b01176
   * P. Pracht, E. Caldeweyher, S. Ehlert, S. Grimme, ChemRxiv, 2019, preprint.
     DOI: 10.26434/chemrxiv.8326202.v1
   
   for DFT-D4:
   * E. Caldeweyher, C. Bannwarth and S. Grimme, J. Chem. Phys., 2017,
     147, 034112. DOI: 10.1063/1.4993215
   * E. Caldeweyher, S. Ehlert, A. Hansen, H. Neugebauer, S. Spicher,
     C. Bannwarth and S. Grimme, J. Chem. Phys., 2019, 150, 154122.
     DOI: 10.1063/1.5090222
   
   for sTDA-xTB:
   * S. Grimme and C. Bannwarth, J. Chem. Phys., 2016, 145, 054103.
     DOI: 10.1063/1.4959605
   
   in the mass-spec context:
   * V. Asgeirsson, C. Bauer and S. Grimme, Chem. Sci., 2017, 8, 4879.
     DOI: 10.1039/c7sc00601b
   
   for metadynamics refer to:
   * S. Grimme, J. Chem. Theory Comput., 2019, 155, 2847-2862
     DOI: 10.1021/acs.jctc.9b00143
   
   with help from (in alphabetical order)
   C. Bannwarth, F. Bohle, G. Brandenburg, E. Caldeweyher, M. Checinski,
   S. Dohm, S. Ehlert, S. Ehrlich, F. März, H. Neugebauer, J. Pisarek,
   P. Pracht, P. Shushkov, and S. Spicher.
   
 * started run on 2020/08/20 at 17:46:27.976     

           -------------------------------------------------
          |                Calculation Setup                |
           -------------------------------------------------

          program call               : /u/fd/ball4935/opt/bin/xtb 3ixBtq_reactant_constrained_opt6_xtb.xyz --chrg -1 --opt --gbsa Water --input xcontrol_3ixBtq_reactant_constrained_opt6_xtb
          hostname                   : comp0810
          coordinate file            : 3ixBtq_reactant_constrained_opt6_xtb.xyz
          omp threads                :                     4
          number of atoms            :                     6
          number of electrons        :                    22
          charge                     :                    -1
          spin                       :                   0.0
          first test random number   :      0.70067319998388

constraining bond 1 3 to    2.4647000 Å, actual value:    2.6262980 Å
constraining bond 2 3 to    2.9215000 Å, actual value:    2.7287957 Å

molecular fragmentation (1/2 indicates fragments):
122222
# atoms in fragment 1/2:     1     5
 fragment masses (1/2) :       19.00       50.49
CMA distance (Bohr)    :   8.579
constraining FC (au)   : 20.0000
########################################################################
[WARNING] Please study the warnings concerning your input carefully
-2- prog_main: XTBPATH is not set, using XTBHOME instead
-1- prog_main: XTBHOME is not set, using HOME instead
########################################################################
           ------------------------------------------------- 
          |                 G F N 2 - x T B                 |
          | Geometry, Frequencies, Noncovalent interactions |
          |            JCTC 2019 parametrisation            |
           ------------------------------------------------- 
             k(s)              :                1.8500
             k(p)              :                2.2300
             k(d)              :                2.2300
             k(f)              :                2.0000
             kEN (H0ij)        :               -2.0000
             D4 a1             :                0.5200
             D4 a2             :                5.0000
             D4 s6             :                1.0000
             D4 s8             :                2.7000
             D4 s9             :                5.0000
             alphaj            :                2.0000

  Z AO/shell   Hii/eV     exponent
  1     Wed Apr 25 08:07:45 CEST 2018   EN: 2.200 GM2: 0.406  GM3: 0.0800  RAES: 1.40
     1s    -10.707211    1.230000
  6     Wed Apr 25 08:07:45 CEST 2018   EN: 2.550 GM2: 0.538  GM3: 0.1500  RAES: 3.00
     2s    -13.970922    2.096432
     2p    -10.063292    1.800000
  9     Mon Apr 23 13:58:50 CEST 2018   EN: 3.980 GM2: 0.532  GM3: 0.1426  RAES: 2.40
     2s    -23.458179    2.416361
     2p    -15.746583    2.308399
 17     Mon Apr 23 14:09:22 CEST 2018   EN: 3.160 GM2: 0.249  GM3: 0.1495  RAES: 2.50
     3s    -29.278781    2.485265
     3p    -12.673758    2.199650
     3d     -0.240338    2.476089

 Solvent             : Water
 Using internal parameter file: .param_gbsa2_Water
 Gsolv ref. state (COSMO-RS): gsolv [1 M gas/solution]
 temperature (mdtemp)       :    298.150000000000     
 dielectric constant        :    80.2000000000000     
 rho                        :    1.00000000000000     
 mass                       :    18.0000000000000     
 surface tension            :    15.5689454083859     
 probe radius               :   0.975313790000000     
 Gshift (Eh)                :   1.857443126794793E-003
 c1                         :    1.55243817000000     
 soset                      :   0.130326360000000     
 HB correction              :  T
           ------------------------------------------------- 
          |        Self-Consistent Charge Iterations        |
           ------------------------------------------------- 

          ...................................................
          :                      SETUP                      :
          :.................................................:
          :  # basis functions                  21          :
          :  # atomic orbitals                  20          :
          :  # shells                           10          :
          :  # electrons                        22          :
          :  max. iterations                   250          :
          :  Hamiltonian                  GFN2-xTB          :
          :  restarted?                      false          :
          :  GBSA solvation                   true          :
          :  PC potential                    false          :
          :  electronic temp.          300.0000000     K    :
          :  accuracy                    1.0000000          :
          :  -> integral cutoff          0.2500000E+02      :
          :  -> integral neglect         0.1000000E-07      :
          :  -> SCF convergence          0.1000000E-05 Eh   :
          :  -> wf. convergence          0.1000000E-03 e    :
          :  Broyden damping             0.4000000          :
          ...................................................

 iter      E             dE          RMSdq      gap      omega  full diag
   1    -13.0897717 -0.130898E+02  0.917E+00    3.25       0.0  T
   2    -12.6858327  0.403939E+00  0.934E+00    0.12       1.0  T
   3    -13.1841680 -0.498335E+00  0.554E+00    2.05       1.0  T
   4    -13.2405049 -0.563369E-01  0.291E+00    1.36       1.0  T
   5    -13.2410558 -0.550905E-03  0.295E+00    1.34       1.0  T
   6    -13.2503019 -0.924611E-02  0.140E+00    0.65       1.0  T
   7    -13.2571969 -0.689494E-02  0.237E-01    0.93       1.0  T
   8    -13.2532849  0.391195E-02  0.999E-01    0.69       1.0  T
   9    -13.2569896 -0.370470E-02  0.305E-01    0.81       1.0  T
  10    -13.2571092 -0.119549E-03  0.249E-01    0.94       1.0  T
  11    -13.2571490 -0.398504E-04  0.225E-01    0.95       1.0  T
  12    -13.2573228 -0.173759E-03  0.828E-02    0.91       1.0  T
  13    -13.2573476 -0.248531E-04  0.693E-03    0.89       5.9  T
  14    -13.2573476  0.137073E-07  0.421E-03    0.88       9.7  T
  15    -13.2573477 -0.584985E-07  0.127E-03    0.88      32.2  T
  16    -13.2573477 -0.682308E-08  0.244E-05    0.88    1671.9  T
  17    -13.2573477  0.626876E-11  0.448E-05    0.88     910.8  T

   *** convergence criteria satisfied after 17 iterations ***

         #    Occupation            Energy/Eh            Energy/eV
      -------------------------------------------------------------
         1        2.0000           -1.0174994             -27.6876
       ...           ...                  ...                  ...
         5        2.0000           -0.5028669             -13.6837
         6        2.0000           -0.4144696             -11.2783
         7        2.0000           -0.3973478             -10.8124
         8        2.0000           -0.3973477             -10.8124
         9        2.0000           -0.3816397             -10.3849
        10        2.0000           -0.3783459             -10.2953
        11        2.0000           -0.3783452             -10.2953 (HOMO)
        12        0.0000           -0.3458404              -9.4108 (LUMO)
        13                          0.0856394               2.3304
        14                          0.0856399               2.3304
        15                          0.0862999               2.3483
        16                          0.0871696               2.3720
       ...                                ...                  ...
        20                          0.2704762               7.3600
      -------------------------------------------------------------
                  HL-Gap            0.0325047 Eh            0.8845 eV
             Fermi-level           -0.3617564 Eh           -9.8439 eV

 SCC (total)                   0 d,  0 h,  0 min,  0.006 sec
 SCC setup                      ...        0 min,  0.000 sec (  5.628%)
 Dispersion                     ...        0 min,  0.000 sec (  0.548%)
 integral evaluation            ...        0 min,  0.001 sec (  8.573%)
 zeroth order Hamiltonian       ...        0 min,  0.000 sec (  0.532%)
 iterations                     ...        0 min,  0.004 sec ( 69.538%)
 molecular gradient             ...        0 min,  0.001 sec ( 11.804%)
 printout                       ...        0 min,  0.000 sec (  2.131%)

         :::::::::::::::::::::::::::::::::::::::::::::::::::::
         ::                     SUMMARY                     ::
         :::::::::::::::::::::::::::::::::::::::::::::::::::::
         :: total energy              -8.678614361081 Eh    ::
         :: total w/o Gsasa/hb        -8.676880761626 Eh    ::
         :: gradient norm             32.823036419202 Eh/a0 ::
         :: HOMO-LUMO gap              0.884499018548 eV    ::
         ::.................................................::
         :: SCC energy               -13.254723900420 Eh    ::
         :: -> isotropic ES            0.209500933804 Eh    ::
         :: -> anisotropic ES         -0.003058812437 Eh    ::
         :: -> anisotropic XC          0.005989859740 Eh    ::
         :: -> dispersion             -0.001771433684 Eh    ::
         :: -> Gsolv                  -0.103363847041 Eh    ::
         ::    -> Gborn               -0.101630247586 Eh    ::
         ::    -> Gsasa                0.000766332927 Eh    ::
         ::    -> Ghb                 -0.004357375509 Eh    ::
         ::    -> Gshift               0.001857443127 Eh    ::
         :: repulsion energy           0.058795693707 Eh    ::
         :: add. restraining           4.517315177561 Eh    ::
         :::::::::::::::::::::::::::::::::::::::::::::::::::::

      ----------------------------------------------------------- 
     |                   =====================                   |
     |                        A N C O P T                        |
     |                   =====================                   |
     |               Approximate Normal Coordinate               |
     |                Rational Function Optimizer                |
      ----------------------------------------------------------- 

          ...................................................
          :                      SETUP                      :
          :.................................................:
          :   optimization level            normal          :
          :   max. optcycles                   200          :
          :   ANC micro-cycles                  20          :
          :   degrees of freedom                12          :
          :.................................................:
          :   RF solver                   davidson          :
          :   write xtbopt.log                true          :
          :   linear?                        false          :
          :   energy convergence         0.5000000E-05 Eh   :
          :   grad. convergence          0.1000000E-02 Eh/α :
          :   maximium RF displ.         1.0000000          :
          :   Hlow (freq-cutoff)         0.1000000E-01      :
          :   Hmax (freq-cutoff)         5.0000000          :
          :   S6 in model hess.         20.0000000          :
          ...................................................

generating ANC from model Hessian ...
Using Lindh-Hessian (1995)
 Shifting diagonal of input Hessian by    1.53172947110211     
 Lowest  eigenvalues of input Hessian
    0.010000    0.010433   -0.000000   -0.000000   -0.000000    0.000000
    0.000000    0.000000    1.536840    1.681171    1.681288    1.967289
    2.130727    2.130856    3.263420    3.263608   41.536604  121.542998
 Highest eigenvalues
    2.130727    2.130856    3.263420    3.263608   41.536604  121.542998
 

........................................................................
.............................. CYCLE    1 ..............................
........................................................................
   1    -13.2573477 -0.132573E+02  0.254E-05    0.88       0.0  T
   2    -13.2573477  0.819256E-11  0.536E-05    0.88     762.1  T
   3    -13.2573477 -0.110152E-10  0.376E-06    0.88   10851.8  T
     SCC iter.                  ...        0 min,  0.000 sec
     gradient                   ...        0 min,  0.001 sec
 * total energy  :    -8.6786144 Eh     change       -0.2738823E-09 Eh
   gradient norm :    32.8230360 Eh/α   predicted     0.0000000E+00 (-100.00%)
   displ. norm   :     0.9267305 α      lambda       -0.3041811E+02
   maximum displ.:     0.9255892 α      in ANC's #11, #12, #6, ...

........................................................................
.............................. CYCLE    2 ..............................
........................................................................
   1    -13.2106312 -0.132106E+02  0.429E+00    1.83       0.0  T
   2    -13.2196775 -0.904634E-02  0.274E+00    2.38       1.0  T
   3    -13.2412970 -0.216195E-01  0.137E+00    1.51       1.0  T
   4    -13.2444414 -0.314438E-02  0.668E-01    1.24       1.0  T
   5    -13.2448233 -0.381903E-03  0.105E-01    1.27       1.0  T
   6    -13.2448450 -0.217402E-04  0.649E-02    1.24       1.0  T
   7    -13.2448499 -0.483464E-05  0.400E-02    1.26       1.0  T
   8    -13.2448539 -0.405419E-05  0.876E-03    1.26       4.7  T
   9    -13.2448540 -0.101183E-06  0.104E-03    1.26      39.3  T
  10    -13.2448540 -0.234403E-08  0.517E-04    1.26      79.0  T
     SCC iter.                  ...        0 min,  0.001 sec
     gradient                   ...        0 min,  0.000 sec
 * total energy  :    12.3215024 Eh     change        0.2100012E+02 Eh
   gradient norm :    78.2447414 Eh/α   predicted    -0.2827104E+02 (-234.62%)
   displ. norm   :     0.4940337 α      lambda       -0.3863501E+02
   maximum displ.:     0.4938149 α      in ANC's #11, #12, #3, ...

........................................................................
.............................. CYCLE    3 ..............................
........................................................................
   1    -13.2224996 -0.132225E+02  0.434E+00    0.48       0.0  T
   2    -13.2272506 -0.475100E-02  0.230E+00    1.50       1.0  T
   3    -13.2265942  0.656401E-03  0.262E+00    0.78       1.0  T
   4    -13.2508092 -0.242149E-01  0.432E-01    0.97       1.0  T
   5    -13.2493608  0.144832E-02  0.622E-01    0.88       1.0  T
   6    -13.2508348 -0.147394E-02  0.514E-02    0.96       1.0  T
   7    -13.2508308  0.399097E-05  0.448E-02    0.96       1.0  T
   8    -13.2508379 -0.706334E-05  0.119E-02    0.96       3.4  T
   9    -13.2508383 -0.470623E-06  0.499E-03    0.96       8.2  T
  10    -13.2508384 -0.556297E-07  0.301E-03    0.96      13.6  T
     SCC iter.                  ...        0 min,  0.001 sec
     gradient                   ...        0 min,  0.000 sec
 * total energy  :   -11.6798566 Eh     change       -0.2400136E+02 Eh
   gradient norm :    19.0162200 Eh/α   predicted    -0.2403232E+02 (   0.13%)
   displ. norm   :     0.1954304 α      lambda       -0.3047915E+01
   maximum displ.:     0.1554511 α      in ANC's #11, #12, #1, ...

........................................................................
.............................. CYCLE    4 ..............................
........................................................................
   1    -13.2544448 -0.132544E+02  0.115E+00    1.00       0.0  T
   2    -13.2562913 -0.184644E-02  0.261E-01    1.17       1.0  T
   3    -13.2560908  0.200424E-03  0.242E-01    1.21       1.0  T
   4    -13.2563228 -0.231929E-03  0.184E-01    1.16       1.0  T
   5    -13.2563984 -0.756694E-04  0.147E-02    1.17       2.8  T
   6    -13.2563986 -0.128816E-06  0.123E-02    1.17       3.3  T
   7    -13.2563990 -0.420307E-06  0.512E-03    1.17       8.0  T
   8    -13.2563990 -0.557310E-07  0.700E-04    1.17      58.3  T
     SCC iter.                  ...        0 min,  0.001 sec
     gradient                   ...        0 min,  0.001 sec
 * total energy  :   -12.9980403 Eh     change       -0.1318184E+01 Eh
   gradient norm :     3.9554953 Eh/α   predicted    -0.1582161E+01 (  20.03%)
   displ. norm   :     0.4680798 α      lambda       -0.1837873E+01
   maximum displ.:     0.4576874 α      in ANC's #12, #11, #3, ...

........................................................................
.............................. CYCLE    5 ..............................
........................................................................
   1    -13.2418804 -0.132419E+02  0.107E+00    0.71       0.0  T
   2    -13.2434607 -0.158025E-02  0.483E-01    0.70       1.0  T
   3    -13.2435250 -0.643607E-04  0.271E-01    0.79       1.0  T
   4    -13.2437466 -0.221579E-03  0.157E-01    0.74       1.0  T
   5    -13.2437937 -0.471416E-04  0.455E-02    0.75       1.0  T
   6    -13.2438003 -0.654091E-05  0.300E-02    0.76       1.4  T
   7    -13.2438031 -0.277723E-05  0.496E-03    0.75       8.2  T
   8    -13.2438031 -0.554053E-07  0.237E-03    0.75      17.2  T
     SCC iter.                  ...        0 min,  0.001 sec
     gradient                   ...        0 min,  0.000 sec
 * total energy  :   -10.0713265 Eh     change        0.2926714E+01 Eh
   gradient norm :    18.3392946 Eh/α   predicted    -0.1120274E+01 (-138.28%)
   displ. norm   :     0.3280051 α      lambda       -0.5565595E+01
   maximum displ.:     0.3150481 α      in ANC's #12, #11, #3, ...

........................................................................
.............................. CYCLE    6 ..............................
........................................................................
   1    -13.2508759 -0.132509E+02  0.709E-01    1.01       0.0  T
   2    -13.2507518  0.124098E-03  0.573E-01    1.09       1.0  T
   3    -13.2509782 -0.226475E-03  0.475E-01    0.98       1.0  T
   4    -13.2518749 -0.896689E-03  0.116E-01    1.05       1.0  T
   5    -13.2519027 -0.277278E-04  0.376E-02    1.03       1.1  T
   6    -13.2519077 -0.503097E-05  0.644E-03    1.04       6.3  T
   7    -13.2519077 -0.281131E-07  0.142E-03    1.04      28.8  T
   8    -13.2519077 -0.253556E-08  0.868E-04    1.04      47.0  T
     SCC iter.                  ...        0 min,  0.001 sec
     gradient                   ...        0 min,  0.000 sec
 * total energy  :   -13.1528635 Eh     change       -0.3081537E+01 Eh
   gradient norm :     1.8225672 Eh/α   predicted    -0.3082193E+01 (   0.02%)
   displ. norm   :     0.0461025 α      lambda       -0.7962149E-01
   maximum displ.:     0.0441522 α      in ANC's #12, #1, #2, ...

........................................................................
.............................. CYCLE    7 ..............................
........................................................................
   1    -13.2534017 -0.132534E+02  0.455E-02    1.08       0.0  T
   2    -13.2534047 -0.301404E-05  0.186E-02    1.08       2.2  T
   3    -13.2534042  0.452926E-06  0.169E-02    1.07       2.4  T
   4    -13.2534047 -0.480698E-06  0.118E-02    1.08       3.5  T
   5    -13.2534050 -0.320311E-06  0.273E-03    1.08      14.9  T
   6    -13.2534051 -0.136994E-07  0.749E-04    1.08      54.5  T
     SCC iter.                  ...        0 min,  0.001 sec
     gradient                   ...        0 min,  0.001 sec
 * total energy  :   -13.1926812 Eh     change       -0.3981771E-01 Eh
   gradient norm :     0.0189036 Eh/α   predicted    -0.3989534E-01 (   0.19%)
   displ. norm   :     0.1043358 α      lambda       -0.1500607E-03
   maximum displ.:     0.0947551 α      in ANC's #1, #2, #3, ...

........................................................................
.............................. CYCLE    8 ..............................
........................................................................
   1    -13.2532303 -0.132532E+02  0.130E-01    1.07       0.0  T
   2    -13.2532313 -0.101067E-05  0.791E-02    1.07       1.0  T
   3    -13.2532034  0.279596E-04  0.881E-02    1.08       1.0  T
   4    -13.2532331 -0.297455E-04  0.101E-02    1.07       4.0  T
   5    -13.2532331 -0.915870E-08  0.168E-03    1.07      24.3  T
   6    -13.2532331 -0.480971E-08  0.972E-04    1.07      42.0  T
     SCC iter.                  ...        0 min,  0.001 sec
     gradient                   ...        0 min,  0.001 sec
 * total energy  :   -13.1921345 Eh     change        0.5466915E-03 Eh
   gradient norm :     0.0474040 Eh/α   predicted    -0.7584822E-04 (-113.87%)
   displ. norm   :     0.0926747 α      lambda       -0.1177636E-02
   maximum displ.:     0.0835926 α      in ANC's #1, #2, #3, ...

........................................................................
.............................. CYCLE    9 ..............................
........................................................................
   1    -13.2535867 -0.132536E+02  0.115E-01    1.07       0.0  T
   2    -13.2535881 -0.137219E-05  0.690E-02    1.08       1.0  T
   3    -13.2535886 -0.468975E-06  0.129E-02    1.07       3.2  T
   4    -13.2535881  0.509376E-06  0.152E-02    1.08       2.7  T
   5    -13.2535888 -0.722807E-06  0.359E-03    1.08      11.4  T
   6    -13.2535888 -0.313197E-07  0.792E-04    1.08      51.5  T
     SCC iter.                  ...        0 min,  0.001 sec
     gradient                   ...        0 min,  0.001 sec
 * total energy  :   -13.1927331 Eh     change       -0.5985828E-03 Eh
   gradient norm :     0.0094284 Eh/α   predicted    -0.5938780E-03 (  -0.79%)
   displ. norm   :     0.0229981 α      lambda       -0.4838344E-04
   maximum displ.:     0.0174251 α      in ANC's #2, #1, #3, ...

........................................................................
.............................. CYCLE   10 ..............................
........................................................................
   1    -13.2537153 -0.132537E+02  0.333E-02    1.08       0.0  T
   2    -13.2537153  0.325840E-07  0.213E-02    1.08       1.9  T
   3    -13.2537121  0.321243E-05  0.301E-02    1.08       1.4  T
   4    -13.2537155 -0.344185E-05  0.263E-03    1.08      15.5  T
   5    -13.2537155 -0.276797E-08  0.135E-03    1.08      30.2  T
   6    -13.2537155 -0.392983E-09  0.250E-04    1.08     163.2  T
     SCC iter.                  ...        0 min,  0.001 sec
     gradient                   ...        0 min,  0.001 sec
 * total energy  :   -13.1927494 Eh     change       -0.1631010E-04 Eh
   gradient norm :     0.0111779 Eh/α   predicted    -0.2420590E-04 (  48.41%)
   displ. norm   :     0.0599866 α      lambda       -0.3579545E-03
   maximum displ.:     0.0484600 α      in ANC's #3, #2, #1, ...

........................................................................
.............................. CYCLE   11 ..............................
........................................................................
   1    -13.2546450 -0.132546E+02  0.708E-02    1.07       0.0  T
   2    -13.2546403  0.476204E-05  0.648E-02    1.07       1.0  T
   3    -13.2546440 -0.367605E-05  0.475E-02    1.08       1.0  T
   4    -13.2546499 -0.592208E-05  0.170E-02    1.08       2.4  T
   5    -13.2546501 -0.226823E-06  0.230E-03    1.08      17.8  T
   6    -13.2546501 -0.915987E-09  0.401E-04    1.08     101.7  T
     SCC iter.                  ...        0 min,  0.001 sec
     gradient                   ...        0 min,  0.001 sec
 * total energy  :   -13.1929590 Eh     change       -0.2095498E-03 Eh
   gradient norm :     0.0425844 Eh/α   predicted    -0.1796037E-03 ( -14.29%)
   displ. norm   :     0.0523315 α      lambda       -0.2935221E-03
   maximum displ.:     0.0508630 α      in ANC's #3, #1, #6, ...

........................................................................
.............................. CYCLE   12 ..............................
........................................................................
   1    -13.2552347 -0.132552E+02  0.599E-02    1.08       0.0  T
   2    -13.2552288  0.593981E-05  0.623E-02    1.08       1.0  T
   3    -13.2552370 -0.822017E-05  0.361E-02    1.09       1.1  T
   4    -13.2552402 -0.318106E-05  0.148E-02    1.08       2.8  T
   5    -13.2552403 -0.117013E-06  0.118E-03    1.08      34.5  T
   6    -13.2552403 -0.147283E-09  0.311E-04    1.08     131.3  T
     SCC iter.                  ...        0 min,  0.001 sec
     gradient                   ...        0 min,  0.001 sec
 * total energy  :   -13.1931694 Eh     change       -0.2103688E-03 Eh
   gradient norm :     0.0105218 Eh/α   predicted    -0.1471647E-03 ( -30.04%)
   displ. norm   :     0.0453508 α      lambda       -0.1263713E-03
   maximum displ.:     0.0431135 α      in ANC's #3, #1, #2, ...

........................................................................
.............................. CYCLE   13 ..............................
........................................................................
   1    -13.2552472 -0.132552E+02  0.535E-02    1.08       0.0  T
   2    -13.2552406  0.653438E-05  0.578E-02    1.08       1.0  T
   3    -13.2552490 -0.840536E-05  0.329E-02    1.09       1.2  T
   4    -13.2552516 -0.256204E-05  0.114E-02    1.08       3.6  T
   5    -13.2552516 -0.103925E-07  0.118E-03    1.08      34.6  T
   6    -13.2552516 -0.342411E-09  0.301E-04    1.08     135.8  T
     SCC iter.                  ...        0 min,  0.001 sec
     gradient                   ...        0 min,  0.001 sec
 * total energy  :   -13.1932389 Eh     change       -0.6956527E-04 Eh
   gradient norm :     0.0046677 Eh/α   predicted    -0.6331457E-04 (  -8.99%)
   displ. norm   :     0.0052987 α      lambda       -0.5845067E-05
   maximum displ.:     0.0031423 α      in ANC's #3, #1, #2, ...

........................................................................
.............................. CYCLE   14 ..............................
........................................................................
   1    -13.2550613 -0.132551E+02  0.924E-03    1.09       0.0  T
   2    -13.2550606  0.617257E-06  0.139E-02    1.08       2.9  T
   3    -13.2550614 -0.762390E-06  0.441E-03    1.09       9.3  T
   4    -13.2550614 -0.273611E-07  0.128E-03    1.08      31.9  T
   5    -13.2550614 -0.311344E-08  0.318E-04    1.08     128.3  T
     SCC iter.                  ...        0 min,  0.001 sec
     gradient                   ...        0 min,  0.001 sec
 * total energy  :   -13.1932431 Eh     change       -0.4227060E-05 Eh
   gradient norm :     0.0023343 Eh/α   predicted    -0.2922008E-05 ( -30.87%)
   displ. norm   :     0.0035199 α      lambda       -0.4416655E-05
   maximum displ.:     0.0023575 α      in ANC's #6, #1, #2, ...

........................................................................
.............................. CYCLE   15 ..............................
........................................................................
   1    -13.2547423 -0.132547E+02  0.111E-02    1.09       0.0  T
   2    -13.2547411  0.118564E-05  0.186E-02    1.08       2.2  T
   3    -13.2547425 -0.145777E-05  0.452E-03    1.09       9.0  T
   4    -13.2547426 -0.422709E-07  0.605E-04    1.09      67.5  T
   5    -13.2547426 -0.286086E-09  0.305E-04    1.09     133.7  T
     SCC iter.                  ...        0 min,  0.001 sec
     gradient                   ...        0 min,  0.001 sec
 * total energy  :   -13.1932461 Eh     change       -0.2982897E-05 Eh
   gradient norm :     0.0017083 Eh/α   predicted    -0.2208982E-05 ( -25.95%)
   displ. norm   :     0.0030506 α      lambda       -0.2062656E-05
   maximum displ.:     0.0028047 α      in ANC's #6, #3, #1, ...

........................................................................
.............................. CYCLE   16 ..............................
........................................................................
   1    -13.2543493 -0.132543E+02  0.127E-02    1.09       0.0  T
   2    -13.2543477  0.158310E-05  0.214E-02    1.08       1.9  T
   3    -13.2543497 -0.194474E-05  0.522E-03    1.09       7.8  T
   4    -13.2543497 -0.554582E-07  0.225E-03    1.09      18.2  T
   5    -13.2543497 -0.969792E-08  0.133E-04    1.09     306.6  T
   6    -13.2543497 -0.120863E-10  0.221E-05    1.09    1844.3  T
     SCC iter.                  ...        0 min,  0.001 sec
     gradient                   ...        0 min,  0.001 sec
 * total energy  :   -13.1932476 Eh     change       -0.1516183E-05 Eh
   gradient norm :     0.0016386 Eh/α   predicted    -0.1033358E-05 ( -31.84%)
   displ. norm   :     0.0017625 α      lambda       -0.3010881E-06
   maximum displ.:     0.0012319 α      in ANC's #1, #2, #3, ...

........................................................................
.............................. CYCLE   17 ..............................
........................................................................
   1    -13.2543768 -0.132544E+02  0.243E-03    1.09       0.0  T
   2    -13.2543767  0.124234E-07  0.235E-03    1.09      17.4  T
   3    -13.2543768 -0.940160E-08  0.176E-03    1.09      23.2  T
   4    -13.2543768 -0.728013E-08  0.223E-04    1.09     183.1  T
   5    -13.2543768 -0.584954E-10  0.102E-04    1.09     398.5  T
     SCC iter.                  ...        0 min,  0.001 sec
     gradient                   ...        0 min,  0.001 sec
 * total energy  :   -13.1932479 Eh     change       -0.2185263E-06 Eh
   gradient norm :     0.0000787 Eh/α   predicted    -0.1488297E-06 ( -31.89%)
   displ. norm   :     0.0001434 α      lambda       -0.4225688E-08
   maximum displ.:     0.0000938 α      in ANC's #1, #2, #3, ...

   *** GEOMETRY OPTIMIZATION CONVERGED AFTER 17 ITERATIONS ***

------------------------------------------------------------------------
 total energy gain   :        -4.5146335 Eh    -2832.9753 kcal/mol
 total RMSD          :         0.1317016 a0        0.0697 Å
 total power (kW/mol):      -697.2452138 (step)********** (real)
------------------------------------------------------------------------

 ANCopt (total)                0 d,  0 h,  0 min,  0.037 sec
 optimizer setup                ...        0 min,  0.000 sec (  0.295%)
 model hessian                  ...        0 min,  0.000 sec (  0.718%)
 ANC generation                 ...        0 min,  0.000 sec (  0.385%)
 coordinate transformation      ...        0 min,  0.000 sec (  0.610%)
 single point calculation       ...        0 min,  0.033 sec ( 89.367%)
 optimization log               ...        0 min,  0.001 sec (  2.031%)
 hessian update                 ...        0 min,  0.000 sec (  0.760%)
 rational function              ...        0 min,  0.001 sec (  2.412%)

================
 final structure:
================
6
 xtb: 6.2.3 (830e466)
F        -3.13405217378716   -0.06200823672116    0.04646654241145
Cl        2.24980541813982    0.05477725415051   -0.02168652371237
C        -0.67056791282657   -0.01129922572752    0.00485978543340
H        -0.66401371287413   -0.64725446964107   -0.85635836328515
H        -0.64524813708424   -0.43860432732773    0.98601936726115
H        -0.69159348156746    1.05228900526696   -0.11503080810845
 
 Bond Distances (Angstroems)
 ---------------------------
C3-H4=1.0706         C3-H5=1.0705         C3-H6=1.0705         H4-C3=1.0706         H5-C3=1.0705         H6-C3=1.0705         
 C  H  Rav=1.0705 sigma=0.0001  Rmin=1.0705  Rmax=1.0706     3
 
 selected bond angles (degree)
 --------------------
H5-C3-H4=120.00                H6-C3-H4=120.01                H6-C3-H5=119.98                
 
 selected dihedral angles (degree)
 ---------------------------------

 
 CMA Distance (Angstroems)
 ---------------------------
R(CMA):  4.5159
           -------------------------------------------------
          |                Final Singlepoint                |
           -------------------------------------------------

          ...................................................
          :                      SETUP                      :
          :.................................................:
          :  # basis functions                  21          :
          :  # atomic orbitals                  20          :
          :  # shells                           10          :
          :  # electrons                        22          :
          :  max. iterations                   250          :
          :  Hamiltonian                  GFN2-xTB          :
          :  restarted?                      false          :
          :  GBSA solvation                   true          :
          :  PC potential                    false          :
          :  electronic temp.          300.0000000     K    :
          :  accuracy                    1.0000000          :
          :  -> integral cutoff          0.2500000E+02      :
          :  -> integral neglect         0.1000000E-07      :
          :  -> SCF convergence          0.1000000E-05 Eh   :
          :  -> wf. convergence          0.1000000E-03 e    :
          :  Broyden damping             0.4000000          :
          ...................................................

 iter      E             dE          RMSdq      gap      omega  full diag
   1    -13.2543768 -0.132544E+02  0.200E-05    1.09       0.0  T
   2    -13.2543768 -0.198952E-12  0.152E-05    1.09    2680.6  T
   3    -13.2543768  0.817124E-13  0.120E-05    1.09    3409.3  T

   *** convergence criteria satisfied after 3 iterations ***

         #    Occupation            Energy/Eh            Energy/eV
      -------------------------------------------------------------
         1        2.0000           -1.0082189             -27.4350
       ...           ...                  ...                  ...
         5        2.0000           -0.5061093             -13.7719
         6        2.0000           -0.4123472             -11.2205
         7        2.0000           -0.3962483             -10.7825
         8        2.0000           -0.3962481             -10.7825
         9        2.0000           -0.3954373             -10.7604
        10        2.0000           -0.3930879             -10.6965
        11        2.0000           -0.3930875             -10.6965 (HOMO)
        12                         -0.3531958              -9.6109 (LUMO)
        13                          0.1009874               2.7480
        14                          0.1024226               2.7871
        15                          0.1024240               2.7871
        16                          0.1037779               2.8239
       ...                                ...                  ...
        20                          0.2675821               7.2813
      -------------------------------------------------------------
                  HL-Gap            0.0398917 Eh            1.0855 eV
             Fermi-level           -0.3727937 Eh          -10.1442 eV

 SCC (total)                   0 d,  0 h,  0 min,  0.002 sec
 SCC setup                      ...        0 min,  0.000 sec (  8.994%)
 Dispersion                     ...        0 min,  0.000 sec (  0.803%)
 integral evaluation            ...        0 min,  0.000 sec ( 21.254%)
 zeroth order Hamiltonian       ...        0 min,  0.000 sec (  1.799%)
 iterations                     ...        0 min,  0.000 sec ( 26.927%)
 molecular gradient             ...        0 min,  0.001 sec ( 30.068%)
 printout                       ...        0 min,  0.000 sec (  6.503%)

         :::::::::::::::::::::::::::::::::::::::::::::::::::::
         ::                     SUMMARY                     ::
         :::::::::::::::::::::::::::::::::::::::::::::::::::::
         :: total energy             -13.193247862824 Eh    ::
         :: total w/o Gsasa/hb       -13.191659526195 Eh    ::
         :: gradient norm              0.000078980715 Eh/a0 ::
         :: HOMO-LUMO gap              1.085509113234 eV    ::
         ::.................................................::
         :: SCC energy               -13.251825215695 Eh    ::
         :: -> isotropic ES            0.197371963042 Eh    ::
         :: -> anisotropic ES         -0.004190654396 Eh    ::
         :: -> anisotropic XC          0.006286437787 Eh    ::
         :: -> dispersion             -0.001726132139 Eh    ::
         :: -> Gsolv                  -0.099246609190 Eh    ::
         ::    -> Gborn               -0.097658272561 Eh    ::
         ::    -> Gsasa                0.000694106253 Eh    ::
         ::    -> Ghb                 -0.004139886008 Eh    ::
         ::    -> Gshift               0.001857443127 Eh    ::
         :: repulsion energy           0.058565539927 Eh    ::
         :: add. restraining           0.000013161658 Eh    ::
         :::::::::::::::::::::::::::::::::::::::::::::::::::::

           -------------------------------------------------
          |                Property Printout                |
           -------------------------------------------------

    * Orbital Energies and Occupations

         #    Occupation            Energy/Eh            Energy/eV
      -------------------------------------------------------------
         1        2.0000           -1.0082189             -27.4350
         2        2.0000           -0.6778772             -18.4460
         3        2.0000           -0.6040420             -16.4368
         4        2.0000           -0.5061420             -13.7728
         5        2.0000           -0.5061093             -13.7719
         6        2.0000           -0.4123472             -11.2205
         7        2.0000           -0.3962483             -10.7825
         8        2.0000           -0.3962481             -10.7825
         9        2.0000           -0.3954373             -10.7604
        10        2.0000           -0.3930879             -10.6965
        11        2.0000           -0.3930875             -10.6965 (HOMO)
        12                         -0.3531958              -9.6109 (LUMO)
        13                          0.1009874               2.7480
        14                          0.1024226               2.7871
        15                          0.1024240               2.7871
        16                          0.1037779               2.8239
        17                          0.1038124               2.8249
        18                          0.1038128               2.8249
        19                          0.2675460               7.2803
        20                          0.2675821               7.2813
      -------------------------------------------------------------
                  HL-Gap            0.0398917 Eh            1.0855 eV
             Fermi-level           -0.3727937 Eh          -10.1442 eV

     #   Z        covCN         q      C6AA      α(0)
     1   9 F      0.000    -0.665    17.875     4.924
     2  17 Cl     0.003    -0.738   116.703    16.441
     3   6 C      2.782    -0.018    28.450     8.736
     4   1 H      0.926     0.140     1.458     1.888
     5   1 H      0.926     0.140     1.459     1.889
     6   1 H      0.926     0.140     1.459     1.889

 Mol. C6AA /au·bohr⁶  :        568.553318
 Mol. C8AA /au·bohr⁸  :      16368.009112
 Mol. α(0) /au        :         35.767359


Wiberg/Mayer (AO) data.
largest (>0.10) Wiberg bond orders for each atom
          total WBO             WBO to atom ...
     1  F   0.470        C    3 0.470
     2  Cl  0.368        C    3 0.368
     3  C   3.774        H    5 0.979    H    6 0.979    H    4 0.979    F    1 0.470    Cl   2 0.368
     4  H   0.980        C    3 0.979
     5  H   0.980        C    3 0.979
     6  H   0.980        C    3 0.979

molecular dipole:
                 x           y           z       tot (Debye)
 q only:        0.295      -0.007      -0.025
   full:        0.436      -0.004      -0.026       1.110
molecular quadrupole (traceless):
                xx          xy          yy          xz          yz          zz
 q only:      -36.870      -1.191      18.427       0.721       0.016      18.443
  q+dip:      -36.729      -1.183      18.357       0.726       0.016      18.372
   full:      -35.740      -1.151      17.862       0.708       0.016      17.877

           -------------------------------------------------
          |                Geometry Summary                 |
           -------------------------------------------------

      molecular mass/u    :       69.4858989
   center of mass at/Å    :        0.1460651       0.0085544       0.0026920
  moments of inertia/u·Å² :        0.3466698E+01   0.3732854E+03   0.3732873E+03
rotational constants/cm⁻¹ :        0.4862735E+01   0.4516017E-01   0.4515994E-01

 * 3 selected distances

     #   Z        #   Z                                     value/Å
     3   6 C      4   1 H                                 1.0705974 (max)
     3   6 C      5   1 H                                 1.0704695 (min)
     3   6 C      6   1 H                                 1.0705306

 * 1 distinct bonds (by element types)

   Z      Z             #   av. dist./Å        max./Å        min./Å
   1 H    6 C           3     1.0705325     1.0705974     1.0704695


optimized geometry written to: xtbopt.xyz


           -------------------------------------------------
          | TOTAL ENERGY              -13.193247862824 Eh   |
          | GRADIENT NORM               0.000078980715 Eh/α |
          | HOMO-LUMO GAP               1.085509113234 eV   |
           -------------------------------------------------

------------------------------------------------------------------------
 * finished run on 2020/08/20 at 17:46:28.068     
------------------------------------------------------------------------
 total:
 * wall-time:     0 d,  0 h,  0 min,  0.092 sec
 *  cpu-time:     0 d,  0 h,  0 min,  0.296 sec
 * ratio c/w:     3.225 speedup
 SCF:
 * wall-time:     0 d,  0 h,  0 min,  0.006 sec
 *  cpu-time:     0 d,  0 h,  0 min,  0.025 sec
 * ratio c/w:     3.985 speedup
 ANC optimizer:
 * wall-time:     0 d,  0 h,  0 min,  0.039 sec
 *  cpu-time:     0 d,  0 h,  0 min,  0.157 sec
 * ratio c/w:     3.987 speedup

