      -----------------------------------------------------------      
     |                   =====================                   |     
     |                           x T B                           |     
     |                   =====================                   |     
     |                         S. Grimme                         |     
     |          Mulliken Center for Theoretical Chemistry        |     
     |                    University of Bonn                     |     
      -----------------------------------------------------------      

   * xtb version 6.2.3 (830e466) compiled by 'ehlert@majestix' on 2020-03-16

   xtb is free software: you can redistribute it and/or modify it under
   the terms of the GNU Lesser General Public License as published by
   the Free Software Foundation, either version 3 of the License, or
   (at your option) any later version.
   
   xtb is distributed in the hope that it will be useful,
   but WITHOUT ANY WARRANTY; without even the implied warranty of
   MERCHANTABILITY or FITNESS FOR A PARTICULAR PURPOSE.  See the
   GNU Lesser General Public License for more details.
   
   Cite this work as:
   * S. Grimme, C. Bannwarth, P. Shushkov, J. Chem. Theory Comput., 2017,
     13, 1989-2009. DOI: 10.1021/acs.jctc.7b00118
   * C. Bannwarth, S. Ehlert and S. Grimme., J. Chem. Theory Comput., 2019,
     15, 1652-1671. DOI: 10.1021/acs.jctc.8b01176
   * P. Pracht, E. Caldeweyher, S. Ehlert, S. Grimme, ChemRxiv, 2019, preprint.
     DOI: 10.26434/chemrxiv.8326202.v1
   
   for DFT-D4:
   * E. Caldeweyher, C. Bannwarth and S. Grimme, J. Chem. Phys., 2017,
     147, 034112. DOI: 10.1063/1.4993215
   * E. Caldeweyher, S. Ehlert, A. Hansen, H. Neugebauer, S. Spicher,
     C. Bannwarth and S. Grimme, J. Chem. Phys., 2019, 150, 154122.
     DOI: 10.1063/1.5090222
   
   for sTDA-xTB:
   * S. Grimme and C. Bannwarth, J. Chem. Phys., 2016, 145, 054103.
     DOI: 10.1063/1.4959605
   
   in the mass-spec context:
   * V. Asgeirsson, C. Bauer and S. Grimme, Chem. Sci., 2017, 8, 4879.
     DOI: 10.1039/c7sc00601b
   
   for metadynamics refer to:
   * S. Grimme, J. Chem. Theory Comput., 2019, 155, 2847-2862
     DOI: 10.1021/acs.jctc.9b00143
   
   with help from (in alphabetical order)
   C. Bannwarth, F. Bohle, G. Brandenburg, E. Caldeweyher, M. Checinski,
   S. Dohm, S. Ehlert, S. Ehrlich, F. März, H. Neugebauer, J. Pisarek,
   P. Pracht, P. Shushkov, and S. Spicher.
   
 * started run on 2020/08/20 at 17:46:28.091     

           -------------------------------------------------
          |                Calculation Setup                |
           -------------------------------------------------

          program call               : /u/fd/ball4935/opt/bin/xtb 3ixBtq_reactant_constrained_opt7_xtb.xyz --chrg -1 --opt --gbsa Water --input xcontrol_3ixBtq_reactant_constrained_opt7_xtb
          hostname                   : comp0810
          coordinate file            : 3ixBtq_reactant_constrained_opt7_xtb.xyz
          omp threads                :                     4
          number of atoms            :                     6
          number of electrons        :                    22
          charge                     :                    -1
          spin                       :                   0.0
          first test random number   :      0.50163161039291

constraining bond 1 3 to    2.3028000 Å, actual value:    2.4643532 Å
constraining bond 2 3 to    3.1138000 Å, actual value:    2.9212482 Å

molecular fragmentation (1/2 indicates fragments):
122222
# atoms in fragment 1/2:     1     5
 fragment masses (1/2) :       19.00       50.49
CMA distance (Bohr)    :   8.534
constraining FC (au)   : 20.0000
########################################################################
[WARNING] Please study the warnings concerning your input carefully
-2- prog_main: XTBPATH is not set, using XTBHOME instead
-1- prog_main: XTBHOME is not set, using HOME instead
########################################################################
           ------------------------------------------------- 
          |                 G F N 2 - x T B                 |
          | Geometry, Frequencies, Noncovalent interactions |
          |            JCTC 2019 parametrisation            |
           ------------------------------------------------- 
             k(s)              :                1.8500
             k(p)              :                2.2300
             k(d)              :                2.2300
             k(f)              :                2.0000
             kEN (H0ij)        :               -2.0000
             D4 a1             :                0.5200
             D4 a2             :                5.0000
             D4 s6             :                1.0000
             D4 s8             :                2.7000
             D4 s9             :                5.0000
             alphaj            :                2.0000

  Z AO/shell   Hii/eV     exponent
  1     Wed Apr 25 08:07:45 CEST 2018   EN: 2.200 GM2: 0.406  GM3: 0.0800  RAES: 1.40
     1s    -10.707211    1.230000
  6     Wed Apr 25 08:07:45 CEST 2018   EN: 2.550 GM2: 0.538  GM3: 0.1500  RAES: 3.00
     2s    -13.970922    2.096432
     2p    -10.063292    1.800000
  9     Mon Apr 23 13:58:50 CEST 2018   EN: 3.980 GM2: 0.532  GM3: 0.1426  RAES: 2.40
     2s    -23.458179    2.416361
     2p    -15.746583    2.308399
 17     Mon Apr 23 14:09:22 CEST 2018   EN: 3.160 GM2: 0.249  GM3: 0.1495  RAES: 2.50
     3s    -29.278781    2.485265
     3p    -12.673758    2.199650
     3d     -0.240338    2.476089

 Solvent             : Water
 Using internal parameter file: .param_gbsa2_Water
 Gsolv ref. state (COSMO-RS): gsolv [1 M gas/solution]
 temperature (mdtemp)       :    298.150000000000     
 dielectric constant        :    80.2000000000000     
 rho                        :    1.00000000000000     
 mass                       :    18.0000000000000     
 surface tension            :    15.5689454083859     
 probe radius               :   0.975313790000000     
 Gshift (Eh)                :   1.857443126794793E-003
 c1                         :    1.55243817000000     
 soset                      :   0.130326360000000     
 HB correction              :  T
           ------------------------------------------------- 
          |        Self-Consistent Charge Iterations        |
           ------------------------------------------------- 

          ...................................................
          :                      SETUP                      :
          :.................................................:
          :  # basis functions                  21          :
          :  # atomic orbitals                  20          :
          :  # shells                           10          :
          :  # electrons                        22          :
          :  max. iterations                   250          :
          :  Hamiltonian                  GFN2-xTB          :
          :  restarted?                      false          :
          :  GBSA solvation                   true          :
          :  PC potential                    false          :
          :  electronic temp.          300.0000000     K    :
          :  accuracy                    1.0000000          :
          :  -> integral cutoff          0.2500000E+02      :
          :  -> integral neglect         0.1000000E-07      :
          :  -> SCF convergence          0.1000000E-05 Eh   :
          :  -> wf. convergence          0.1000000E-03 e    :
          :  Broyden damping             0.4000000          :
          ...................................................

 iter      E             dE          RMSdq      gap      omega  full diag
   1    -13.0876834 -0.130877E+02  0.928E+00    3.17       0.0  T
   2    -12.7302160  0.357467E+00  0.945E+00    0.21       1.0  T
   3    -13.1720481 -0.441832E+00  0.594E+00    1.77       1.0  T
   4    -13.2391394 -0.670913E-01  0.283E+00    0.92       1.0  T
   5    -13.2366803  0.245910E-02  0.273E+00    1.02       1.0  T
   6    -13.2539166 -0.172363E-01  0.420E-01    1.09       1.0  T
   7    -13.2540218 -0.105223E-03  0.366E-01    1.08       1.0  T
   8    -13.2524255  0.159625E-02  0.712E-01    1.02       1.0  T
   9    -13.2543644 -0.193885E-02  0.899E-02    1.09       1.0  T
  10    -13.2542777  0.866907E-04  0.155E-01    1.08       1.0  T
  11    -13.2543137 -0.359521E-04  0.130E-01    1.08       1.0  T
  12    -13.2543751 -0.614464E-04  0.203E-02    1.08       2.0  T
  13    -13.2543766 -0.154010E-05  0.869E-03    1.09       4.7  T
  14    -13.2543770 -0.323919E-06  0.518E-04    1.09      78.9  T
  15    -13.2543770 -0.106704E-09  0.407E-04    1.09     100.3  T

   *** convergence criteria satisfied after 15 iterations ***

         #    Occupation            Energy/Eh            Energy/eV
      -------------------------------------------------------------
         1        2.0000           -1.0082168             -27.4350
       ...           ...                  ...                  ...
         5        2.0000           -0.5061098             -13.7719
         6        2.0000           -0.4123491             -11.2206
         7        2.0000           -0.3962528             -10.7826
         8        2.0000           -0.3962525             -10.7826
         9        2.0000           -0.3954385             -10.7604
        10        2.0000           -0.3930870             -10.6964
        11        2.0000           -0.3930867             -10.6964 (HOMO)
        12                         -0.3531971              -9.6110 (LUMO)
        13                          0.1009895               2.7481
        14                          0.1024265               2.7872
        15                          0.1024278               2.7872
        16                          0.1037802               2.8240
       ...                                ...                  ...
        20                          0.2675870               7.2814
      -------------------------------------------------------------
                  HL-Gap            0.0398896 Eh            1.0855 eV
             Fermi-level           -0.3727941 Eh          -10.1442 eV

 SCC (total)                   0 d,  0 h,  0 min,  0.006 sec
 SCC setup                      ...        0 min,  0.000 sec (  5.959%)
 Dispersion                     ...        0 min,  0.000 sec (  0.620%)
 integral evaluation            ...        0 min,  0.000 sec (  8.843%)
 zeroth order Hamiltonian       ...        0 min,  0.000 sec (  0.582%)
 iterations                     ...        0 min,  0.004 sec ( 68.997%)
 molecular gradient             ...        0 min,  0.001 sec ( 10.859%)
 printout                       ...        0 min,  0.000 sec (  2.619%)

         :::::::::::::::::::::::::::::::::::::::::::::::::::::
         ::                     SUMMARY                     ::
         :::::::::::::::::::::::::::::::::::::::::::::::::::::
         :: total energy              -8.681175577030 Eh    ::
         :: total w/o Gsasa/hb        -8.679587221601 Eh    ::
         :: gradient norm             32.829918501990 Eh/a0 ::
         :: HOMO-LUMO gap              1.085451127941 eV    ::
         ::.................................................::
         :: SCC energy               -13.251825416546 Eh    ::
         :: -> isotropic ES            0.197378674573 Eh    ::
         :: -> anisotropic ES         -0.004190958704 Eh    ::
         :: -> anisotropic XC          0.006286470923 Eh    ::
         :: -> dispersion             -0.001726129057 Eh    ::
         :: -> Gsolv                  -0.099246668698 Eh    ::
         ::    -> Gborn               -0.097658313269 Eh    ::
         ::    -> Gsasa                0.000694105304 Eh    ::
         ::    -> Ghb                 -0.004139903860 Eh    ::
         ::    -> Gshift               0.001857443127 Eh    ::
         :: repulsion energy           0.058565786971 Eh    ::
         :: add. restraining           4.512085401509 Eh    ::
         :::::::::::::::::::::::::::::::::::::::::::::::::::::

      ----------------------------------------------------------- 
     |                   =====================                   |
     |                        A N C O P T                        |
     |                   =====================                   |
     |               Approximate Normal Coordinate               |
     |                Rational Function Optimizer                |
      ----------------------------------------------------------- 

          ...................................................
          :                      SETUP                      :
          :.................................................:
          :   optimization level            normal          :
          :   max. optcycles                   200          :
          :   ANC micro-cycles                  20          :
          :   degrees of freedom                12          :
          :.................................................:
          :   RF solver                   davidson          :
          :   write xtbopt.log                true          :
          :   linear?                        false          :
          :   energy convergence         0.5000000E-05 Eh   :
          :   grad. convergence          0.1000000E-02 Eh/α :
          :   maximium RF displ.         1.0000000          :
          :   Hlow (freq-cutoff)         0.1000000E-01      :
          :   Hmax (freq-cutoff)         5.0000000          :
          :   S6 in model hess.         20.0000000          :
          ...................................................

generating ANC from model Hessian ...
Using Lindh-Hessian (1995)
 Shifting diagonal of input Hessian by    1.12630410575065     
 Lowest  eigenvalues of input Hessian
    0.010000    0.010344   -0.000000   -0.000000    0.000000    0.000000
    0.000000    0.000000    1.130256    1.275868    1.275900    1.560316
    1.776338    1.776382    3.251065    3.251413   41.131100  121.133630
 Highest eigenvalues
    1.776338    1.776382    3.251065    3.251413   41.131100  121.133630
 

........................................................................
.............................. CYCLE    1 ..............................
........................................................................
   1    -13.2543770 -0.132544E+02  0.848E-05    1.09       0.0  T
   2    -13.2543770  0.697220E-10  0.141E-04    1.09     290.0  T
   3    -13.2543770 -0.849187E-10  0.363E-05    1.09    1123.9  T
     SCC iter.                  ...        0 min,  0.000 sec
     gradient                   ...        0 min,  0.001 sec
 * total energy  :    -8.6811756 Eh     change        0.5316316E-09 Eh
   gradient norm :    32.8299231 Eh/α   predicted     0.0000000E+00 (-100.00%)
   displ. norm   :     0.9267452 α      lambda       -0.3042497E+02
   maximum displ.:     0.9256054 α      in ANC's #11, #12, #10, ...

........................................................................
.............................. CYCLE    2 ..............................
........................................................................
   1    -13.2408956 -0.132409E+02  0.311E+00    3.00       0.0  T
   2    -13.2509652 -0.100696E-01  0.149E+00    2.94       1.0  T
   3    -13.2543521 -0.338687E-02  0.927E-01    2.29       1.0  T
   4    -13.2557990 -0.144697E-02  0.458E-01    2.12       1.0  T
   5    -13.2558934 -0.943694E-04  0.410E-02    2.09       1.0  T
   6    -13.2558957 -0.226849E-05  0.302E-02    2.09       1.4  T
   7    -13.2558971 -0.141541E-05  0.980E-03    2.09       4.2  T
   8    -13.2558972 -0.103674E-06  0.300E-03    2.10      13.6  T
   9    -13.2558972 -0.307968E-07  0.340E-04    2.10     120.1  T
     SCC iter.                  ...        0 min,  0.001 sec
     gradient                   ...        0 min,  0.000 sec
 * total energy  :    12.3194197 Eh     change        0.2100060E+02 Eh
   gradient norm :    78.2588722 Eh/α   predicted    -0.2827783E+02 (-234.65%)
   displ. norm   :     0.4940327 α      lambda       -0.3864212E+02
   maximum displ.:     0.4938194 α      in ANC's #11, #12, #3, ...

........................................................................
.............................. CYCLE    3 ..............................
........................................................................
   1    -13.2459581 -0.132460E+02  0.211E+00    0.54       0.0  T
   2    -13.2538032 -0.784511E-02  0.917E-01    0.79       1.0  T
   3    -13.2535698  0.233428E-03  0.569E-01    1.00       1.0  T
   4    -13.2544315 -0.861736E-03  0.520E-01    0.87       1.0  T
   5    -13.2549628 -0.531288E-03  0.993E-02    0.94       1.0  T
   6    -13.2549843 -0.215505E-04  0.293E-02    0.93       1.4  T
   7    -13.2549873 -0.292162E-05  0.963E-03    0.94       4.2  T
   8    -13.2549874 -0.154487E-06  0.364E-03    0.94      11.2  T
   9    -13.2549875 -0.336020E-07  0.960E-04    0.94      42.5  T
     SCC iter.                  ...        0 min,  0.001 sec
     gradient                   ...        0 min,  0.000 sec
 * total energy  :   -11.6843372 Eh     change       -0.2400376E+02 Eh
   gradient norm :    19.0146653 Eh/α   predicted    -0.2403672E+02 (   0.14%)
   displ. norm   :     0.1953057 α      lambda       -0.3046447E+01
   maximum displ.:     0.1553707 α      in ANC's #11, #12, #1, ...

........................................................................
.............................. CYCLE    4 ..............................
........................................................................
   1    -13.2574639 -0.132575E+02  0.854E-01    0.86       0.0  T
   2    -13.2583745 -0.910675E-03  0.371E-01    0.98       1.0  T
   3    -13.2581602  0.214352E-03  0.299E-01    1.08       1.0  T
   4    -13.2585871 -0.426869E-03  0.169E-01    1.02       1.0  T
   5    -13.2586462 -0.591086E-04  0.799E-03    1.03       5.1  T
   6    -13.2586462 -0.753469E-07  0.525E-03    1.03       7.8  T
   7    -13.2586463 -0.486965E-07  0.220E-03    1.03      18.6  T
     SCC iter.                  ...        0 min,  0.001 sec
     gradient                   ...        0 min,  0.000 sec
 * total energy  :   -13.0024354 Eh     change       -0.1318098E+01 Eh
   gradient norm :     3.9524338 Eh/α   predicted    -0.1581326E+01 (  19.97%)
   displ. norm   :     0.4680009 α      lambda       -0.1836290E+01
   maximum displ.:     0.4575855 α      in ANC's #12, #11, #3, ...

........................................................................
.............................. CYCLE    5 ..............................
........................................................................
   1    -13.2385083 -0.132385E+02  0.180E+00    0.45       0.0  T
   2    -13.2402306 -0.172222E-02  0.105E+00    0.86       1.0  T
   3    -13.2365395  0.369107E-02  0.134E+00    0.58       1.0  T
   4    -13.2435179 -0.697839E-02  0.188E-01    0.67       1.0  T
   5    -13.2434509  0.670172E-04  0.166E-01    0.63       1.0  T
   6    -13.2435381 -0.872028E-04  0.259E-02    0.66       1.6  T
   7    -13.2435348  0.324864E-05  0.328E-02    0.65       1.2  T
   8    -13.2435388 -0.399761E-05  0.442E-03    0.65       9.2  T
   9    -13.2435389 -0.726729E-07  0.105E-03    0.65      39.0  T
     SCC iter.                  ...        0 min,  0.001 sec
     gradient                   ...        0 min,  0.000 sec
 * total energy  :   -10.0766501 Eh     change        0.2925785E+01 Eh
   gradient norm :    18.3310612 Eh/α   predicted    -0.1119242E+01 (-138.25%)
   displ. norm   :     0.3279987 α      lambda       -0.5563473E+01
   maximum displ.:     0.3150414 α      in ANC's #12, #11, #3, ...

........................................................................
.............................. CYCLE    6 ..............................
........................................................................
   1    -13.2525098 -0.132525E+02  0.818E-01    1.08       0.0  T
   2    -13.2524144  0.954032E-04  0.658E-01    0.98       1.0  T
   3    -13.2530705 -0.656067E-03  0.388E-01    0.84       1.0  T
   4    -13.2537514 -0.680931E-03  0.149E-01    0.90       1.0  T
   5    -13.2538000 -0.486351E-04  0.251E-02    0.88       1.6  T
   6    -13.2538018 -0.176024E-05  0.661E-03    0.88       6.2  T
   7    -13.2538018 -0.240199E-07  0.183E-03    0.88      22.3  T
   8    -13.2538018 -0.486801E-08  0.953E-04    0.88      42.9  T
     SCC iter.                  ...        0 min,  0.001 sec
     gradient                   ...        0 min,  0.000 sec
 * total energy  :   -13.1570053 Eh     change       -0.3080355E+01 Eh
   gradient norm :     1.8218847 Eh/α   predicted    -0.3081004E+01 (   0.02%)
   displ. norm   :     0.0461160 α      lambda       -0.7961101E-01
   maximum displ.:     0.0441353 α      in ANC's #12, #1, #3, ...

........................................................................
.............................. CYCLE    7 ..............................
........................................................................
   1    -13.2559348 -0.132559E+02  0.669E-02    0.94       0.0  T
   2    -13.2559386 -0.384349E-05  0.370E-02    0.93       1.1  T
   3    -13.2559368  0.180905E-05  0.362E-02    0.92       1.1  T
   4    -13.2559421 -0.533469E-05  0.108E-02    0.93       3.8  T
   5    -13.2559423 -0.175104E-06  0.302E-03    0.93      13.5  T
   6    -13.2559423 -0.158891E-07  0.615E-04    0.93      66.4  T
     SCC iter.                  ...        0 min,  0.001 sec
     gradient                   ...        0 min,  0.000 sec
 * total energy  :   -13.1968446 Eh     change       -0.3983929E-01 Eh
   gradient norm :     0.0196829 Eh/α   predicted    -0.3989017E-01 (   0.13%)
   displ. norm   :     0.0655046 α      lambda       -0.1231924E-03
   maximum displ.:     0.0572798 α      in ANC's #1, #2, #3, ...

........................................................................
.............................. CYCLE    8 ..............................
........................................................................
   1    -13.2563017 -0.132563E+02  0.786E-02    0.93       0.0  T
   2    -13.2563022 -0.507019E-06  0.473E-02    0.93       1.0  T
   3    -13.2562997  0.251129E-05  0.274E-02    0.93       1.5  T
   4    -13.2563025 -0.284967E-05  0.599E-03    0.93       6.8  T
   5    -13.2563026 -0.317059E-07  0.191E-03    0.93      21.4  T
   6    -13.2563026 -0.486420E-09  0.301E-04    0.93     135.7  T
     SCC iter.                  ...        0 min,  0.001 sec
     gradient                   ...        0 min,  0.000 sec
 * total energy  :   -13.1967459 Eh     change        0.9872305E-04 Eh
   gradient norm :     0.0201513 Eh/α   predicted    -0.6185892E-04 (-162.66%)
   displ. norm   :     0.0529814 α      lambda       -0.4365186E-03
   maximum displ.:     0.0448315 α      in ANC's #1, #2, #3, ...

........................................................................
.............................. CYCLE    9 ..............................
........................................................................
   1    -13.2572586 -0.132573E+02  0.619E-02    0.93       0.0  T
   2    -13.2572591 -0.498606E-06  0.371E-02    0.93       1.1  T
   3    -13.2572586  0.508686E-06  0.140E-02    0.93       2.9  T
   4    -13.2572589 -0.347146E-06  0.103E-02    0.93       4.0  T
   5    -13.2572593 -0.350671E-06  0.222E-03    0.93      18.4  T
   6    -13.2572593 -0.521297E-09  0.222E-04    0.93     184.1  T
     SCC iter.                  ...        0 min,  0.001 sec
     gradient                   ...        0 min,  0.000 sec
 * total energy  :   -13.1970376 Eh     change       -0.2917861E-03 Eh
   gradient norm :     0.0306738 Eh/α   predicted    -0.2188733E-03 ( -24.99%)
   displ. norm   :     0.0375512 α      lambda       -0.2414307E-03
   maximum displ.:     0.0300963 α      in ANC's #3, #1, #2, ...

........................................................................
.............................. CYCLE   10 ..............................
........................................................................
   1    -13.2585760 -0.132586E+02  0.382E-02    0.92       0.0  T
   2    -13.2585758  0.176541E-06  0.309E-02    0.93       1.3  T
   3    -13.2585761 -0.314294E-06  0.219E-02    0.93       1.9  T
   4    -13.2585773 -0.122752E-05  0.982E-03    0.93       4.2  T
   5    -13.2585775 -0.146292E-06  0.120E-03    0.93      33.9  T
   6    -13.2585775 -0.765766E-09  0.148E-04    0.93     276.6  T
     SCC iter.                  ...        0 min,  0.001 sec
     gradient                   ...        0 min,  0.000 sec
 * total energy  :   -13.1972219 Eh     change       -0.1842352E-03 Eh
   gradient norm :     0.0297941 Eh/α   predicted    -0.1208833E-03 ( -34.39%)
   displ. norm   :     0.0809905 α      lambda       -0.3271352E-03
   maximum displ.:     0.0599088 α      in ANC's #3, #2, #1, ...

........................................................................
.............................. CYCLE   11 ..............................
........................................................................
   1    -13.2602613 -0.132603E+02  0.960E-02    0.92       0.0  T
   2    -13.2602545  0.678074E-05  0.823E-02    0.92       1.0  T
   3    -13.2602617 -0.727246E-05  0.575E-02    0.94       1.0  T
   4    -13.2602696 -0.789800E-05  0.155E-02    0.93       2.6  T
   5    -13.2602698 -0.176181E-06  0.257E-03    0.93      15.9  T
   6    -13.2602698 -0.137539E-08  0.306E-04    0.93     133.4  T
     SCC iter.                  ...        0 min,  0.001 sec
     gradient                   ...        0 min,  0.000 sec
 * total energy  :   -13.1973004 Eh     change       -0.7850343E-04 Eh
   gradient norm :     0.0221070 Eh/α   predicted    -0.1646367E-03 ( 109.72%)
   displ. norm   :     0.2066438 α      lambda       -0.9672287E-03
   maximum displ.:     0.1548392 α      in ANC's #3, #2, #1, ...

........................................................................
.............................. CYCLE   12 ..............................
........................................................................
   1    -13.2620081 -0.132620E+02  0.247E-01    0.91       0.0  T
   2    -13.2619652  0.429146E-04  0.203E-01    0.91       1.0  T
   3    -13.2619979 -0.327536E-04  0.157E-01    0.95       1.0  T
   4    -13.2620629 -0.649162E-04  0.367E-02    0.93       1.1  T
   5    -13.2620632 -0.336318E-06  0.599E-03    0.93       6.8  T
   6    -13.2620632 -0.484790E-08  0.979E-04    0.93      41.7  T
     SCC iter.                  ...        0 min,  0.001 sec
     gradient                   ...        0 min,  0.000 sec
 * total energy  :   -13.1967761 Eh     change        0.5242854E-03 Eh
   gradient norm :     0.0466294 Eh/α   predicted    -0.5042542E-03 (-196.18%)
   displ. norm   :     0.1360517 α      lambda       -0.1276157E-02
   maximum displ.:     0.1092384 α      in ANC's #3, #2, #1, ...

........................................................................
.............................. CYCLE   13 ..............................
........................................................................
   1    -13.2605201 -0.132605E+02  0.156E-01    0.95       0.0  T
   2    -13.2605179  0.211241E-05  0.107E-01    0.95       1.0  T
   3    -13.2605036  0.143590E-04  0.108E-01    0.92       1.0  T
   4    -13.2605388 -0.352339E-04  0.264E-02    0.94       1.5  T
   5    -13.2605392 -0.420027E-06  0.373E-03    0.94      10.9  T
   6    -13.2605392 -0.216522E-08  0.754E-04    0.94      54.1  T
     SCC iter.                  ...        0 min,  0.001 sec
     gradient                   ...        0 min,  0.000 sec
 * total energy  :   -13.1975059 Eh     change       -0.7297544E-03 Eh
   gradient norm :     0.0183763 Eh/α   predicted    -0.6498894E-03 ( -10.94%)
   displ. norm   :     0.0153623 α      lambda       -0.5071458E-04
   maximum displ.:     0.0105794 α      in ANC's #2, #3, #6, ...

........................................................................
.............................. CYCLE   14 ..............................
........................................................................
   1    -13.2597360 -0.132597E+02  0.220E-02    0.94       0.0  T
   2    -13.2597353  0.661696E-06  0.178E-02    0.93       2.3  T
   3    -13.2597359 -0.615809E-06  0.152E-02    0.94       2.7  T
   4    -13.2597365 -0.553035E-06  0.332E-03    0.94      12.3  T
   5    -13.2597365 -0.550654E-08  0.734E-04    0.94      55.6  T
   6    -13.2597365 -0.572673E-09  0.106E-04    0.94     383.9  T
     SCC iter.                  ...        0 min,  0.001 sec
     gradient                   ...        0 min,  0.000 sec
 * total energy  :   -13.1975395 Eh     change       -0.3364709E-04 Eh
   gradient norm :     0.0049095 Eh/α   predicted    -0.2536130E-04 ( -24.63%)
   displ. norm   :     0.0103601 α      lambda       -0.3378234E-04
   maximum displ.:     0.0063118 α      in ANC's #6, #3, #2, ...

........................................................................
.............................. CYCLE   15 ..............................
........................................................................
   1    -13.2589345 -0.132589E+02  0.303E-02    0.94       0.0  T
   2    -13.2589288  0.572332E-05  0.424E-02    0.93       1.0  T
   3    -13.2589367 -0.792855E-05  0.112E-02    0.94       3.7  T
   4    -13.2589369 -0.230554E-06  0.151E-03    0.94      27.1  T
   5    -13.2589369 -0.363284E-08  0.484E-04    0.94      84.4  T
     SCC iter.                  ...        0 min,  0.001 sec
     gradient                   ...        0 min,  0.000 sec
 * total energy  :   -13.1975639 Eh     change       -0.2438438E-04 Eh
   gradient norm :     0.0064454 Eh/α   predicted    -0.1689359E-04 ( -30.72%)
   displ. norm   :     0.0129168 α      lambda       -0.1942244E-04
   maximum displ.:     0.0112535 α      in ANC's #3, #6, #1, ...

........................................................................
.............................. CYCLE   16 ..............................
........................................................................
   1    -13.2582477 -0.132582E+02  0.319E-02    0.94       0.0  T
   2    -13.2582412  0.658004E-05  0.460E-02    0.93       1.0  T
   3    -13.2582504 -0.922131E-05  0.108E-02    0.94       3.8  T
   4    -13.2582506 -0.190184E-06  0.359E-03    0.94      11.4  T
   5    -13.2582506 -0.209349E-07  0.419E-04    0.94      97.5  T
   6    -13.2582506 -0.281284E-09  0.441E-05    0.94     925.6  T
     SCC iter.                  ...        0 min,  0.001 sec
     gradient                   ...        0 min,  0.000 sec
 * total energy  :   -13.1975746 Eh     change       -0.1075052E-04 Eh
   gradient norm :     0.0029333 Eh/α   predicted    -0.9712025E-05 (  -9.66%)
   displ. norm   :     0.0023249 α      lambda       -0.8568301E-06
   maximum displ.:     0.0016234 α      in ANC's #2, #3, #6, ...

........................................................................
.............................. CYCLE   17 ..............................
........................................................................
   1    -13.2581834 -0.132582E+02  0.415E-03    0.94       0.0  T
   2    -13.2581833  0.782474E-07  0.522E-03    0.94       7.8  T
   3    -13.2581834 -0.108138E-06  0.185E-03    0.94      22.0  T
   4    -13.2581834 -0.526023E-08  0.310E-04    0.94     131.5  T
   5    -13.2581834 -0.905302E-10  0.943E-05    0.94     433.1  T
     SCC iter.                  ...        0 min,  0.001 sec
     gradient                   ...        0 min,  0.000 sec
 * total energy  :   -13.1975752 Eh     change       -0.5365063E-06 Eh
   gradient norm :     0.0007657 Eh/α   predicted    -0.4289470E-06 ( -20.05%)
   displ. norm   :     0.0011741 α      lambda       -0.1273164E-06
   maximum displ.:     0.0008461 α      in ANC's #2, #1, #8, ...

   *** GEOMETRY OPTIMIZATION CONVERGED AFTER 17 ITERATIONS ***

------------------------------------------------------------------------
 total energy gain   :        -4.5163996 Eh    -2834.0835 kcal/mol
 total RMSD          :         0.1351880 a0        0.0715 Å
 total power (kW/mol):      -697.5179710 (step)********** (real)
------------------------------------------------------------------------

 ANCopt (total)                0 d,  0 h,  0 min,  0.035 sec
 optimizer setup                ...        0 min,  0.000 sec (  0.372%)
 model hessian                  ...        0 min,  0.000 sec (  0.804%)
 ANC generation                 ...        0 min,  0.000 sec (  0.426%)
 coordinate transformation      ...        0 min,  0.000 sec (  0.705%)
 single point calculation       ...        0 min,  0.032 sec ( 89.167%)
 optimization log               ...        0 min,  0.001 sec (  2.084%)
 hessian update                 ...        0 min,  0.000 sec (  0.611%)
 rational function              ...        0 min,  0.001 sec (  2.323%)

================
 final structure:
================
6
 xtb: 6.2.3 (830e466)
F        -3.05081542699741   -0.06032703573847    0.04514175382515
Cl        2.36339909322110    0.05749632881167   -0.02146730703492
C        -0.74934416499618   -0.01299920869925    0.00569319512743
H        -0.70528524644645   -0.64843276620042   -0.85637853270854
H        -0.68273994382505   -0.43945694540938    0.98611949914080
H        -0.73087431095599    1.05162962723584   -0.11483860834987
 
 Bond Distances (Angstroems)
 ---------------------------
C3-H4=1.0719         C3-H5=1.0712         C3-H6=1.0716         H4-C3=1.0719         H5-C3=1.0712         H6-C3=1.0716         
 C  H  Rav=1.0716 sigma=0.0003  Rmin=1.0712  Rmax=1.0719     3
 
 selected bond angles (degree)
 --------------------
H5-C3-H4=119.84                H6-C3-H4=119.86                H6-C3-H5=119.83                
 
 selected dihedral angles (degree)
 ---------------------------------

 
 CMA Distance (Angstroems)
 ---------------------------
R(CMA):  4.4913
           -------------------------------------------------
          |                Final Singlepoint                |
           -------------------------------------------------

          ...................................................
          :                      SETUP                      :
          :.................................................:
          :  # basis functions                  21          :
          :  # atomic orbitals                  20          :
          :  # shells                           10          :
          :  # electrons                        22          :
          :  max. iterations                   250          :
          :  Hamiltonian                  GFN2-xTB          :
          :  restarted?                      false          :
          :  GBSA solvation                   true          :
          :  PC potential                    false          :
          :  electronic temp.          300.0000000     K    :
          :  accuracy                    1.0000000          :
          :  -> integral cutoff          0.2500000E+02      :
          :  -> integral neglect         0.1000000E-07      :
          :  -> SCF convergence          0.1000000E-05 Eh   :
          :  -> wf. convergence          0.1000000E-03 e    :
          :  Broyden damping             0.4000000          :
          ...................................................

 iter      E             dE          RMSdq      gap      omega  full diag
   1    -13.2581834 -0.132582E+02  0.264E-05    0.94       0.0  T
   2    -13.2581834 -0.301981E-13  0.146E-05    0.94    2787.0  T
   3    -13.2581834  0.110312E-11  0.233E-05    0.94    1755.8  T

   *** convergence criteria satisfied after 3 iterations ***

         #    Occupation            Energy/Eh            Energy/eV
      -------------------------------------------------------------
         1        2.0000           -0.9987482             -27.1773
       ...           ...                  ...                  ...
         5        2.0000           -0.5104614             -13.8904
         6        2.0000           -0.4306233             -11.7179
         7        2.0000           -0.4147006             -11.2846
         8        2.0000           -0.4147000             -11.2846
         9        2.0000           -0.3943121             -10.7298
        10        2.0000           -0.3905326             -10.6269
        11        2.0000           -0.3905317             -10.6269 (HOMO)
        12                         -0.3560053              -9.6874 (LUMO)
        13                          0.0986145               2.6834
        14                          0.1194006               3.2491
        15                          0.1194024               3.2491
        16                          0.1194180               3.2495
       ...                                ...                  ...
        20                          0.2616587               7.1201
      -------------------------------------------------------------
                  HL-Gap            0.0345263 Eh            0.9395 eV
             Fermi-level           -0.3729351 Eh          -10.1481 eV

 SCC (total)                   0 d,  0 h,  0 min,  0.002 sec
 SCC setup                      ...        0 min,  0.000 sec (  8.455%)
 Dispersion                     ...        0 min,  0.000 sec (  0.805%)
 integral evaluation            ...        0 min,  0.000 sec ( 22.711%)
 zeroth order Hamiltonian       ...        0 min,  0.000 sec (  1.253%)
 iterations                     ...        0 min,  0.000 sec ( 27.513%)
 molecular gradient             ...        0 min,  0.000 sec ( 29.272%)
 printout                       ...        0 min,  0.000 sec (  5.816%)

         :::::::::::::::::::::::::::::::::::::::::::::::::::::
         ::                     SUMMARY                     ::
         :::::::::::::::::::::::::::::::::::::::::::::::::::::
         :: total energy             -13.197575169377 Eh    ::
         :: total w/o Gsasa/hb       -13.195938871201 Eh    ::
         :: gradient norm              0.000766079860 Eh/a0 ::
         :: HOMO-LUMO gap              0.939509707989 eV    ::
         ::.................................................::
         :: SCC energy               -13.255704635600 Eh    ::
         :: -> isotropic ES            0.192520360258 Eh    ::
         :: -> anisotropic ES         -0.005535618539 Eh    ::
         :: -> anisotropic XC          0.006545792690 Eh    ::
         :: -> dispersion             -0.001668670634 Eh    ::
         :: -> Gsolv                  -0.099470574732 Eh    ::
         ::    -> Gborn               -0.097834276557 Eh    ::
         ::    -> Gsasa                0.000621319789 Eh    ::
         ::    -> Ghb                 -0.004115061091 Eh    ::
         ::    -> Gshift               0.001857443127 Eh    ::
         :: repulsion energy           0.058111239288 Eh    ::
         :: add. restraining           0.000019556574 Eh    ::
         :::::::::::::::::::::::::::::::::::::::::::::::::::::

           -------------------------------------------------
          |                Property Printout                |
           -------------------------------------------------

    * Orbital Energies and Occupations

         #    Occupation            Energy/Eh            Energy/eV
      -------------------------------------------------------------
         1        2.0000           -0.9987482             -27.1773
         2        2.0000           -0.7004650             -19.0606
         3        2.0000           -0.6086882             -16.5632
         4        2.0000           -0.5104729             -13.8907
         5        2.0000           -0.5104614             -13.8904
         6        2.0000           -0.4306233             -11.7179
         7        2.0000           -0.4147006             -11.2846
         8        2.0000           -0.4147000             -11.2846
         9        2.0000           -0.3943121             -10.7298
        10        2.0000           -0.3905326             -10.6269
        11        2.0000           -0.3905317             -10.6269 (HOMO)
        12                         -0.3560053              -9.6874 (LUMO)
        13                          0.0986145               2.6834
        14                          0.1194006               3.2491
        15                          0.1194024               3.2491
        16                          0.1194180               3.2495
        17                          0.1205785               3.2811
        18                          0.1205786               3.2811
        19                          0.2611181               7.1054
        20                          0.2616587               7.1201
      -------------------------------------------------------------
                  HL-Gap            0.0345263 Eh            0.9395 eV
             Fermi-level           -0.3729351 Eh          -10.1481 eV

     #   Z        covCN         q      C6AA      α(0)
     1   9 F      0.004    -0.583    16.555     4.739
     2  17 Cl     0.000    -0.854   121.137    16.750
     3   6 C      2.783    -0.009    28.225     8.702
     4   1 H      0.926     0.149     1.401     1.851
     5   1 H      0.926     0.148     1.402     1.852
     6   1 H      0.926     0.149     1.401     1.851

 Mol. C6AA /au·bohr⁶  :        566.454936
 Mol. C8AA /au·bohr⁸  :      16447.959949
 Mol. α(0) /au        :         35.745136


Wiberg/Mayer (AO) data.
largest (>0.10) Wiberg bond orders for each atom
          total WBO             WBO to atom ...
     1  F   0.599        C    3 0.599
     2  Cl  0.210        C    3 0.210
     3  C   3.738        H    5 0.976    H    6 0.976    H    4 0.976    F    1 0.599    Cl   2 0.210
     4  H   0.978        C    3 0.976
     5  H   0.978        C    3 0.976
     6  H   0.978        C    3 0.976

molecular dipole:
                 x           y           z       tot (Debye)
 q only:       -1.035      -0.036      -0.011
   full:       -0.863      -0.032      -0.013       2.196
molecular quadrupole (traceless):
                xx          xy          yy          xz          yz          zz
 q only:      -36.525      -1.205      18.254       0.674       0.016      18.271
  q+dip:      -36.558      -1.202      18.271       0.685       0.017      18.287
   full:      -35.588      -1.171      17.786       0.664       0.016      17.802

           -------------------------------------------------
          |                Geometry Summary                 |
           -------------------------------------------------

      molecular mass/u    :       69.4858989
   center of mass at/Å    :        0.2114518       0.0100685       0.0025896
  moments of inertia/u·Å² :        0.3467949E+01   0.3819690E+03   0.3819714E+03
rotational constants/cm⁻¹ :        0.4860980E+01   0.4413351E-01   0.4413323E-01

 * 3 selected distances

     #   Z        #   Z                                     value/Å
     3   6 C      4   1 H                                 1.0718604 (max)
     3   6 C      5   1 H                                 1.0712320 (min)
     3   6 C      6   1 H                                 1.0715893

 * 1 distinct bonds (by element types)

   Z      Z             #   av. dist./Å        max./Å        min./Å
   1 H    6 C           3     1.0715606     1.0718604     1.0712320


optimized geometry written to: xtbopt.xyz


           -------------------------------------------------
          | TOTAL ENERGY              -13.197575169377 Eh   |
          | GRADIENT NORM               0.000766079860 Eh/α |
          | HOMO-LUMO GAP               0.939509707989 eV   |
           -------------------------------------------------

------------------------------------------------------------------------
 * finished run on 2020/08/20 at 17:46:28.169     
------------------------------------------------------------------------
 total:
 * wall-time:     0 d,  0 h,  0 min,  0.078 sec
 *  cpu-time:     0 d,  0 h,  0 min,  0.249 sec
 * ratio c/w:     3.212 speedup
 SCF:
 * wall-time:     0 d,  0 h,  0 min,  0.006 sec
 *  cpu-time:     0 d,  0 h,  0 min,  0.024 sec
 * ratio c/w:     3.986 speedup
 ANC optimizer:
 * wall-time:     0 d,  0 h,  0 min,  0.038 sec
 *  cpu-time:     0 d,  0 h,  0 min,  0.151 sec
 * ratio c/w:     3.990 speedup

