      -----------------------------------------------------------      
     |                   =====================                   |     
     |                           x T B                           |     
     |                   =====================                   |     
     |                         S. Grimme                         |     
     |          Mulliken Center for Theoretical Chemistry        |     
     |                    University of Bonn                     |     
      -----------------------------------------------------------      

   * xtb version 6.2.3 (830e466) compiled by 'ehlert@majestix' on 2020-03-16

   xtb is free software: you can redistribute it and/or modify it under
   the terms of the GNU Lesser General Public License as published by
   the Free Software Foundation, either version 3 of the License, or
   (at your option) any later version.
   
   xtb is distributed in the hope that it will be useful,
   but WITHOUT ANY WARRANTY; without even the implied warranty of
   MERCHANTABILITY or FITNESS FOR A PARTICULAR PURPOSE.  See the
   GNU Lesser General Public License for more details.
   
   Cite this work as:
   * S. Grimme, C. Bannwarth, P. Shushkov, J. Chem. Theory Comput., 2017,
     13, 1989-2009. DOI: 10.1021/acs.jctc.7b00118
   * C. Bannwarth, S. Ehlert and S. Grimme., J. Chem. Theory Comput., 2019,
     15, 1652-1671. DOI: 10.1021/acs.jctc.8b01176
   * P. Pracht, E. Caldeweyher, S. Ehlert, S. Grimme, ChemRxiv, 2019, preprint.
     DOI: 10.26434/chemrxiv.8326202.v1
   
   for DFT-D4:
   * E. Caldeweyher, C. Bannwarth and S. Grimme, J. Chem. Phys., 2017,
     147, 034112. DOI: 10.1063/1.4993215
   * E. Caldeweyher, S. Ehlert, A. Hansen, H. Neugebauer, S. Spicher,
     C. Bannwarth and S. Grimme, J. Chem. Phys., 2019, 150, 154122.
     DOI: 10.1063/1.5090222
   
   for sTDA-xTB:
   * S. Grimme and C. Bannwarth, J. Chem. Phys., 2016, 145, 054103.
     DOI: 10.1063/1.4959605
   
   in the mass-spec context:
   * V. Asgeirsson, C. Bauer and S. Grimme, Chem. Sci., 2017, 8, 4879.
     DOI: 10.1039/c7sc00601b
   
   for metadynamics refer to:
   * S. Grimme, J. Chem. Theory Comput., 2019, 155, 2847-2862
     DOI: 10.1021/acs.jctc.9b00143
   
   with help from (in alphabetical order)
   C. Bannwarth, F. Bohle, G. Brandenburg, E. Caldeweyher, M. Checinski,
   S. Dohm, S. Ehlert, S. Ehrlich, F. März, H. Neugebauer, J. Pisarek,
   P. Pracht, P. Shushkov, and S. Spicher.
   
 * started run on 2020/08/20 at 17:46:27.595     

           -------------------------------------------------
          |                Calculation Setup                |
           -------------------------------------------------

          program call               : /u/fd/ball4935/opt/bin/xtb 3ixBtq_reactant_constrained_opt3_xtb.xyz --chrg -1 --opt --gbsa Water --input xcontrol_3ixBtq_reactant_constrained_opt3_xtb
          hostname                   : comp0810
          coordinate file            : 3ixBtq_reactant_constrained_opt3_xtb.xyz
          omp threads                :                     4
          number of atoms            :                     6
          number of electrons        :                    22
          charge                     :                    -1
          spin                       :                   0.0
          first test random number   :      0.70562666607008

constraining bond 1 3 to    2.9503000 Å, actual value:    3.1120932 Å
constraining bond 2 3 to    2.3445000 Å, actual value:    2.1513977 Å

molecular fragmentation (1/2 indicates fragments):
122222
# atoms in fragment 1/2:     1     5
 fragment masses (1/2) :       19.00       50.49
CMA distance (Bohr)    :   8.703
constraining FC (au)   : 20.0000
########################################################################
[WARNING] Please study the warnings concerning your input carefully
-2- prog_main: XTBPATH is not set, using XTBHOME instead
-1- prog_main: XTBHOME is not set, using HOME instead
########################################################################
           ------------------------------------------------- 
          |                 G F N 2 - x T B                 |
          | Geometry, Frequencies, Noncovalent interactions |
          |            JCTC 2019 parametrisation            |
           ------------------------------------------------- 
             k(s)              :                1.8500
             k(p)              :                2.2300
             k(d)              :                2.2300
             k(f)              :                2.0000
             kEN (H0ij)        :               -2.0000
             D4 a1             :                0.5200
             D4 a2             :                5.0000
             D4 s6             :                1.0000
             D4 s8             :                2.7000
             D4 s9             :                5.0000
             alphaj            :                2.0000

  Z AO/shell   Hii/eV     exponent
  1     Wed Apr 25 08:07:45 CEST 2018   EN: 2.200 GM2: 0.406  GM3: 0.0800  RAES: 1.40
     1s    -10.707211    1.230000
  6     Wed Apr 25 08:07:45 CEST 2018   EN: 2.550 GM2: 0.538  GM3: 0.1500  RAES: 3.00
     2s    -13.970922    2.096432
     2p    -10.063292    1.800000
  9     Mon Apr 23 13:58:50 CEST 2018   EN: 3.980 GM2: 0.532  GM3: 0.1426  RAES: 2.40
     2s    -23.458179    2.416361
     2p    -15.746583    2.308399
 17     Mon Apr 23 14:09:22 CEST 2018   EN: 3.160 GM2: 0.249  GM3: 0.1495  RAES: 2.50
     3s    -29.278781    2.485265
     3p    -12.673758    2.199650
     3d     -0.240338    2.476089

 Solvent             : Water
 Using internal parameter file: .param_gbsa2_Water
 Gsolv ref. state (COSMO-RS): gsolv [1 M gas/solution]
 temperature (mdtemp)       :    298.150000000000     
 dielectric constant        :    80.2000000000000     
 rho                        :    1.00000000000000     
 mass                       :    18.0000000000000     
 surface tension            :    15.5689454083859     
 probe radius               :   0.975313790000000     
 Gshift (Eh)                :   1.857443126794793E-003
 c1                         :    1.55243817000000     
 soset                      :   0.130326360000000     
 HB correction              :  T
           ------------------------------------------------- 
          |        Self-Consistent Charge Iterations        |
           ------------------------------------------------- 

          ...................................................
          :                      SETUP                      :
          :.................................................:
          :  # basis functions                  21          :
          :  # atomic orbitals                  20          :
          :  # shells                           10          :
          :  # electrons                        22          :
          :  max. iterations                   250          :
          :  Hamiltonian                  GFN2-xTB          :
          :  restarted?                      false          :
          :  GBSA solvation                   true          :
          :  PC potential                    false          :
          :  electronic temp.          300.0000000     K    :
          :  accuracy                    1.0000000          :
          :  -> integral cutoff          0.2500000E+02      :
          :  -> integral neglect         0.1000000E-07      :
          :  -> SCF convergence          0.1000000E-05 Eh   :
          :  -> wf. convergence          0.1000000E-03 e    :
          :  Broyden damping             0.4000000          :
          ...................................................

 iter      E             dE          RMSdq      gap      omega  full diag
   1    -13.2112432 -0.132112E+02  0.654E+00    4.69       0.0  T
   2    -13.2893965 -0.781533E-01  0.370E+00    1.88       1.0  T
   3    -13.3029422 -0.135458E-01  0.191E+00    2.04       1.0  T
   4    -13.3036353 -0.693068E-03  0.262E-01    1.34       1.0  T
   5    -13.3036563 -0.209829E-04  0.259E-01    1.43       1.0  T
   6    -13.3037817 -0.125396E-03  0.360E-02    1.41       1.1  T
   7    -13.3037807  0.100149E-05  0.379E-02    1.42       1.1  T
   8    -13.3037842 -0.350963E-05  0.106E-02    1.41       3.9  T
   9    -13.3037845 -0.286121E-06  0.190E-03    1.42      21.5  T
  10    -13.3037845 -0.647520E-08  0.147E-03    1.42      27.8  T
  11    -13.3037845 -0.407089E-08  0.383E-04    1.42     106.7  T
  12    -13.3037845 -0.441318E-10  0.626E-05    1.42     652.3  T

   *** convergence criteria satisfied after 12 iterations ***

         #    Occupation            Energy/Eh            Energy/eV
      -------------------------------------------------------------
         1        2.0000           -1.0455608             -28.4512
       ...           ...                  ...                  ...
         5        2.0000           -0.5012858             -13.6407
         6        2.0000           -0.4652299             -12.6595
         7        2.0000           -0.4179676             -11.3735
         8        2.0000           -0.4179547             -11.3731
         9        2.0000           -0.3349971              -9.1157
        10        2.0000           -0.3341695              -9.0932
        11        2.0000           -0.3341592              -9.0929 (HOMO)
        12                         -0.2820458              -7.6749 (LUMO)
        13                          0.0363636               0.9895
        14                          0.0364127               0.9908
        15                          0.0379750               1.0334
        16                          0.0380104               1.0343
       ...                                ...                  ...
        20                          0.2473955               6.7320
      -------------------------------------------------------------
                  HL-Gap            0.0521134 Eh            1.4181 eV
             Fermi-level           -0.3077107 Eh           -8.3732 eV

 SCC (total)                   0 d,  0 h,  0 min,  0.005 sec
 SCC setup                      ...        0 min,  0.000 sec (  6.479%)
 Dispersion                     ...        0 min,  0.000 sec (  0.692%)
 integral evaluation            ...        0 min,  0.001 sec ( 10.984%)
 zeroth order Hamiltonian       ...        0 min,  0.000 sec (  0.692%)
 iterations                     ...        0 min,  0.003 sec ( 62.885%)
 molecular gradient             ...        0 min,  0.001 sec ( 13.655%)
 printout                       ...        0 min,  0.000 sec (  2.883%)

         :::::::::::::::::::::::::::::::::::::::::::::::::::::
         ::                     SUMMARY                     ::
         :::::::::::::::::::::::::::::::::::::::::::::::::::::
         :: total energy              -8.710791900049 Eh    ::
         :: total w/o Gsasa/hb        -8.707817442841 Eh    ::
         :: gradient norm             32.799855123859 Eh/a0 ::
         :: HOMO-LUMO gap              1.418077867007 eV    ::
         ::.................................................::
         :: SCC energy               -13.300954899646 Eh    ::
         :: -> isotropic ES            0.277598546019 Eh    ::
         :: -> anisotropic ES         -0.001163136855 Eh    ::
         :: -> anisotropic XC          0.005396681284 Eh    ::
         :: -> dispersion             -0.001780369742 Eh    ::
         :: -> Gsolv                  -0.135267631256 Eh    ::
         ::    -> Gborn               -0.132293174048 Eh    ::
         ::    -> Gsasa                0.000972152682 Eh    ::
         ::    -> Ghb                 -0.005804053017 Eh    ::
         ::    -> Gshift               0.001857443127 Eh    ::
         :: repulsion energy           0.057373697961 Eh    ::
         :: add. restraining           4.532790402243 Eh    ::
         :::::::::::::::::::::::::::::::::::::::::::::::::::::

      ----------------------------------------------------------- 
     |                   =====================                   |
     |                        A N C O P T                        |
     |                   =====================                   |
     |               Approximate Normal Coordinate               |
     |                Rational Function Optimizer                |
      ----------------------------------------------------------- 

          ...................................................
          :                      SETUP                      :
          :.................................................:
          :   optimization level            normal          :
          :   max. optcycles                   200          :
          :   ANC micro-cycles                  20          :
          :   degrees of freedom                12          :
          :.................................................:
          :   RF solver                   davidson          :
          :   write xtbopt.log                true          :
          :   linear?                        false          :
          :   energy convergence         0.5000000E-05 Eh   :
          :   grad. convergence          0.1000000E-02 Eh/α :
          :   maximium RF displ.         1.0000000          :
          :   Hlow (freq-cutoff)         0.1000000E-01      :
          :   Hmax (freq-cutoff)         5.0000000          :
          :   S6 in model hess.         20.0000000          :
          ...................................................

generating ANC from model Hessian ...
Using Lindh-Hessian (1995)
 Shifting diagonal of input Hessian by    3.57607210428691     
 Lowest  eigenvalues of input Hessian
    0.010000    0.020881   -0.000000    0.000000    0.000000    0.000000
    0.000000    0.000000    3.623540    3.702265    3.702562    3.950426
    3.952613    4.029786    4.754798    4.754889   43.777473  123.660602
 Highest eigenvalues
    3.952613    4.029786    4.754798    4.754889   43.777473  123.660602
 

........................................................................
.............................. CYCLE    1 ..............................
........................................................................
   1    -13.3037845 -0.133038E+02  0.567E-06    1.42       0.0  T
   2    -13.3037845 -0.230926E-13  0.271E-06    1.42   15066.3  T
   3    -13.3037845 -0.355271E-14  0.164E-06    1.42   24881.0  T
     SCC iter.                  ...        0 min,  0.000 sec
     gradient                   ...        0 min,  0.001 sec
 * total energy  :    -8.7107919 Eh     change        0.7713723E-09 Eh
   gradient norm :    32.7998550 Eh/α   predicted     0.0000000E+00 (-100.00%)
   displ. norm   :     0.9266811 α      lambda       -0.3039500E+02
   maximum displ.:     0.9255831 α      in ANC's #11, #12, #1, ...

........................................................................
.............................. CYCLE    2 ..............................
........................................................................
   1    -12.8388694 -0.128389E+02  0.105E+01    0.22       0.0  T
   2    -13.0012910 -0.162422E+00  0.828E+00    4.26       1.0  T
   3    -13.2065217 -0.205231E+00  0.388E+00    1.66       1.0  T
   4    -13.2496224 -0.431007E-01  0.157E+00    1.00       1.0  T
   5    -13.2391578  0.104646E-01  0.212E+00    1.50       1.0  T
   6    -13.1245562  0.114602E+00  0.547E+00    0.43       1.0  T
   7    -13.2422885 -0.117732E+00  0.204E+00    1.28       1.0  T
   8    -13.2528058 -0.105173E-01  0.754E-01    1.26       1.0  T
   9    -13.2547641 -0.195826E-02  0.312E-01    1.13       1.0  T
  10    -13.2549800 -0.215906E-03  0.106E-01    1.03       1.0  T
  11    -13.2550271 -0.470810E-04  0.270E-02    1.06       1.5  T
  12    -13.2550020  0.250423E-04  0.848E-02    1.04       1.0  T
  13    -13.2550234 -0.214120E-04  0.336E-02    1.05       1.2  T
  14    -13.2550255 -0.204632E-05  0.252E-02    1.05       1.6  T
  15    -13.2550279 -0.243749E-05  0.280E-03    1.06      14.6  T
  16    -13.2550279  0.916254E-08  0.247E-03    1.06      16.5  T
     SCC iter.                  ...        0 min,  0.002 sec
     gradient                   ...        0 min,  0.001 sec
 * total energy  :    12.2464728 Eh     change        0.2095726E+02 Eh
   gradient norm :    78.1028010 Eh/α   predicted    -0.2824817E+02 (-234.79%)
   displ. norm   :     0.4939409 α      lambda       -0.3855637E+02
   maximum displ.:     0.4936371 α      in ANC's #11, #12, #1, ...

........................................................................
.............................. CYCLE    3 ..............................
........................................................................
   1    -13.2739661 -0.132740E+02  0.281E+00    1.83       0.0  T
   2    -13.2765150 -0.254882E-02  0.103E+00    1.30       1.0  T
   3    -13.2756242  0.890739E-03  0.135E+00    0.59       1.0  T
   4    -13.2804587 -0.483452E-02  0.166E-01    0.68       1.0  T
   5    -13.2804668 -0.802769E-05  0.969E-02    0.72       1.0  T
   6    -13.2804775 -0.107682E-04  0.559E-02    0.68       1.0  T
   7    -13.2804787 -0.113047E-05  0.501E-02    0.71       1.0  T
   8    -13.2804821 -0.342970E-05  0.455E-02    0.68       1.0  T
   9    -13.2804881 -0.604478E-05  0.845E-03    0.69       4.8  T
  10    -13.2804884 -0.217962E-06  0.150E-03    0.69      27.3  T
  11    -13.2804884 -0.684043E-08  0.263E-04    0.69     155.5  T
     SCC iter.                  ...        0 min,  0.001 sec
     gradient                   ...        0 min,  0.000 sec
 * total energy  :   -11.7088957 Eh     change       -0.2395537E+02 Eh
   gradient norm :    18.9951919 Eh/α   predicted    -0.2398163E+02 (   0.11%)
   displ. norm   :     0.2011427 α      lambda       -0.3059018E+01
   maximum displ.:     0.1561328 α      in ANC's #11, #12, #1, ...

........................................................................
.............................. CYCLE    4 ..............................
........................................................................
   1    -13.2920936 -0.132921E+02  0.969E-01    1.34       0.0  T
   2    -13.2925505 -0.456929E-03  0.388E-01    1.11       1.0  T
   3    -13.2925880 -0.374415E-04  0.284E-01    0.86       1.0  T
   4    -13.2927710 -0.183062E-03  0.843E-02    0.87       1.0  T
   5    -13.2927767 -0.562478E-05  0.536E-02    0.90       1.0  T
   6    -13.2927802 -0.350857E-05  0.393E-02    0.86       1.0  T
   7    -13.2927848 -0.461185E-05  0.563E-03    0.87       7.2  T
   8    -13.2927848 -0.375067E-07  0.356E-03    0.87      11.5  T
     SCC iter.                  ...        0 min,  0.001 sec
     gradient                   ...        0 min,  0.000 sec
 * total energy  :   -13.0086642 Eh     change       -0.1299769E+01 Eh
   gradient norm :     4.1361073 Eh/α   predicted    -0.1591390E+01 (  22.44%)
   displ. norm   :     0.4745112 α      lambda       -0.1942490E+01
   maximum displ.:     0.4631404 α      in ANC's #12, #11, #1, ...

........................................................................
.............................. CYCLE    5 ..............................
........................................................................
   1    -13.2776072 -0.132776E+02  0.469E-01    0.33       0.0  T
   2    -13.2774152  0.192046E-03  0.461E-01    0.53       1.0  T
   3    -13.2779903 -0.575087E-03  0.194E-01    0.42       1.0  T
   4    -13.2780122 -0.218936E-04  0.112E-01    0.42       1.0  T
   5    -13.2780253 -0.131214E-04  0.558E-02    0.42       1.0  T
   6    -13.2780267 -0.143678E-05  0.482E-02    0.45       1.0  T
   7    -13.2780355 -0.879655E-05  0.105E-02    0.43       3.9  T
   8    -13.2780357 -0.156286E-06  0.506E-03    0.43       8.1  T
   9    -13.2780358 -0.906704E-07  0.353E-04    0.43     115.8  T
     SCC iter.                  ...        0 min,  0.001 sec
     gradient                   ...        0 min,  0.001 sec
 * total energy  :   -10.0192549 Eh     change        0.2989409E+01 Eh
   gradient norm :    18.7692573 Eh/α   predicted    -0.1189931E+01 (-139.80%)
   displ. norm   :     0.3293934 α      lambda       -0.5702919E+01
   maximum displ.:     0.3152726 α      in ANC's #12, #11, #10, ...

........................................................................
.............................. CYCLE    6 ..............................
........................................................................
   1    -13.2865096 -0.132865E+02  0.235E-01    0.71       0.0  T
   2    -13.2865102 -0.579800E-06  0.184E-01    0.67       1.0  T
   3    -13.2865417 -0.315609E-04  0.113E-01    0.71       1.0  T
   4    -13.2865562 -0.144712E-04  0.380E-02    0.69       1.1  T
   5    -13.2865592 -0.298366E-05  0.219E-02    0.69       1.9  T
   6    -13.2865608 -0.164060E-05  0.636E-03    0.69       6.4  T
   7    -13.2865609 -0.464983E-07  0.243E-03    0.69      16.8  T
   8    -13.2865609 -0.812022E-08  0.240E-04    0.69     170.2  T
     SCC iter.                  ...        0 min,  0.001 sec
     gradient                   ...        0 min,  0.001 sec
 * total energy  :   -13.1791168 Eh     change       -0.3159862E+01 Eh
   gradient norm :     1.8752364 Eh/α   predicted    -0.3160844E+01 (   0.03%)
   displ. norm   :     0.2241944 α      lambda       -0.8875894E-01
   maximum displ.:     0.2195774 α      in ANC's #1, #12, #11, ...

........................................................................
.............................. CYCLE    7 ..............................
........................................................................
   1    -13.2858738 -0.132859E+02  0.475E-01    0.75       0.0  T
   2    -13.2858903 -0.165705E-04  0.279E-01    0.73       1.0  T
   3    -13.2858566  0.337675E-04  0.123E-01    0.76       1.0  T
   4    -13.2859025 -0.459692E-04  0.309E-02    0.73       1.3  T
   5    -13.2859028 -0.260675E-06  0.120E-02    0.73       3.4  T
   6    -13.2859030 -0.210300E-06  0.645E-03    0.73       6.3  T
   7    -13.2859031 -0.935507E-07  0.255E-03    0.73      16.0  T
   8    -13.2859031 -0.158905E-07  0.109E-03    0.73      37.4  T
     SCC iter.                  ...        0 min,  0.001 sec
     gradient                   ...        0 min,  0.000 sec
 * total energy  :   -13.2168260 Eh     change       -0.3770919E-01 Eh
   gradient norm :     0.3372486 Eh/α   predicted    -0.4661014E-01 (  23.60%)
   displ. norm   :     0.8737028 α      lambda       -0.7077848E-01
   maximum displ.:     0.8715981 α      in ANC's #1, #12, #10, ...

........................................................................
.............................. CYCLE    8 ..............................
........................................................................
   1    -13.2614941 -0.132615E+02  0.184E+00    0.61       0.0  T
   2    -13.2618079 -0.313731E-03  0.111E+00    0.62       1.0  T
   3    -13.2606020  0.120585E-02  0.663E-01    0.83       1.0  T
   4    -13.2620653 -0.146329E-02  0.139E-01    0.69       1.0  T
   5    -13.2620695 -0.414639E-05  0.495E-02    0.67       1.0  T
   6    -13.2620708 -0.133617E-05  0.195E-02    0.68       2.1  T
   7    -13.2620714 -0.639993E-06  0.142E-02    0.67       2.9  T
   8    -13.2620718 -0.399931E-06  0.537E-03    0.68       7.6  T
   9    -13.2620718 -0.129740E-08  0.443E-03    0.67       9.2  T
     SCC iter.                  ...        0 min,  0.001 sec
     gradient                   ...        0 min,  0.001 sec
 * total energy  :   -13.1408909 Eh     change        0.7593510E-01 Eh
   gradient norm :     2.7339266 Eh/α   predicted    -0.6240419E-01 (-182.18%)
   displ. norm   :     0.4573255 α      lambda       -0.2491237E+00
   maximum displ.:     0.4571350 α      in ANC's #1, #11, #8, ...

........................................................................
.............................. CYCLE    9 ..............................
........................................................................
   1    -13.2844454 -0.132844E+02  0.104E+00    0.95       0.0  T
   2    -13.2845666 -0.121157E-03  0.594E-01    0.85       1.0  T
   3    -13.2845839 -0.173093E-04  0.121E-01    0.80       1.0  T
   4    -13.2846047 -0.208320E-04  0.685E-02    0.79       1.0  T
   5    -13.2846097 -0.499857E-05  0.244E-02    0.81       1.7  T
   6    -13.2846094  0.332436E-06  0.196E-02    0.80       2.1  T
   7    -13.2846104 -0.955645E-06  0.711E-03    0.81       5.7  T
   8    -13.2846105 -0.118916E-06  0.242E-03    0.80      16.9  T
   9    -13.2846105 -0.109984E-07  0.777E-04    0.81      52.5  T
     SCC iter.                  ...        0 min,  0.001 sec
     gradient                   ...        0 min,  0.000 sec
 * total energy  :   -13.1707352 Eh     change       -0.2984434E-01 Eh
   gradient norm :     1.9964932 Eh/α   predicted    -0.1506139E+00 ( 404.66%)
   displ. norm   :     0.2594196 α      lambda       -0.1138932E+00
   maximum displ.:     0.2429682 α      in ANC's #1, #12, #10, ...

........................................................................
.............................. CYCLE   10 ..............................
........................................................................
   1    -13.2857962 -0.132858E+02  0.631E-01    0.68       0.0  T
   2    -13.2858429 -0.466822E-04  0.364E-01    0.72       1.0  T
   3    -13.2858579 -0.150688E-04  0.695E-02    0.72       1.0  T
   4    -13.2858548  0.307980E-05  0.568E-02    0.73       1.0  T
   5    -13.2858626 -0.775535E-05  0.222E-02    0.72       1.8  T
   6    -13.2858631 -0.470347E-06  0.106E-02    0.72       3.8  T
   7    -13.2858633 -0.280941E-06  0.429E-03    0.72       9.5  T
   8    -13.2858634 -0.440566E-07  0.172E-03    0.72      23.7  T
     SCC iter.                  ...        0 min,  0.001 sec
     gradient                   ...        0 min,  0.000 sec
 * total energy  :   -13.2108048 Eh     change       -0.4006958E-01 Eh
   gradient norm :     1.0250947 Eh/α   predicted    -0.6077903E-01 (  51.68%)
   displ. norm   :     0.1486730 α      lambda       -0.3040439E-01
   maximum displ.:     0.1358902 α      in ANC's #1, #2, #12, ...

........................................................................
.............................. CYCLE   11 ..............................
........................................................................
   1    -13.2852697 -0.132853E+02  0.338E-01    0.76       0.0  T
   2    -13.2852791 -0.938819E-05  0.198E-01    0.75       1.0  T
   3    -13.2852695  0.963328E-05  0.746E-02    0.77       1.0  T
   4    -13.2852852 -0.157049E-04  0.230E-02    0.75       1.8  T
   5    -13.2852853 -0.125665E-06  0.717E-03    0.76       5.7  T
   6    -13.2852854 -0.712806E-07  0.405E-03    0.75      10.1  T
   7    -13.2852854 -0.345853E-07  0.163E-03    0.75      25.1  T
     SCC iter.                  ...        0 min,  0.001 sec
     gradient                   ...        0 min,  0.001 sec
 * total energy  :   -13.2194280 Eh     change       -0.8623150E-02 Eh
   gradient norm :     0.3290944 Eh/α   predicted    -0.1553822E-01 (  80.19%)
   displ. norm   :     0.1171903 α      lambda       -0.3067774E-02
   maximum displ.:     0.1114434 α      in ANC's #2, #1, #12, ...

........................................................................
.............................. CYCLE   12 ..............................
........................................................................
   1    -13.2850142 -0.132850E+02  0.273E-01    0.74       0.0  T
   2    -13.2850193 -0.514381E-05  0.160E-01    0.74       1.0  T
   3    -13.2850211 -0.175191E-05  0.252E-02    0.75       1.6  T
   4    -13.2850214 -0.388039E-06  0.179E-02    0.74       2.3  T
   5    -13.2850219 -0.454445E-06  0.506E-03    0.75       8.1  T
   6    -13.2850219 -0.373112E-07  0.241E-03    0.75      17.0  T
     SCC iter.                  ...        0 min,  0.001 sec
     gradient                   ...        0 min,  0.000 sec
 * total energy  :   -13.2206807 Eh     change       -0.1252732E-02 Eh
   gradient norm :     0.0537408 Eh/α   predicted    -0.1554954E-02 (  24.13%)
   displ. norm   :     0.2961844 α      lambda       -0.6070434E-02
   maximum displ.:     0.2804231 α      in ANC's #2, #1, #12, ...

........................................................................
.............................. CYCLE   13 ..............................
........................................................................
   1    -13.2819823 -0.132820E+02  0.699E-01    0.69       0.0  T
   2    -13.2820167 -0.344165E-04  0.411E-01    0.70       1.0  T
   3    -13.2820121  0.461562E-05  0.947E-02    0.73       1.0  T
   4    -13.2820312 -0.191222E-04  0.476E-02    0.71       1.0  T
   5    -13.2820336 -0.237321E-05  0.168E-02    0.71       2.4  T
   6    -13.2820340 -0.393632E-06  0.628E-03    0.71       6.5  T
   7    -13.2820341 -0.723257E-07  0.266E-03    0.71      15.4  T
   8    -13.2820341 -0.140130E-07  0.129E-03    0.71      31.7  T
     SCC iter.                  ...        0 min,  0.001 sec
     gradient                   ...        0 min,  0.000 sec
 * total energy  :   -13.2057029 Eh     change        0.1497778E-01 Eh
   gradient norm :     1.0816923 Eh/α   predicted    -0.3301537E-02 (-122.04%)
   displ. norm   :     0.2322063 α      lambda       -0.4350894E-01
   maximum displ.:     0.2156268 α      in ANC's #2, #1, #12, ...

........................................................................
.............................. CYCLE   14 ..............................
........................................................................
   1    -13.2850395 -0.132850E+02  0.554E-01    0.78       0.0  T
   2    -13.2850618 -0.223325E-04  0.323E-01    0.75       1.0  T
   3    -13.2850644 -0.259418E-05  0.648E-02    0.75       1.0  T
   4    -13.2850712 -0.672771E-05  0.342E-02    0.74       1.2  T
   5    -13.2850722 -0.104357E-05  0.121E-02    0.75       3.4  T
   6    -13.2850724 -0.145561E-06  0.513E-03    0.75       8.0  T
   7    -13.2850724 -0.384143E-07  0.302E-03    0.75      13.5  T
     SCC iter.                  ...        0 min,  0.001 sec
     gradient                   ...        0 min,  0.000 sec
 * total energy  :   -13.2213974 Eh     change       -0.1569443E-01 Eh
   gradient norm :     0.0759834 Eh/α   predicted    -0.2292741E-01 (  46.09%)
   displ. norm   :     0.0182968 α      lambda       -0.2898614E-03
   maximum displ.:     0.0159527 α      in ANC's #1, #2, #8, ...

........................................................................
.............................. CYCLE   15 ..............................
........................................................................
   1    -13.2848153 -0.132848E+02  0.423E-02    0.75       0.0  T
   2    -13.2848154 -0.157676E-06  0.246E-02    0.75       1.7  T
   3    -13.2848153  0.171043E-06  0.955E-03    0.75       4.3  T
   4    -13.2848155 -0.267667E-06  0.308E-03    0.75      13.3  T
   5    -13.2848155 -0.598882E-08  0.959E-04    0.75      42.6  T
     SCC iter.                  ...        0 min,  0.001 sec
     gradient                   ...        0 min,  0.000 sec
 * total energy  :   -13.2215546 Eh     change       -0.1572693E-03 Eh
   gradient norm :     0.0245862 Eh/α   predicted    -0.1449798E-03 (  -7.81%)
   displ. norm   :     0.0095493 α      lambda       -0.7125961E-04
   maximum displ.:     0.0076647 α      in ANC's #2, #1, #8, ...

........................................................................
.............................. CYCLE   16 ..............................
........................................................................
   1    -13.2845777 -0.132846E+02  0.229E-02    0.75       0.0  T
   2    -13.2845777 -0.372267E-07  0.136E-02    0.75       3.0  T
   3    -13.2845775  0.172334E-06  0.850E-03    0.75       4.8  T
   4    -13.2845777 -0.214457E-06  0.149E-03    0.75      27.4  T
   5    -13.2845777 -0.456852E-09  0.402E-04    0.75     101.7  T
     SCC iter.                  ...        0 min,  0.001 sec
     gradient                   ...        0 min,  0.001 sec
 * total energy  :   -13.2216128 Eh     change       -0.5815686E-04 Eh
   gradient norm :     0.0265632 Eh/α   predicted    -0.3563414E-04 ( -38.73%)
   displ. norm   :     0.0182223 α      lambda       -0.1130119E-03
   maximum displ.:     0.0133294 α      in ANC's #2, #1, #8, ...

........................................................................
.............................. CYCLE   17 ..............................
........................................................................
   1    -13.2839375 -0.132839E+02  0.408E-02    0.75       0.0  T
   2    -13.2839376 -0.127812E-06  0.242E-02    0.75       1.7  T
   3    -13.2839369  0.708405E-06  0.181E-02    0.75       2.3  T
   4    -13.2839378 -0.904669E-06  0.297E-03    0.75      13.8  T
   5    -13.2839378 -0.476783E-08  0.929E-04    0.75      43.9  T
     SCC iter.                  ...        0 min,  0.001 sec
     gradient                   ...        0 min,  0.000 sec
 * total energy  :   -13.2216852 Eh     change       -0.7244868E-04 Eh
   gradient norm :     0.0199132 Eh/α   predicted    -0.5652516E-04 ( -21.98%)
   displ. norm   :     0.0097911 α      lambda       -0.4824928E-04
   maximum displ.:     0.0055227 α      in ANC's #1, #8, #3, ...

........................................................................
.............................. CYCLE   18 ..............................
........................................................................
   1    -13.2834436 -0.132834E+02  0.169E-02    0.75       0.0  T
   2    -13.2834436 -0.324009E-07  0.100E-02    0.75       4.1  T
   3    -13.2834435  0.107553E-06  0.875E-03    0.75       4.7  T
   4    -13.2834437 -0.173996E-06  0.170E-03    0.75      24.1  T
   5    -13.2834437 -0.338532E-08  0.479E-04    0.75      85.2  T
     SCC iter.                  ...        0 min,  0.001 sec
     gradient                   ...        0 min,  0.000 sec
 * total energy  :   -13.2217251 Eh     change       -0.3984908E-04 Eh
   gradient norm :     0.0125575 Eh/α   predicted    -0.2412797E-04 ( -39.45%)
   displ. norm   :     0.0230037 α      lambda       -0.1173690E-03
   maximum displ.:     0.0132686 α      in ANC's #3, #1, #8, ...

........................................................................
.............................. CYCLE   19 ..............................
........................................................................
   1    -13.2822245 -0.132822E+02  0.320E-02    0.76       0.0  T
   2    -13.2822246 -0.154738E-06  0.187E-02    0.75       2.2  T
   3    -13.2822242  0.364993E-06  0.169E-02    0.75       2.4  T
   4    -13.2822249 -0.619928E-06  0.380E-03    0.75      10.7  T
   5    -13.2822249 -0.190891E-07  0.774E-04    0.75      52.7  T
   6    -13.2822249 -0.478494E-09  0.282E-04    0.75     144.6  T
     SCC iter.                  ...        0 min,  0.001 sec
     gradient                   ...        0 min,  0.000 sec
 * total energy  :   -13.2218064 Eh     change       -0.8129695E-04 Eh
   gradient norm :     0.0170713 Eh/α   predicted    -0.5871598E-04 ( -27.78%)
   displ. norm   :     0.0185127 α      lambda       -0.7373275E-04
   maximum displ.:     0.0114591 α      in ANC's #3, #1, #8, ...

........................................................................
.............................. CYCLE   20 ..............................
........................................................................
   1    -13.2813880 -0.132814E+02  0.246E-02    0.75       0.0  T
   2    -13.2813881 -0.901285E-07  0.141E-02    0.75       2.9  T
   3    -13.2813879  0.238255E-06  0.105E-02    0.75       3.9  T
   4    -13.2813882 -0.284076E-06  0.261E-03    0.75      15.6  T
   5    -13.2813882 -0.721428E-08  0.607E-04    0.75      67.2  T
     SCC iter.                  ...        0 min,  0.001 sec
     gradient                   ...        0 min,  0.001 sec
 * total energy  :   -13.2218601 Eh     change       -0.5371364E-04 Eh
   gradient norm :     0.0252728 Eh/α   predicted    -0.3687886E-04 ( -31.34%)
   displ. norm   :     0.0172074 α      lambda       -0.6496933E-04
   maximum displ.:     0.0110829 α      in ANC's #3, #2, #1, ...
 * RMSD in coord.:     0.1207776 α      energy gain  -0.4511068E+01 Eh

generating ANC from model Hessian ...
Using Lindh-Hessian (1995)
 Shifting diagonal of input Hessian by   2.488206662854382E-002
 Lowest  eigenvalues of input Hessian
    0.010000    0.010092   -0.000000   -0.000000   -0.000000    0.000000
    0.000000    0.000000    0.028801    0.028931    0.046223    0.175827
    0.178631    0.459330    1.222210    1.232745   40.172397  120.006906
 Highest eigenvalues
    0.178631    0.459330    1.222210    1.232745   40.172397  120.006906
 

........................................................................
.............................. CYCLE   21 ..............................
........................................................................
   1    -13.2808999 -0.132809E+02  0.260E-02    0.75       0.0  T
   2    -13.2809000 -0.763454E-07  0.152E-02    0.75       2.7  T
   3    -13.2808999  0.107365E-06  0.692E-03    0.75       5.9  T
   4    -13.2809000 -0.134955E-06  0.280E-03    0.75      14.6  T
   5    -13.2809000 -0.131370E-07  0.702E-04    0.75      58.2  T
   6    -13.2809000 -0.286356E-09  0.253E-04    0.75     161.4  T
     SCC iter.                  ...        0 min,  0.001 sec
     gradient                   ...        0 min,  0.000 sec
 * total energy  :   -13.2219056 Eh     change       -0.4551046E-04 Eh
   gradient norm :     0.0229165 Eh/α   predicted     0.0000000E+00 (-100.00%)
   displ. norm   :     0.0730017 α      lambda       -0.4056061E-03
   maximum displ.:     0.0681005 α      in ANC's #5, #3, #8, ...

........................................................................
.............................. CYCLE   22 ..............................
........................................................................
   1    -13.2823335 -0.132823E+02  0.126E-01    0.72       0.0  T
   2    -13.2823336 -0.152930E-06  0.929E-02    0.76       1.0  T
   3    -13.2823598 -0.261752E-04  0.418E-02    0.74       1.0  T
   4    -13.2823610 -0.123285E-05  0.457E-03    0.74       8.9  T
   5    -13.2823610 -0.250841E-07  0.256E-03    0.74      16.0  T
     SCC iter.                  ...        0 min,  0.001 sec
     gradient                   ...        0 min,  0.000 sec
 * total energy  :   -13.2215216 Eh     change        0.3839673E-03 Eh
   gradient norm :     0.3018320 Eh/α   predicted    -0.2038846E-03 (-153.10%)
   displ. norm   :     0.1521523 α      lambda       -0.1808053E-02
   maximum displ.:     0.1431554 α      in ANC's #5, #3, #8, ...

........................................................................
.............................. CYCLE   23 ..............................
........................................................................
   1    -13.2840498 -0.132840E+02  0.294E-01    0.72       0.0  T
   2    -13.2840731 -0.232083E-04  0.193E-01    0.78       1.0  T
   3    -13.2841853 -0.112207E-03  0.864E-02    0.72       1.0  T
   4    -13.2841922 -0.694333E-05  0.221E-02    0.73       1.8  T
   5    -13.2841928 -0.637842E-06  0.368E-03    0.73      11.1  T
   6    -13.2841929 -0.143507E-07  0.170E-03    0.73      24.0  T
     SCC iter.                  ...        0 min,  0.001 sec
     gradient                   ...        0 min,  0.001 sec
 * total energy  :   -13.2186356 Eh     change        0.2886061E-02 Eh
   gradient norm :     0.7114480 Eh/α   predicted    -0.9249568E-03 (-132.05%)
   displ. norm   :     0.0727045 α      lambda       -0.8552796E-02
   maximum displ.:     0.0676392 α      in ANC's #5, #12, #3, ...

........................................................................
.............................. CYCLE   24 ..............................
........................................................................
   1    -13.2853709 -0.132854E+02  0.120E-01    0.77       0.0  T
   2    -13.2853738 -0.290223E-05  0.924E-02    0.74       1.0  T
   3    -13.2853962 -0.223612E-04  0.372E-02    0.76       1.1  T
   4    -13.2853968 -0.588093E-06  0.102E-02    0.76       4.0  T
   5    -13.2853969 -0.175720E-06  0.291E-03    0.76      14.0  T
   6    -13.2853970 -0.156648E-07  0.147E-03    0.76      27.8  T
     SCC iter.                  ...        0 min,  0.001 sec
     gradient                   ...        0 min,  0.000 sec
 * total energy  :   -13.2175514 Eh     change        0.1084173E-02 Eh
   gradient norm :     0.5776838 Eh/α   predicted    -0.4298997E-02 (-496.52%)
   displ. norm   :     0.2792078 α      lambda       -0.1313468E-01
   maximum displ.:     0.2675700 α      in ANC's #5, #3, #8, ...

........................................................................
.............................. CYCLE   25 ..............................
........................................................................
   1    -13.2758301 -0.132758E+02  0.531E-01    0.76       0.0  T
   2    -13.2757927  0.374694E-04  0.371E-01    0.65       1.0  T
   3    -13.2762376 -0.444909E-03  0.185E-01    0.77       1.0  T
   4    -13.2762820 -0.444229E-04  0.386E-02    0.75       1.1  T
   5    -13.2762836 -0.160627E-05  0.529E-03    0.74       7.7  T
   6    -13.2762836 -0.157673E-07  0.269E-03    0.75      15.2  T
     SCC iter.                  ...        0 min,  0.001 sec
     gradient                   ...        0 min,  0.000 sec
 * total energy  :   -13.2193363 Eh     change       -0.1784951E-02 Eh
   gradient norm :     0.5227265 Eh/α   predicted    -0.7079305E-02 ( 296.61%)
   displ. norm   :     0.2179982 α      lambda       -0.6002687E-02
   maximum displ.:     0.2089291 α      in ANC's #5, #8, #3, ...

........................................................................
.............................. CYCLE   26 ..............................
........................................................................
   1    -13.2837133 -0.132837E+02  0.433E-01    0.73       0.0  T
   2    -13.2837451 -0.317728E-04  0.268E-01    0.81       1.0  T
   3    -13.2839669 -0.221828E-03  0.145E-01    0.73       1.0  T
   4    -13.2839885 -0.216233E-04  0.251E-02    0.74       1.6  T
   5    -13.2839894 -0.894941E-06  0.502E-03    0.74       8.1  T
   6    -13.2839895 -0.246610E-07  0.239E-03    0.74      17.1  T
     SCC iter.                  ...        0 min,  0.001 sec
     gradient                   ...        0 min,  0.000 sec
 * total energy  :   -13.2218883 Eh     change       -0.2551939E-02 Eh
   gradient norm :     0.1167951 Eh/α   predicted    -0.3143976E-02 (  23.20%)
   displ. norm   :     0.0759420 α      lambda       -0.4280415E-03
   maximum displ.:     0.0467369 α      in ANC's #1, #5, #2, ...

........................................................................
.............................. CYCLE   27 ..............................
........................................................................
   1    -13.2831347 -0.132831E+02  0.118E-01    0.75       0.0  T
   2    -13.2831352 -0.582031E-06  0.768E-02    0.73       1.0  T
   3    -13.2831434 -0.812895E-05  0.492E-02    0.75       1.0  T
   4    -13.2831463 -0.291492E-05  0.495E-03    0.75       8.2  T
   5    -13.2831463 -0.423423E-07  0.142E-03    0.75      28.8  T
     SCC iter.                  ...        0 min,  0.001 sec
     gradient                   ...        0 min,  0.000 sec
 * total energy  :   -13.2220245 Eh     change       -0.1362430E-03 Eh
   gradient norm :     0.0398820 Eh/α   predicted    -0.2152539E-03 (  57.99%)
   displ. norm   :     0.0215628 α      lambda       -0.5248388E-04
   maximum displ.:     0.0153042 α      in ANC's #3, #5, #4, ...

........................................................................
.............................. CYCLE   28 ..............................
........................................................................
   1    -13.2830379 -0.132830E+02  0.188E-02    0.75       0.0  T
   2    -13.2830380 -0.147490E-07  0.129E-02    0.75       3.2  T
   3    -13.2830382 -0.274720E-06  0.769E-03    0.75       5.3  T
   4    -13.2830383 -0.565434E-07  0.109E-03    0.75      37.5  T
   5    -13.2830383 -0.176036E-08  0.459E-04    0.75      89.0  T
     SCC iter.                  ...        0 min,  0.001 sec
     gradient                   ...        0 min,  0.000 sec
 * total energy  :   -13.2220496 Eh     change       -0.2510257E-04 Eh
   gradient norm :     0.0155590 Eh/α   predicted    -0.2625597E-04 (   4.59%)
   displ. norm   :     0.0215626 α      lambda       -0.1093534E-04
   maximum displ.:     0.0130105 α      in ANC's #3, #2, #1, ...

........................................................................
.............................. CYCLE   29 ..............................
........................................................................
   1    -13.2829676 -0.132830E+02  0.272E-02    0.75       0.0  T
   2    -13.2829676 -0.124575E-07  0.159E-02    0.75       2.6  T
   3    -13.2829673  0.275553E-06  0.114E-02    0.75       3.6  T
   4    -13.2829677 -0.365041E-06  0.597E-04    0.75      68.4  T
   5    -13.2829677 -0.164059E-09  0.201E-04    0.75     202.6  T
     SCC iter.                  ...        0 min,  0.001 sec
     gradient                   ...        0 min,  0.000 sec
 * total energy  :   -13.2220526 Eh     change       -0.2967496E-05 Eh
   gradient norm :     0.0031533 Eh/α   predicted    -0.5468198E-05 (  84.27%)
   displ. norm   :     0.0110060 α      lambda       -0.2321563E-05
   maximum displ.:     0.0097753 α      in ANC's #1, #2, #4, ...

........................................................................
.............................. CYCLE   30 ..............................
........................................................................
   1    -13.2830043 -0.132830E+02  0.150E-02    0.75       0.0  T
   2    -13.2830043 -0.225274E-08  0.860E-03    0.75       4.7  T
   3    -13.2830043  0.222576E-07  0.274E-03    0.75      14.9  T
   4    -13.2830043 -0.255485E-07  0.236E-04    0.75     173.3  T
   5    -13.2830043 -0.485656E-10  0.968E-05    0.75     421.9  T
     SCC iter.                  ...        0 min,  0.001 sec
     gradient                   ...        0 min,  0.000 sec
 * total energy  :   -13.2220541 Eh     change       -0.1457749E-05 Eh
   gradient norm :     0.0023628 Eh/α   predicted    -0.1160040E-05 ( -20.42%)
   displ. norm   :     0.0101080 α      lambda       -0.9884834E-06
   maximum displ.:     0.0090739 α      in ANC's #1, #3, #2, ...

........................................................................
.............................. CYCLE   31 ..............................
........................................................................
   1    -13.2830175 -0.132830E+02  0.113E-02    0.75       0.0  T
   2    -13.2830175 -0.117218E-08  0.649E-03    0.75       6.3  T
   3    -13.2830175  0.152663E-07  0.226E-03    0.75      18.1  T
   4    -13.2830175 -0.174889E-07  0.236E-04    0.75     172.9  T
   5    -13.2830175 -0.879350E-10  0.928E-05    0.75     439.7  T
     SCC iter.                  ...        0 min,  0.001 sec
     gradient                   ...        0 min,  0.000 sec
 * total energy  :   -13.2220549 Eh     change       -0.8437978E-06 Eh
   gradient norm :     0.0022850 Eh/α   predicted    -0.4957363E-06 ( -41.25%)
   displ. norm   :     0.0389095 α      lambda       -0.3230081E-05
   maximum displ.:     0.0339654 α      in ANC's #1, #3, #2, ...

........................................................................
.............................. CYCLE   32 ..............................
........................................................................
   1    -13.2830309 -0.132830E+02  0.406E-02    0.75       0.0  T
   2    -13.2830309 -0.151164E-07  0.233E-02    0.75       1.8  T
   3    -13.2830309  0.108329E-07  0.264E-03    0.75      15.5  T
   4    -13.2830310 -0.214571E-07  0.814E-04    0.75      50.1  T
   5    -13.2830310 -0.784445E-09  0.447E-04    0.75      91.2  T
     SCC iter.                  ...        0 min,  0.001 sec
     gradient                   ...        0 min,  0.001 sec
 * total energy  :   -13.2220568 Eh     change       -0.1937618E-05 Eh
   gradient norm :     0.0093087 Eh/α   predicted    -0.1616727E-05 ( -16.56%)
   displ. norm   :     0.0196288 α      lambda       -0.2490743E-05
   maximum displ.:     0.0148795 α      in ANC's #1, #3, #4, ...

........................................................................
.............................. CYCLE   33 ..............................
........................................................................
   1    -13.2830378 -0.132830E+02  0.170E-02    0.75       0.0  T
   2    -13.2830378 -0.318464E-08  0.977E-03    0.75       4.2  T
   3    -13.2830378  0.239022E-08  0.128E-03    0.75      31.9  T
   4    -13.2830378 -0.497090E-08  0.474E-04    0.75      86.1  T
     SCC iter.                  ...        0 min,  0.000 sec
     gradient                   ...        0 min,  0.000 sec
 * total energy  :   -13.2220588 Eh     change       -0.1918016E-05 Eh
   gradient norm :     0.0072598 Eh/α   predicted    -0.1245637E-05 ( -35.06%)
   displ. norm   :     0.0382459 α      lambda       -0.3231696E-05
   maximum displ.:     0.0313767 α      in ANC's #1, #3, #2, ...

........................................................................
.............................. CYCLE   34 ..............................
........................................................................
   1    -13.2830155 -0.132830E+02  0.372E-02    0.75       0.0  T
   2    -13.2830155 -0.138396E-07  0.214E-02    0.75       1.9  T
   3    -13.2830155  0.579217E-07  0.456E-03    0.75       9.0  T
   4    -13.2830155 -0.721080E-07  0.873E-04    0.75      46.8  T
   5    -13.2830155 -0.958646E-09  0.456E-04    0.75      89.5  T
     SCC iter.                  ...        0 min,  0.001 sec
     gradient                   ...        0 min,  0.001 sec
 * total energy  :   -13.2220606 Eh     change       -0.1891539E-05 Eh
   gradient norm :     0.0077997 Eh/α   predicted    -0.1616242E-05 ( -14.55%)
   displ. norm   :     0.0124397 α      lambda       -0.3814339E-05
   maximum displ.:     0.0083838 α      in ANC's #3, #1, #2, ...

........................................................................
.............................. CYCLE   35 ..............................
........................................................................
   1    -13.2830123 -0.132830E+02  0.110E-02    0.75       0.0  T
   2    -13.2830123 -0.190305E-08  0.655E-03    0.75       6.2  T
   3    -13.2830122  0.492805E-07  0.458E-03    0.75       8.9  T
   4    -13.2830123 -0.621507E-07  0.359E-04    0.75     113.8  T
   5    -13.2830123 -0.142693E-09  0.190E-04    0.75     215.0  T
     SCC iter.                  ...        0 min,  0.001 sec
     gradient                   ...        0 min,  0.000 sec
 * total energy  :   -13.2220598 Eh     change        0.8636592E-06 Eh
   gradient norm :     0.0111290 Eh/α   predicted    -0.1906937E-05 (-320.80%)
   displ. norm   :     0.0217085 α      lambda       -0.4426039E-05
   maximum displ.:     0.0190856 α      in ANC's #1, #3, #2, ...

........................................................................
.............................. CYCLE   36 ..............................
........................................................................
   1    -13.2830061 -0.132830E+02  0.233E-02    0.75       0.0  T
   2    -13.2830061 -0.513365E-08  0.134E-02    0.75       3.1  T
   3    -13.2830061  0.270313E-07  0.310E-03    0.75      13.2  T
   4    -13.2830061 -0.326996E-07  0.495E-04    0.75      82.5  T
   5    -13.2830061 -0.310761E-09  0.254E-04    0.75     160.5  T
     SCC iter.                  ...        0 min,  0.001 sec
     gradient                   ...        0 min,  0.000 sec
 * total energy  :   -13.2220622 Eh     change       -0.2396812E-05 Eh
   gradient norm :     0.0051666 Eh/α   predicted    -0.2214215E-05 (  -7.62%)
   displ. norm   :     0.0028893 α      lambda       -0.5160431E-06
   maximum displ.:     0.0026954 α      in ANC's #1, #2, #3, ...

........................................................................
.............................. CYCLE   37 ..............................
........................................................................
   1    -13.2830191 -0.132830E+02  0.412E-03    0.75       0.0  T
   2    -13.2830191 -0.240467E-09  0.239E-03    0.75      17.1  T
   3    -13.2830191  0.629449E-08  0.161E-03    0.75      25.4  T
     SCC iter.                  ...        0 min,  0.000 sec
     gradient                   ...        0 min,  0.000 sec
 * total energy  :   -13.2220625 Eh     change       -0.3655018E-06 Eh
   gradient norm :     0.0025195 Eh/α   predicted    -0.2567353E-06 ( -29.76%)
   displ. norm   :     0.0195339 α      lambda       -0.7295522E-06
   maximum displ.:     0.0173458 α      in ANC's #1, #3, #4, ...

........................................................................
.............................. CYCLE   38 ..............................
........................................................................
   1    -13.2830273 -0.132830E+02  0.211E-02    0.75       0.0  T
   2    -13.2830273 -0.405569E-08  0.121E-02    0.75       3.4  T
   3    -13.2830273  0.965160E-08  0.195E-03    0.75      20.9  T
   4    -13.2830273 -0.131637E-07  0.447E-04    0.75      91.4  T
   5    -13.2830273 -0.317273E-09  0.164E-04    0.75     248.5  T
     SCC iter.                  ...        0 min,  0.001 sec
     gradient                   ...        0 min,  0.000 sec
 * total energy  :   -13.2220630 Eh     change       -0.4356240E-06 Eh
   gradient norm :     0.0041646 Eh/α   predicted    -0.3647353E-06 ( -16.27%)
   displ. norm   :     0.0083768 α      lambda       -0.5858138E-06
   maximum displ.:     0.0074184 α      in ANC's #1, #3, #2, ...

........................................................................
.............................. CYCLE   39 ..............................
........................................................................
   1    -13.2830375 -0.132830E+02  0.913E-03    0.75       0.0  T
   2    -13.2830375 -0.811216E-09  0.523E-03    0.75       7.8  T
   3    -13.2830375  0.618792E-09  0.618E-04    0.75      66.1  T
   4    -13.2830375 -0.121191E-08  0.213E-04    0.75     191.7  T
     SCC iter.                  ...        0 min,  0.000 sec
     gradient                   ...        0 min,  0.000 sec
 * total energy  :   -13.2220633 Eh     change       -0.3242909E-06 Eh
   gradient norm :     0.0012397 Eh/α   predicted    -0.2933952E-06 (  -9.53%)
   displ. norm   :     0.0367169 α      lambda       -0.5291129E-06
   maximum displ.:     0.0312730 α      in ANC's #1, #3, #2, ...

........................................................................
.............................. CYCLE   40 ..............................
........................................................................
   1    -13.2830131 -0.132830E+02  0.371E-02    0.75       0.0  T
   2    -13.2830131 -0.127994E-07  0.213E-02    0.75       1.9  T
   3    -13.2830131  0.119053E-07  0.256E-03    0.75      16.0  T
   4    -13.2830131 -0.213357E-07  0.787E-04    0.75      51.9  T
   5    -13.2830131 -0.840467E-09  0.383E-04    0.75     106.7  T
     SCC iter.                  ...        0 min,  0.001 sec
     gradient                   ...        0 min,  0.000 sec
 * total energy  :   -13.2220633 Eh     change        0.4902667E-07 Eh
   gradient norm :     0.0060516 Eh/α   predicted    -0.2632987E-06 (-637.05%)
   displ. norm   :     0.0121269 α      lambda       -0.8806833E-06
   maximum displ.:     0.0107901 α      in ANC's #1, #3, #4, ...

........................................................................
.............................. CYCLE   41 ..............................
........................................................................
   1    -13.2830195 -0.132830E+02  0.130E-02    0.75       0.0  T
   2    -13.2830195 -0.145441E-08  0.747E-03    0.75       5.5  T
   3    -13.2830195 -0.335817E-09  0.409E-04    0.75      99.9  T
   4    -13.2830195 -0.447843E-09  0.169E-04    0.75     241.8  T
     SCC iter.                  ...        0 min,  0.000 sec
     gradient                   ...        0 min,  0.000 sec
 * total energy  :   -13.2220637 Eh     change       -0.4059752E-06 Eh
   gradient norm :     0.0009765 Eh/α   predicted    -0.4390773E-06 (   8.15%)
   displ. norm   :     0.0050803 α      lambda       -0.6079470E-07
   maximum displ.:     0.0039780 α      in ANC's #1, #3, #2, ...

   *** GEOMETRY OPTIMIZATION CONVERGED AFTER 41 ITERATIONS ***

------------------------------------------------------------------------
 total energy gain   :        -4.5112718 Eh    -2830.8658 kcal/mol
 total RMSD          :         0.1664778 a0        0.0881 Å
 total power (kW/mol):      -288.8863999 (step)********** (real)
------------------------------------------------------------------------

 ANCopt (total)                0 d,  0 h,  0 min,  0.084 sec
 optimizer setup                ...        0 min,  0.000 sec (  0.121%)
 model hessian                  ...        0 min,  0.000 sec (  0.433%)
 ANC generation                 ...        0 min,  0.000 sec (  0.299%)
 coordinate transformation      ...        0 min,  0.001 sec (  0.645%)
 single point calculation       ...        0 min,  0.076 sec ( 90.255%)
 optimization log               ...        0 min,  0.002 sec (  2.038%)
 hessian update                 ...        0 min,  0.001 sec (  0.662%)
 rational function              ...        0 min,  0.002 sec (  2.274%)

================
 final structure:
================
6
 xtb: 6.2.3 (830e466)
F        -3.36163192828275   -0.06522170245499    0.05166207191608
Cl        1.93065277278794    0.04828590942165   -0.01976720997827
C        -0.41237197727274   -0.00608139948251    0.00203885312264
H        -0.56389877842907   -0.63921985321184   -0.84919283130454
H        -0.55244504499117   -0.43304090932319    0.97490731128626
H        -0.59597504381217    1.04315795505087   -0.11537819504215
 
 Bond Distances (Angstroems)
 ---------------------------
C3-H4=1.0716         C3-H5=1.0716         C3-H6=1.0716         H4-C3=1.0716         H5-C3=1.0716         H6-C3=1.0716         
 C  H  Rav=1.0716 sigma=0.0000  Rmin=1.0716  Rmax=1.0716     3
 
 selected bond angles (degree)
 --------------------
H5-C3-H4=117.86                H6-C3-H4=117.85                H6-C3-H5=117.85                
 
 selected dihedral angles (degree)
 ---------------------------------

 
 CMA Distance (Angstroems)
 ---------------------------
R(CMA):  4.5866
           -------------------------------------------------
          |                Final Singlepoint                |
           -------------------------------------------------

          ...................................................
          :                      SETUP                      :
          :.................................................:
          :  # basis functions                  21          :
          :  # atomic orbitals                  20          :
          :  # shells                           10          :
          :  # electrons                        22          :
          :  max. iterations                   250          :
          :  Hamiltonian                  GFN2-xTB          :
          :  restarted?                      false          :
          :  GBSA solvation                   true          :
          :  PC potential                    false          :
          :  electronic temp.          300.0000000     K    :
          :  accuracy                    1.0000000          :
          :  -> integral cutoff          0.2500000E+02      :
          :  -> integral neglect         0.1000000E-07      :
          :  -> SCF convergence          0.1000000E-05 Eh   :
          :  -> wf. convergence          0.1000000E-03 e    :
          :  Broyden damping             0.4000000          :
          ...................................................

 iter      E             dE          RMSdq      gap      omega  full diag
   1    -13.2830195 -0.132830E+02  0.865E-05    0.75       0.0  T
   2    -13.2830195 -0.461675E-11  0.719E-05    0.75     568.1  T
   3    -13.2830195 -0.366818E-11  0.605E-05    0.75     674.7  T

   *** convergence criteria satisfied after 3 iterations ***

         #    Occupation            Energy/Eh            Energy/eV
      -------------------------------------------------------------
         1        2.0000           -1.0372681             -28.2255
       ...           ...                  ...                  ...
         5        2.0000           -0.5009347             -13.6311
         6        2.0000           -0.4456941             -12.1280
         7        2.0000           -0.4116285             -11.2010
         8        2.0000           -0.4116273             -11.2009
         9        2.0000           -0.3442168              -9.3666
        10        2.0000           -0.3428235              -9.3287
        11        2.0000           -0.3428224              -9.3287 (HOMO)
        12        0.0000           -0.3153312              -8.5806 (LUMO)
        13                          0.0505226               1.3748
        14                          0.0505239               1.3748
        15                          0.0521262               1.4184
        16                          0.0521271               1.4185
       ...                                ...                  ...
        20                          0.2593783               7.0580
      -------------------------------------------------------------
                  HL-Gap            0.0274912 Eh            0.7481 eV
             Fermi-level           -0.3286960 Eh           -8.9443 eV

 SCC (total)                   0 d,  0 h,  0 min,  0.002 sec
 SCC setup                      ...        0 min,  0.000 sec (  8.865%)
 Dispersion                     ...        0 min,  0.000 sec (  0.652%)
 integral evaluation            ...        0 min,  0.000 sec ( 21.844%)
 zeroth order Hamiltonian       ...        0 min,  0.000 sec (  1.191%)
 iterations                     ...        0 min,  0.000 sec ( 24.397%)
 molecular gradient             ...        0 min,  0.001 sec ( 32.596%)
 printout                       ...        0 min,  0.000 sec (  5.957%)

         :::::::::::::::::::::::::::::::::::::::::::::::::::::
         ::                     SUMMARY                     ::
         :::::::::::::::::::::::::::::::::::::::::::::::::::::
         :: total energy             -13.222063664581 Eh    ::
         :: total w/o Gsasa/hb       -13.219357345021 Eh    ::
         :: gradient norm              0.000976492447 Eh/a0 ::
         :: HOMO-LUMO gap              0.748072746982 eV    ::
         ::.................................................::
         :: SCC energy               -13.280255304463 Eh    ::
         :: -> isotropic ES            0.258916216552 Eh    ::
         :: -> anisotropic ES         -0.001809170133 Eh    ::
         :: -> anisotropic XC          0.005480104532 Eh    ::
         :: -> dispersion             -0.001831455877 Eh    ::
         :: -> Gsolv                  -0.125366520017 Eh    ::
         ::    -> Gborn               -0.122660200456 Eh    ::
         ::    -> Gsasa                0.000906751348 Eh    ::
         ::    -> Ghb                 -0.005470514035 Eh    ::
         ::    -> Gshift               0.001857443127 Eh    ::
         :: repulsion energy           0.058153364429 Eh    ::
         :: add. restraining           0.000039504732 Eh    ::
         :::::::::::::::::::::::::::::::::::::::::::::::::::::

           -------------------------------------------------
          |                Property Printout                |
           -------------------------------------------------

    * Orbital Energies and Occupations

         #    Occupation            Energy/Eh            Energy/eV
      -------------------------------------------------------------
         1        2.0000           -1.0372681             -28.2255
         2        2.0000           -0.6051321             -16.4665
         3        2.0000           -0.5995029             -16.3133
         4        2.0000           -0.5009584             -13.6318
         5        2.0000           -0.5009347             -13.6311
         6        2.0000           -0.4456941             -12.1280
         7        2.0000           -0.4116285             -11.2010
         8        2.0000           -0.4116273             -11.2009
         9        2.0000           -0.3442168              -9.3666
        10        2.0000           -0.3428235              -9.3287
        11        2.0000           -0.3428224              -9.3287 (HOMO)
        12        0.0000           -0.3153312              -8.5806 (LUMO)
        13                          0.0505226               1.3748
        14                          0.0505239               1.3748
        15                          0.0521262               1.4184
        16                          0.0521271               1.4185
        17                          0.0562193               1.5298
        18                          0.1211398               3.2964
        19                          0.2593334               7.0568
        20                          0.2593783               7.0580
      -------------------------------------------------------------
                  HL-Gap            0.0274912 Eh            0.7481 eV
             Fermi-level           -0.3286960 Eh           -8.9443 eV

     #   Z        covCN         q      C6AA      α(0)
     1   9 F      0.000    -0.940    23.162     5.605
     2  17 Cl     0.408    -0.393   107.270    15.793
     3   6 C      3.187    -0.032    28.306     8.680
     4   1 H      0.926     0.121     1.602     1.979
     5   1 H      0.926     0.121     1.603     1.980
     6   1 H      0.926     0.121     1.603     1.980

 Mol. C6AA /au·bohr⁶  :        582.259740
 Mol. C8AA /au·bohr⁸  :      16370.704380
 Mol. α(0) /au        :         36.017610


Wiberg/Mayer (AO) data.
largest (>0.10) Wiberg bond orders for each atom
          total WBO             WBO to atom ...
     1  F   0.080
     2  Cl  0.811        C    3 0.808
     3  C   3.838        H    6 0.983    H    5 0.983    H    4 0.983    Cl   2 0.808
     4  H   0.985        C    3 0.983
     5  H   0.985        C    3 0.983
     6  H   0.985        C    3 0.983

molecular dipole:
                 x           y           z       tot (Debye)
 q only:        4.169       0.074      -0.075
   full:        4.217       0.075      -0.074      10.721
molecular quadrupole (traceless):
                xx          xy          yy          xz          yz          zz
 q only:      -43.454      -1.314      21.721       0.961       0.019      21.733
  q+dip:      -43.288      -1.305      21.638       0.962       0.019      21.650
   full:      -42.320      -1.272      21.154       0.949       0.019      21.166

           -------------------------------------------------
          |                Geometry Summary                 |
           -------------------------------------------------

      molecular mass/u    :       69.4858989
   center of mass at/Å    :       -0.0301807       0.0053305       0.0045419
  moments of inertia/u·Å² :        0.3397975E+01   0.3517274E+03   0.3517288E+03
rotational constants/cm⁻¹ :        0.4961083E+01   0.4792812E-01   0.4792792E-01

 * 3 selected distances

     #   Z        #   Z                                     value/Å
     3   6 C      4   1 H                                 1.0716436 (max)
     3   6 C      5   1 H                                 1.0716286 (min)
     3   6 C      6   1 H                                 1.0716343

 * 1 distinct bonds (by element types)

   Z      Z             #   av. dist./Å        max./Å        min./Å
   1 H    6 C           3     1.0716355     1.0716436     1.0716286


optimized geometry written to: xtbopt.xyz


           -------------------------------------------------
          | TOTAL ENERGY              -13.222063664581 Eh   |
          | GRADIENT NORM               0.000976492447 Eh/α |
          | HOMO-LUMO GAP               0.748072746982 eV   |
           -------------------------------------------------

------------------------------------------------------------------------
 * finished run on 2020/08/20 at 17:46:27.721     
------------------------------------------------------------------------
 total:
 * wall-time:     0 d,  0 h,  0 min,  0.125 sec
 *  cpu-time:     0 d,  0 h,  0 min,  0.442 sec
 * ratio c/w:     3.525 speedup
 SCF:
 * wall-time:     0 d,  0 h,  0 min,  0.005 sec
 *  cpu-time:     0 d,  0 h,  0 min,  0.019 sec
 * ratio c/w:     3.978 speedup
 ANC optimizer:
 * wall-time:     0 d,  0 h,  0 min,  0.086 sec
 *  cpu-time:     0 d,  0 h,  0 min,  0.345 sec
 * ratio c/w:     3.990 speedup

