      -----------------------------------------------------------      
     |                   =====================                   |     
     |                           x T B                           |     
     |                   =====================                   |     
     |                         S. Grimme                         |     
     |          Mulliken Center for Theoretical Chemistry        |     
     |                    University of Bonn                     |     
      -----------------------------------------------------------      

   * xtb version 6.2.3 (830e466) compiled by 'ehlert@majestix' on 2020-03-16

   xtb is free software: you can redistribute it and/or modify it under
   the terms of the GNU Lesser General Public License as published by
   the Free Software Foundation, either version 3 of the License, or
   (at your option) any later version.
   
   xtb is distributed in the hope that it will be useful,
   but WITHOUT ANY WARRANTY; without even the implied warranty of
   MERCHANTABILITY or FITNESS FOR A PARTICULAR PURPOSE.  See the
   GNU Lesser General Public License for more details.
   
   Cite this work as:
   * S. Grimme, C. Bannwarth, P. Shushkov, J. Chem. Theory Comput., 2017,
     13, 1989-2009. DOI: 10.1021/acs.jctc.7b00118
   * C. Bannwarth, S. Ehlert and S. Grimme., J. Chem. Theory Comput., 2019,
     15, 1652-1671. DOI: 10.1021/acs.jctc.8b01176
   * P. Pracht, E. Caldeweyher, S. Ehlert, S. Grimme, ChemRxiv, 2019, preprint.
     DOI: 10.26434/chemrxiv.8326202.v1
   
   for DFT-D4:
   * E. Caldeweyher, C. Bannwarth and S. Grimme, J. Chem. Phys., 2017,
     147, 034112. DOI: 10.1063/1.4993215
   * E. Caldeweyher, S. Ehlert, A. Hansen, H. Neugebauer, S. Spicher,
     C. Bannwarth and S. Grimme, J. Chem. Phys., 2019, 150, 154122.
     DOI: 10.1063/1.5090222
   
   for sTDA-xTB:
   * S. Grimme and C. Bannwarth, J. Chem. Phys., 2016, 145, 054103.
     DOI: 10.1063/1.4959605
   
   in the mass-spec context:
   * V. Asgeirsson, C. Bauer and S. Grimme, Chem. Sci., 2017, 8, 4879.
     DOI: 10.1039/c7sc00601b
   
   for metadynamics refer to:
   * S. Grimme, J. Chem. Theory Comput., 2019, 155, 2847-2862
     DOI: 10.1021/acs.jctc.9b00143
   
   with help from (in alphabetical order)
   C. Bannwarth, F. Bohle, G. Brandenburg, E. Caldeweyher, M. Checinski,
   S. Dohm, S. Ehlert, S. Ehrlich, F. März, H. Neugebauer, J. Pisarek,
   P. Pracht, P. Shushkov, and S. Spicher.
   
 * started run on 2020/08/20 at 17:46:27.865     

           -------------------------------------------------
          |                Calculation Setup                |
           -------------------------------------------------

          program call               : /u/fd/ball4935/opt/bin/xtb 3ixBtq_reactant_constrained_opt5_xtb.xyz --chrg -1 --opt --gbsa Water --input xcontrol_3ixBtq_reactant_constrained_opt5_xtb
          hostname                   : comp0810
          coordinate file            : 3ixBtq_reactant_constrained_opt5_xtb.xyz
          omp threads                :                     4
          number of atoms            :                     6
          number of electrons        :                    22
          charge                     :                    -1
          spin                       :                   0.0
          first test random number   :      0.52380114725004

constraining bond 1 3 to    2.6265000 Å, actual value:    2.7882966 Å
constraining bond 2 3 to    2.7292000 Å, actual value:    2.5363230 Å

molecular fragmentation (1/2 indicates fragments):
122222
# atoms in fragment 1/2:     1     5
 fragment masses (1/2) :       19.00       50.49
CMA distance (Bohr)    :   8.624
constraining FC (au)   : 20.0000
########################################################################
[WARNING] Please study the warnings concerning your input carefully
-2- prog_main: XTBPATH is not set, using XTBHOME instead
-1- prog_main: XTBHOME is not set, using HOME instead
########################################################################
           ------------------------------------------------- 
          |                 G F N 2 - x T B                 |
          | Geometry, Frequencies, Noncovalent interactions |
          |            JCTC 2019 parametrisation            |
           ------------------------------------------------- 
             k(s)              :                1.8500
             k(p)              :                2.2300
             k(d)              :                2.2300
             k(f)              :                2.0000
             kEN (H0ij)        :               -2.0000
             D4 a1             :                0.5200
             D4 a2             :                5.0000
             D4 s6             :                1.0000
             D4 s8             :                2.7000
             D4 s9             :                5.0000
             alphaj            :                2.0000

  Z AO/shell   Hii/eV     exponent
  1     Wed Apr 25 08:07:45 CEST 2018   EN: 2.200 GM2: 0.406  GM3: 0.0800  RAES: 1.40
     1s    -10.707211    1.230000
  6     Wed Apr 25 08:07:45 CEST 2018   EN: 2.550 GM2: 0.538  GM3: 0.1500  RAES: 3.00
     2s    -13.970922    2.096432
     2p    -10.063292    1.800000
  9     Mon Apr 23 13:58:50 CEST 2018   EN: 3.980 GM2: 0.532  GM3: 0.1426  RAES: 2.40
     2s    -23.458179    2.416361
     2p    -15.746583    2.308399
 17     Mon Apr 23 14:09:22 CEST 2018   EN: 3.160 GM2: 0.249  GM3: 0.1495  RAES: 2.50
     3s    -29.278781    2.485265
     3p    -12.673758    2.199650
     3d     -0.240338    2.476089

 Solvent             : Water
 Using internal parameter file: .param_gbsa2_Water
 Gsolv ref. state (COSMO-RS): gsolv [1 M gas/solution]
 temperature (mdtemp)       :    298.150000000000     
 dielectric constant        :    80.2000000000000     
 rho                        :    1.00000000000000     
 mass                       :    18.0000000000000     
 surface tension            :    15.5689454083859     
 probe radius               :   0.975313790000000     
 Gshift (Eh)                :   1.857443126794793E-003
 c1                         :    1.55243817000000     
 soset                      :   0.130326360000000     
 HB correction              :  T
           ------------------------------------------------- 
          |        Self-Consistent Charge Iterations        |
           ------------------------------------------------- 

          ...................................................
          :                      SETUP                      :
          :.................................................:
          :  # basis functions                  21          :
          :  # atomic orbitals                  20          :
          :  # shells                           10          :
          :  # electrons                        22          :
          :  max. iterations                   250          :
          :  Hamiltonian                  GFN2-xTB          :
          :  restarted?                      false          :
          :  GBSA solvation                   true          :
          :  PC potential                    false          :
          :  electronic temp.          300.0000000     K    :
          :  accuracy                    1.0000000          :
          :  -> integral cutoff          0.2500000E+02      :
          :  -> integral neglect         0.1000000E-07      :
          :  -> SCF convergence          0.1000000E-05 Eh   :
          :  -> wf. convergence          0.1000000E-03 e    :
          :  Broyden damping             0.4000000          :
          ...................................................

 iter      E             dE          RMSdq      gap      omega  full diag
   1    -13.1144349 -0.131144E+02  0.858E+00    3.47       0.0  T
   2    -13.0153840  0.990510E-01  0.674E+00    0.17       1.0  T
   3    -13.2193365 -0.203953E+00  0.455E+00    2.49       1.0  T
   4    -13.2620010 -0.426646E-01  0.173E+00    1.64       1.0  T
   5    -13.2619942  0.683255E-05  0.177E+00    1.67       1.0  T
   6    -13.2072043  0.547899E-01  0.366E+00    0.28       1.0  T
   7    -13.2666003 -0.593960E-01  0.464E-01    0.65       1.0  T
   8    -13.2668793 -0.278989E-03  0.201E-01    0.71       1.0  T
   9    -13.2669411 -0.617887E-04  0.678E-02    0.72       1.0  T
  10    -13.2668478  0.932906E-04  0.174E-01    0.77       1.0  T
  11    -13.2669187 -0.708955E-04  0.917E-02    0.75       1.0  T
  12    -13.2669435 -0.247255E-04  0.513E-02    0.73       1.0  T
  13    -13.2669542 -0.107506E-04  0.118E-02    0.72       3.5  T
  14    -13.2669546 -0.373556E-06  0.795E-03    0.72       5.1  T
  15    -13.2669547 -0.161572E-06  0.474E-03    0.72       8.6  T
  16    -13.2669548 -0.857751E-07  0.783E-04    0.72      52.1  T
  17    -13.2669548 -0.201040E-08  0.304E-04    0.72     134.1  T

   *** convergence criteria satisfied after 17 iterations ***

         #    Occupation            Energy/Eh            Energy/eV
      -------------------------------------------------------------
         1        2.0000           -1.0270453             -27.9473
       ...           ...                  ...                  ...
         5        2.0000           -0.5009833             -13.6325
         6        2.0000           -0.4272381             -11.6257
         7        2.0000           -0.4034959             -10.9797
         8        2.0000           -0.4034959             -10.9797
         9        2.0000           -0.3626338              -9.8678
        10        2.0000           -0.3603498              -9.8056
        11        2.0000           -0.3603488              -9.8056 (HOMO)
        12        0.0000           -0.3339333              -9.0868 (LUMO)
        13                          0.0684393               1.8623
        14                          0.0684394               1.8623
        15                          0.0700329               1.9057
        16                          0.0700330               1.9057
       ...                                ...                  ...
        20                          0.2680166               7.2931
      -------------------------------------------------------------
                  HL-Gap            0.0264155 Eh            0.7188 eV
             Fermi-level           -0.3467910 Eh           -9.4367 eV

 SCC (total)                   0 d,  0 h,  0 min,  0.006 sec
 SCC setup                      ...        0 min,  0.000 sec (  6.179%)
 Dispersion                     ...        0 min,  0.000 sec (  0.637%)
 integral evaluation            ...        0 min,  0.001 sec (  9.734%)
 zeroth order Hamiltonian       ...        0 min,  0.000 sec (  0.688%)
 iterations                     ...        0 min,  0.004 sec ( 67.035%)
 molecular gradient             ...        0 min,  0.001 sec ( 11.917%)
 printout                       ...        0 min,  0.000 sec (  2.524%)

         :::::::::::::::::::::::::::::::::::::::::::::::::::::
         ::                     SUMMARY                     ::
         :::::::::::::::::::::::::::::::::::::::::::::::::::::
         :: total energy              -8.678929866598 Eh    ::
         :: total w/o Gsasa/hb        -8.676823198963 Eh    ::
         :: gradient norm             32.832135450733 Eh/a0 ::
         :: HOMO-LUMO gap              0.718802529143 eV    ::
         ::.................................................::
         :: SCC energy               -13.264259453268 Eh    ::
         :: -> isotropic ES            0.230024101742 Eh    ::
         :: -> anisotropic ES         -0.002255952174 Eh    ::
         :: -> anisotropic XC          0.005692981594 Eh    ::
         :: -> dispersion             -0.001805507437 Eh    ::
         :: -> Gsolv                  -0.112084871469 Eh    ::
         ::    -> Gborn               -0.109978203834 Eh    ::
         ::    -> Gsasa                0.000837933967 Eh    ::
         ::    -> Ghb                 -0.004802044730 Eh    ::
         ::    -> Gshift               0.001857443127 Eh    ::
         :: repulsion energy           0.058672634204 Eh    ::
         :: add. restraining           4.526658239677 Eh    ::
         :::::::::::::::::::::::::::::::::::::::::::::::::::::

      ----------------------------------------------------------- 
     |                   =====================                   |
     |                        A N C O P T                        |
     |                   =====================                   |
     |               Approximate Normal Coordinate               |
     |                Rational Function Optimizer                |
      ----------------------------------------------------------- 

          ...................................................
          :                      SETUP                      :
          :.................................................:
          :   optimization level            normal          :
          :   max. optcycles                   200          :
          :   ANC micro-cycles                  20          :
          :   degrees of freedom                12          :
          :.................................................:
          :   RF solver                   davidson          :
          :   write xtbopt.log                true          :
          :   linear?                        false          :
          :   energy convergence         0.5000000E-05 Eh   :
          :   grad. convergence          0.1000000E-02 Eh/α :
          :   maximium RF displ.         1.0000000          :
          :   Hlow (freq-cutoff)         0.1000000E-01      :
          :   Hmax (freq-cutoff)         5.0000000          :
          :   S6 in model hess.         20.0000000          :
          ...................................................

generating ANC from model Hessian ...
Using Lindh-Hessian (1995)
 Shifting diagonal of input Hessian by    2.07506951802740     
 Lowest  eigenvalues of input Hessian
    0.010000    0.010148   -0.000000   -0.000000   -0.000000    0.000000
    0.000000    0.000000    2.087385    2.220735    2.220760    2.513852
    2.603059    2.603100    3.540987    3.541077   42.086859  122.122254
 Highest eigenvalues
    2.603059    2.603100    3.540987    3.541077   42.086859  122.122254
 

........................................................................
.............................. CYCLE    1 ..............................
........................................................................
   1    -13.2669548 -0.132670E+02  0.123E-04    0.72       0.0  T
   2    -13.2669548  0.976126E-10  0.198E-04    0.72     206.7  T
   3    -13.2669548 -0.157769E-09  0.104E-05    0.72    3911.1  T
     SCC iter.                  ...        0 min,  0.001 sec
     gradient                   ...        0 min,  0.001 sec
 * total energy  :    -8.6789299 Eh     change       -0.8617178E-09 Eh
   gradient norm :    32.8321318 Eh/α   predicted     0.0000000E+00 (-100.00%)
   displ. norm   :     0.9267498 α      lambda       -0.3042717E+02
   maximum displ.:     0.9256229 α      in ANC's #11, #12, #6, ...

........................................................................
.............................. CYCLE    2 ..............................
........................................................................
   1    -13.1515597 -0.131516E+02  0.607E+00    1.02       0.0  T
   2    -13.1459987  0.556099E-02  0.498E+00    2.53       1.0  T
   3    -13.2400122 -0.940135E-01  0.132E+00    1.17       1.0  T
   4    -13.2408075 -0.795207E-03  0.410E-01    0.86       1.0  T
   5    -13.2398314  0.976051E-03  0.639E-01    1.06       1.0  T
   6    -13.2409020 -0.107062E-02  0.227E-01    0.92       1.0  T
   7    -13.2409425 -0.404607E-04  0.195E-01    0.97       1.0  T
   8    -13.2410658 -0.123357E-03  0.240E-02    0.97       1.7  T
   9    -13.2410674 -0.155311E-05  0.751E-03    0.97       5.4  T
  10    -13.2410674 -0.568217E-07  0.275E-03    0.97      14.8  T
  11    -13.2410675 -0.210529E-07  0.784E-04    0.97      52.0  T
     SCC iter.                  ...        0 min,  0.001 sec
     gradient                   ...        0 min,  0.001 sec
 * total energy  :    12.3112142 Eh     change        0.2099014E+02 Eh
   gradient norm :    78.2271442 Eh/α   predicted    -0.2828001E+02 (-234.73%)
   displ. norm   :     0.4939959 α      lambda       -0.3862334E+02
   maximum displ.:     0.4937722 α      in ANC's #11, #12, #6, ...

........................................................................
.............................. CYCLE    3 ..............................
........................................................................
   1    -13.2287590 -0.132288E+02  0.435E+00    0.73       0.0  T
   2    -13.2283371  0.421943E-03  0.240E+00    1.57       1.0  T
   3    -13.2171032  0.112339E-01  0.316E+00    0.66       1.0  T
   4    -13.2539551 -0.368520E-01  0.341E-01    1.09       1.0  T
   5    -13.2517596  0.219555E-02  0.789E-01    0.91       1.0  T
   6    -13.2540454 -0.228586E-02  0.644E-02    1.03       1.0  T
   7    -13.2540557 -0.102649E-04  0.172E-02    1.04       2.4  T
   8    -13.2540563 -0.641249E-06  0.608E-03    1.04       6.7  T
   9    -13.2540564 -0.457017E-07  0.466E-03    1.04       8.8  T
  10    -13.2540564 -0.431061E-07  0.148E-03    1.04      27.5  T
     SCC iter.                  ...        0 min,  0.001 sec
     gradient                   ...        0 min,  0.000 sec
 * total energy  :   -11.6831874 Eh     change       -0.2399440E+02 Eh
   gradient norm :    19.0118650 Eh/α   predicted    -0.2402434E+02 (   0.12%)
   displ. norm   :     0.1954121 α      lambda       -0.3046962E+01
   maximum displ.:     0.1554785 α      in ANC's #11, #12, #6, ...

........................................................................
.............................. CYCLE    4 ..............................
........................................................................
   1    -13.2593807 -0.132594E+02  0.123E+00    1.28       0.0  T
   2    -13.2613708 -0.199011E-02  0.302E-01    0.94       1.0  T
   3    -13.2608961  0.474662E-03  0.385E-01    1.06       1.0  T
   4    -13.2615376 -0.641523E-03  0.143E-01    0.97       1.0  T
   5    -13.2615757 -0.380976E-04  0.241E-02    0.98       1.7  T
   6    -13.2615759 -0.165791E-06  0.214E-02    0.99       1.9  T
   7    -13.2615769 -0.998834E-06  0.144E-02    0.98       2.8  T
   8    -13.2615773 -0.406891E-06  0.758E-03    0.98       5.4  T
   9    -13.2615775 -0.239099E-06  0.509E-04    0.98      80.2  T
  10    -13.2615775 -0.879696E-09  0.133E-04    0.98     305.9  T
     SCC iter.                  ...        0 min,  0.001 sec
     gradient                   ...        0 min,  0.001 sec
 * total energy  :   -13.0009357 Eh     change       -0.1317748E+01 Eh
   gradient norm :     3.9544923 Eh/α   predicted    -0.1581657E+01 (  20.03%)
   displ. norm   :     0.4680141 α      lambda       -0.1837098E+01
   maximum displ.:     0.4576570 α      in ANC's #12, #11, #6, ...

........................................................................
.............................. CYCLE    5 ..............................
........................................................................
   1    -13.2491636 -0.132492E+02  0.489E-01    0.63       0.0  T
   2    -13.2492462 -0.825128E-04  0.361E-01    0.51       1.0  T
   3    -13.2488735  0.372707E-03  0.432E-01    0.61       1.0  T
   4    -13.2495959 -0.722483E-03  0.997E-02    0.55       1.0  T
   5    -13.2496010 -0.508058E-05  0.349E-02    0.55       1.2  T
   6    -13.2496004  0.605021E-06  0.405E-02    0.56       1.0  T
   7    -13.2496062 -0.582545E-05  0.572E-03    0.55       7.1  T
   8    -13.2496062  0.265127E-08  0.436E-03    0.56       9.4  T
     SCC iter.                  ...        0 min,  0.001 sec
     gradient                   ...        0 min,  0.000 sec
 * total energy  :   -10.0746995 Eh     change        0.2926236E+01 Eh
   gradient norm :    18.3372469 Eh/α   predicted    -0.1119745E+01 (-138.27%)
   displ. norm   :     0.3279778 α      lambda       -0.5564623E+01
   maximum displ.:     0.3150546 α      in ANC's #12, #11, #3, ...

........................................................................
.............................. CYCLE    6 ..............................
........................................................................
   1    -13.2565314 -0.132565E+02  0.445E-01    0.77       0.0  T
   2    -13.2565903 -0.589717E-04  0.314E-01    0.91       1.0  T
   3    -13.2565353  0.550534E-04  0.321E-01    0.80       1.0  T
   4    -13.2569228 -0.387499E-03  0.726E-02    0.86       1.0  T
   5    -13.2569279 -0.509190E-05  0.321E-02    0.84       1.3  T
   6    -13.2569311 -0.324391E-05  0.898E-03    0.85       4.5  T
   7    -13.2569313 -0.183497E-06  0.349E-03    0.85      11.7  T
   8    -13.2569313 -0.224631E-07  0.170E-03    0.85      24.1  T
     SCC iter.                  ...        0 min,  0.001 sec
     gradient                   ...        0 min,  0.000 sec
 * total energy  :   -13.1556723 Eh     change       -0.3080973E+01 Eh
   gradient norm :     1.8221752 Eh/α   predicted    -0.3081603E+01 (   0.02%)
   displ. norm   :     0.0464133 α      lambda       -0.7957949E-01
   maximum displ.:     0.0441435 α      in ANC's #12, #1, #2, ...

........................................................................
.............................. CYCLE    7 ..............................
........................................................................
   1    -13.2580590 -0.132581E+02  0.326E-02    0.89       0.0  T
   2    -13.2580551  0.393931E-05  0.397E-02    0.88       1.0  T
   3    -13.2580597 -0.454720E-05  0.187E-02    0.89       2.2  T
   4    -13.2580602 -0.562562E-06  0.436E-03    0.89       9.4  T
   5    -13.2580602 -0.247862E-07  0.303E-03    0.89      13.5  T
     SCC iter.                  ...        0 min,  0.001 sec
     gradient                   ...        0 min,  0.001 sec
 * total energy  :   -13.1954569 Eh     change       -0.3978463E-01 Eh
   gradient norm :     0.0189041 Eh/α   predicted    -0.3987547E-01 (   0.23%)
   displ. norm   :     0.1549456 α      lambda       -0.2747784E-03
   maximum displ.:     0.1493576 α      in ANC's #1, #2, #3, ...

........................................................................
.............................. CYCLE    8 ..............................
........................................................................
   1    -13.2571075 -0.132571E+02  0.216E-01    0.89       0.0  T
   2    -13.2571102 -0.266316E-05  0.131E-01    0.88       1.0  T
   3    -13.2570267  0.834867E-04  0.153E-01    0.91       1.0  T
   4    -13.2571155 -0.888278E-04  0.177E-02    0.89       2.3  T
   5    -13.2571156 -0.221975E-07  0.721E-03    0.89       5.7  T
   6    -13.2571156 -0.590629E-07  0.257E-03    0.89      15.9  T
   7    -13.2571156 -0.991771E-08  0.118E-03    0.89      34.5  T
     SCC iter.                  ...        0 min,  0.001 sec
     gradient                   ...        0 min,  0.000 sec
 * total energy  :   -13.1937671 Eh     change        0.1689810E-02 Eh
   gradient norm :     0.1245319 Eh/α   predicted    -0.1406759E-03 (-108.32%)
   displ. norm   :     0.1409800 α      lambda       -0.3647670E-02
   maximum displ.:     0.1339087 α      in ANC's #1, #2, #10, ...

........................................................................
.............................. CYCLE    9 ..............................
........................................................................
   1    -13.2578956 -0.132579E+02  0.197E-01    0.89       0.0  T
   2    -13.2578996 -0.397172E-05  0.118E-01    0.89       1.0  T
   3    -13.2578925  0.708751E-05  0.511E-02    0.90       1.0  T
   4    -13.2579012 -0.874034E-05  0.203E-02    0.89       2.0  T
   5    -13.2579019 -0.669103E-06  0.698E-03    0.89       5.8  T
   6    -13.2579019 -0.240203E-07  0.205E-03    0.89      19.9  T
   7    -13.2579019 -0.675120E-08  0.788E-04    0.89      51.8  T
     SCC iter.                  ...        0 min,  0.001 sec
     gradient                   ...        0 min,  0.000 sec
 * total energy  :   -13.1954856 Eh     change       -0.1718496E-02 Eh
   gradient norm :     0.0125042 Eh/α   predicted    -0.1860066E-02 (   8.24%)
   displ. norm   :     0.1087600 α      lambda       -0.1482361E-03
   maximum displ.:     0.1002800 α      in ANC's #2, #1, #3, ...

........................................................................
.............................. CYCLE   10 ..............................
........................................................................
   1    -13.2573727 -0.132574E+02  0.178E-01    0.89       0.0  T
   2    -13.2573741 -0.140293E-05  0.109E-01    0.89       1.0  T
   3    -13.2573299  0.441839E-04  0.110E-01    0.91       1.0  T
   4    -13.2573766 -0.466763E-04  0.126E-02    0.89       3.2  T
   5    -13.2573767 -0.266744E-07  0.276E-03    0.89      14.8  T
   6    -13.2573767 -0.715606E-08  0.170E-03    0.89      24.0  T
     SCC iter.                  ...        0 min,  0.001 sec
     gradient                   ...        0 min,  0.000 sec
 * total energy  :   -13.1946985 Eh     change        0.7871349E-03 Eh
   gradient norm :     0.0727201 Eh/α   predicted    -0.7499823E-04 (-109.53%)
   displ. norm   :     0.1000429 α      lambda       -0.1674541E-02
   maximum displ.:     0.0935372 α      in ANC's #2, #1, #3, ...

........................................................................
.............................. CYCLE   11 ..............................
........................................................................
   1    -13.2577422 -0.132577E+02  0.164E-01    0.89       0.0  T
   2    -13.2577441 -0.190083E-05  0.990E-02    0.89       1.0  T
   3    -13.2577368  0.730500E-05  0.477E-02    0.90       1.0  T
   4    -13.2577452 -0.839863E-05  0.127E-02    0.89       3.2  T
   5    -13.2577453 -0.141149E-06  0.412E-03    0.89       9.9  T
   6    -13.2577453 -0.132414E-07  0.137E-03    0.89      29.8  T
     SCC iter.                  ...        0 min,  0.001 sec
     gradient                   ...        0 min,  0.000 sec
 * total energy  :   -13.1955179 Eh     change       -0.8194633E-03 Eh
   gradient norm :     0.0065634 Eh/α   predicted    -0.8456554E-03 (   3.20%)
   displ. norm   :     0.0040380 α      lambda       -0.2349987E-04
   maximum displ.:     0.0034046 α      in ANC's #3, #6, #2, ...

........................................................................
.............................. CYCLE   12 ..............................
........................................................................
   1    -13.2576276 -0.132576E+02  0.672E-03    0.89       0.0  T
   2    -13.2576272  0.377977E-06  0.111E-02    0.89       3.7  T
   3    -13.2576277 -0.481136E-06  0.275E-03    0.89      14.8  T
   4    -13.2576277 -0.581976E-08  0.119E-03    0.89      34.3  T
     SCC iter.                  ...        0 min,  0.001 sec
     gradient                   ...        0 min,  0.001 sec
 * total energy  :   -13.1955407 Eh     change       -0.2278338E-04 Eh
   gradient norm :     0.0061935 Eh/α   predicted    -0.1175056E-04 ( -48.42%)
   displ. norm   :     0.0818767 α      lambda       -0.4826926E-03
   maximum displ.:     0.0749752 α      in ANC's #3, #6, #1, ...

........................................................................
.............................. CYCLE   13 ..............................
........................................................................
   1    -13.2549198 -0.132549E+02  0.126E-01    0.91       0.0  T
   2    -13.2547782  0.141516E-03  0.212E-01    0.85       1.0  T
   3    -13.2549578 -0.179505E-03  0.504E-02    0.89       1.0  T
   4    -13.2549603 -0.253204E-05  0.217E-02    0.89       1.9  T
   5    -13.2549606 -0.321033E-06  0.347E-03    0.89      11.8  T
   6    -13.2549606 -0.195276E-07  0.102E-03    0.89      40.2  T
   7    -13.2549606 -0.191093E-08  0.730E-04    0.89      56.0  T
     SCC iter.                  ...        0 min,  0.001 sec
     gradient                   ...        0 min,  0.000 sec
 * total energy  :   -13.1957956 Eh     change       -0.2548828E-03 Eh
   gradient norm :     0.0086856 Eh/α   predicted    -0.2429768E-03 (  -4.67%)
   displ. norm   :     0.0106092 α      lambda       -0.2970467E-04
   maximum displ.:     0.0085519 α      in ANC's #3, #1, #2, ...

........................................................................
.............................. CYCLE   14 ..............................
........................................................................
   1    -13.2550065 -0.132550E+02  0.138E-02    0.89       0.0  T
   2    -13.2550065 -0.884087E-07  0.746E-03    0.89       5.5  T
   3    -13.2550065  0.765810E-08  0.434E-03    0.89       9.4  T
   4    -13.2550064  0.109740E-06  0.557E-03    0.89       7.3  T
   5    -13.2550066 -0.125885E-06  0.526E-04    0.89      77.7  T
   6    -13.2550066 -0.106109E-09  0.166E-04    0.89     245.9  T
     SCC iter.                  ...        0 min,  0.001 sec
     gradient                   ...        0 min,  0.001 sec
 * total energy  :   -13.1958207 Eh     change       -0.2505170E-04 Eh
   gradient norm :     0.0083806 Eh/α   predicted    -0.1485560E-04 ( -40.70%)
   displ. norm   :     0.0255419 α      lambda       -0.8014171E-04
   maximum displ.:     0.0221707 α      in ANC's #3, #1, #2, ...

........................................................................
.............................. CYCLE   15 ..............................
........................................................................
   1    -13.2557201 -0.132557E+02  0.430E-02    0.89       0.0  T
   2    -13.2557154  0.469921E-05  0.425E-02    0.89       1.0  T
   3    -13.2557196 -0.418566E-05  0.310E-02    0.88       1.3  T
   4    -13.2557223 -0.267608E-05  0.739E-03    0.89       5.5  T
   5    -13.2557223 -0.591520E-08  0.112E-03    0.89      36.4  T
   6    -13.2557223 -0.449756E-09  0.256E-04    0.89     159.3  T
     SCC iter.                  ...        0 min,  0.001 sec
     gradient                   ...        0 min,  0.000 sec
 * total energy  :   -13.1958734 Eh     change       -0.5269850E-04 Eh
   gradient norm :     0.0055444 Eh/α   predicted    -0.4009796E-04 ( -23.91%)
   displ. norm   :     0.0143862 α      lambda       -0.3491465E-04
   maximum displ.:     0.0137176 α      in ANC's #3, #6, #1, ...

........................................................................
.............................. CYCLE   16 ..............................
........................................................................
   1    -13.2564722 -0.132565E+02  0.331E-02    0.88       0.0  T
   2    -13.2564656  0.663390E-05  0.450E-02    0.89       1.0  T
   3    -13.2564734 -0.779391E-05  0.187E-02    0.88       2.2  T
   4    -13.2564743 -0.900817E-06  0.614E-03    0.89       6.7  T
   5    -13.2564743 -0.396235E-07  0.453E-04    0.89      90.1  T
   6    -13.2564743 -0.163102E-09  0.113E-04    0.89     361.2  T
     SCC iter.                  ...        0 min,  0.001 sec
     gradient                   ...        0 min,  0.000 sec
 * total energy  :   -13.1958987 Eh     change       -0.2531805E-04 Eh
   gradient norm :     0.0061246 Eh/α   predicted    -0.1746143E-04 ( -31.03%)
   displ. norm   :     0.0118209 α      lambda       -0.2406359E-04
   maximum displ.:     0.0095986 α      in ANC's #3, #6, #1, ...

........................................................................
.............................. CYCLE   17 ..............................
........................................................................
   1    -13.2572297 -0.132572E+02  0.312E-02    0.88       0.0  T
   2    -13.2572227  0.703298E-05  0.458E-02    0.89       1.0  T
   3    -13.2572311 -0.842117E-05  0.160E-02    0.88       2.5  T
   4    -13.2572317 -0.622863E-06  0.508E-03    0.88       8.0  T
   5    -13.2572318 -0.252848E-07  0.649E-04    0.88      62.9  T
   6    -13.2572318 -0.437760E-09  0.111E-04    0.88     369.0  T
     SCC iter.                  ...        0 min,  0.001 sec
     gradient                   ...        0 min,  0.000 sec
 * total energy  :   -13.1959132 Eh     change       -0.1448205E-04 Eh
   gradient norm :     0.0041181 Eh/α   predicted    -0.1203179E-04 ( -16.92%)
   displ. norm   :     0.0036798 α      lambda       -0.2921026E-05
   maximum displ.:     0.0032589 α      in ANC's #1, #2, #6, ...

........................................................................
.............................. CYCLE   18 ..............................
........................................................................
   1    -13.2573675 -0.132574E+02  0.694E-03    0.88       0.0  T
   2    -13.2573673  0.217916E-06  0.851E-03    0.89       4.8  T
   3    -13.2573675 -0.242126E-06  0.424E-03    0.88       9.6  T
   4    -13.2573676 -0.364443E-07  0.450E-04    0.88      90.7  T
   5    -13.2573676  0.411315E-10  0.280E-04    0.88     146.1  T
     SCC iter.                  ...        0 min,  0.001 sec
     gradient                   ...        0 min,  0.001 sec
 * total energy  :   -13.1959149 Eh     change       -0.1698509E-05 Eh
   gradient norm :     0.0011707 Eh/α   predicted    -0.1461756E-05 ( -13.94%)
   displ. norm   :     0.0018831 α      lambda       -0.1831014E-06
   maximum displ.:     0.0013201 α      in ANC's #1, #3, #2, ...

........................................................................
.............................. CYCLE   19 ..............................
........................................................................
   1    -13.2573473 -0.132573E+02  0.279E-03    0.88       0.0  T
   2    -13.2573473  0.455922E-08  0.198E-03    0.88      20.6  T
   3    -13.2573473  0.587803E-08  0.226E-03    0.88      18.0  T
   4    -13.2573473 -0.150504E-07  0.530E-04    0.88      77.0  T
   5    -13.2573473 -0.438176E-09  0.118E-04    0.88     345.6  T
     SCC iter.                  ...        0 min,  0.001 sec
     gradient                   ...        0 min,  0.000 sec
 * total energy  :   -13.1959150 Eh     change       -0.9169922E-07 Eh
   gradient norm :     0.0003372 Eh/α   predicted    -0.9281499E-07 (   1.22%)
   displ. norm   :     0.0004432 α      lambda       -0.2214366E-07
   maximum displ.:     0.0003420 α      in ANC's #1, #3, #2, ...

   *** GEOMETRY OPTIMIZATION CONVERGED AFTER 19 ITERATIONS ***

------------------------------------------------------------------------
 total energy gain   :        -4.5169851 Eh    -2834.4509 kcal/mol
 total RMSD          :         0.1277279 a0        0.0676 Å
 total power (kW/mol):      -624.1759330 (step)********** (real)
------------------------------------------------------------------------

 ANCopt (total)                0 d,  0 h,  0 min,  0.043 sec
 optimizer setup                ...        0 min,  0.000 sec (  0.255%)
 model hessian                  ...        0 min,  0.001 sec (  2.493%)
 ANC generation                 ...        0 min,  0.000 sec (  0.380%)
 coordinate transformation      ...        0 min,  0.000 sec (  0.597%)
 single point calculation       ...        0 min,  0.038 sec ( 87.689%)
 optimization log               ...        0 min,  0.001 sec (  2.092%)
 hessian update                 ...        0 min,  0.000 sec (  0.677%)
 rational function              ...        0 min,  0.001 sec (  2.490%)

================
 final structure:
================
6
 xtb: 6.2.3 (830e466)
F        -3.21373617161042   -0.06371584210445    0.04787149407351
Cl        2.13962227494263    0.05183290968326   -0.02153480513972
C        -0.58837336873638   -0.00931134618329    0.00412703394301
H        -0.62639043213274   -0.64553388518909   -0.85560088957350
H        -0.61059467101362   -0.43716883093848    0.98453326431451
H        -0.65619763144939    1.05179699473205   -0.11512609761779
 
 Bond Distances (Angstroems)
 ---------------------------
C3-H4=1.0702         C3-H5=1.0699         C3-H6=1.0699         H4-C3=1.0702         H5-C3=1.0699         H6-C3=1.0699         
 C  H  Rav=1.0700 sigma=0.0001  Rmin=1.0699  Rmax=1.0702     3
 
 selected bond angles (degree)
 --------------------
H5-C3-H4=119.84                H6-C3-H4=119.85                H6-C3-H5=119.83                
 
 selected dihedral angles (degree)
 ---------------------------------

 
 CMA Distance (Angstroems)
 ---------------------------
R(CMA):  4.5399
           -------------------------------------------------
          |                Final Singlepoint                |
           -------------------------------------------------

          ...................................................
          :                      SETUP                      :
          :.................................................:
          :  # basis functions                  21          :
          :  # atomic orbitals                  20          :
          :  # shells                           10          :
          :  # electrons                        22          :
          :  max. iterations                   250          :
          :  Hamiltonian                  GFN2-xTB          :
          :  restarted?                      false          :
          :  GBSA solvation                   true          :
          :  PC potential                    false          :
          :  electronic temp.          300.0000000     K    :
          :  accuracy                    1.0000000          :
          :  -> integral cutoff          0.2500000E+02      :
          :  -> integral neglect         0.1000000E-07      :
          :  -> SCF convergence          0.1000000E-05 Eh   :
          :  -> wf. convergence          0.1000000E-03 e    :
          :  Broyden damping             0.4000000          :
          ...................................................

 iter      E             dE          RMSdq      gap      omega  full diag
   1    -13.2573473 -0.132573E+02  0.389E-05    0.88       0.0  T
   2    -13.2573473 -0.660805E-12  0.341E-05    0.88    1197.0  T
   3    -13.2573473  0.244782E-11  0.395E-05    0.88    1033.2  T

   *** convergence criteria satisfied after 3 iterations ***

         #    Occupation            Energy/Eh            Energy/eV
      -------------------------------------------------------------
         1        2.0000           -1.0174990             -27.6876
       ...           ...                  ...                  ...
         5        2.0000           -0.5028663             -13.6837
         6        2.0000           -0.4144692             -11.2783
         7        2.0000           -0.3973476             -10.8124
         8        2.0000           -0.3973475             -10.8124
         9        2.0000           -0.3816408             -10.3850
        10        2.0000           -0.3783470             -10.2953
        11        2.0000           -0.3783463             -10.2953 (HOMO)
        12        0.0000           -0.3458405              -9.4108 (LUMO)
        13                          0.0856401               2.3304
        14                          0.0856405               2.3304
        15                          0.0863006               2.3484
        16                          0.0871702               2.3720
       ...                                ...                  ...
        20                          0.2704722               7.3599
      -------------------------------------------------------------
                  HL-Gap            0.0325058 Eh            0.8845 eV
             Fermi-level           -0.3617569 Eh           -9.8439 eV

 SCC (total)                   0 d,  0 h,  0 min,  0.002 sec
 SCC setup                      ...        0 min,  0.000 sec (  9.907%)
 Dispersion                     ...        0 min,  0.000 sec (  0.797%)
 integral evaluation            ...        0 min,  0.000 sec ( 21.987%)
 zeroth order Hamiltonian       ...        0 min,  0.000 sec (  1.159%)
 iterations                     ...        0 min,  0.000 sec ( 26.796%)
 molecular gradient             ...        0 min,  0.000 sec ( 29.273%)
 printout                       ...        0 min,  0.000 sec (  5.953%)

         :::::::::::::::::::::::::::::::::::::::::::::::::::::
         ::                     SUMMARY                     ::
         :::::::::::::::::::::::::::::::::::::::::::::::::::::
         :: total energy             -13.195914956045 Eh    ::
         :: total w/o Gsasa/hb       -13.194181360626 Eh    ::
         :: gradient norm              0.000337171005 Eh/a0 ::
         :: HOMO-LUMO gap              0.884526685562 eV    ::
         ::.................................................::
         :: SCC energy               -13.254723534048 Eh    ::
         :: -> isotropic ES            0.209502585979 Eh    ::
         :: -> anisotropic ES         -0.003058975654 Eh    ::
         :: -> anisotropic XC          0.005989949668 Eh    ::
         :: -> dispersion             -0.001771432758 Eh    ::
         :: -> Gsolv                  -0.103363682452 Eh    ::
         ::    -> Gborn               -0.101630087032 Eh    ::
         ::    -> Gsasa                0.000766329889 Eh    ::
         ::    -> Ghb                 -0.004357368436 Eh    ::
         ::    -> Gshift               0.001857443127 Eh    ::
         :: repulsion energy           0.058795439652 Eh    ::
         :: add. restraining           0.000014470663 Eh    ::
         :::::::::::::::::::::::::::::::::::::::::::::::::::::

           -------------------------------------------------
          |                Property Printout                |
           -------------------------------------------------

    * Orbital Energies and Occupations

         #    Occupation            Energy/Eh            Energy/eV
      -------------------------------------------------------------
         1        2.0000           -1.0174990             -27.6876
         2        2.0000           -0.6549666             -17.8225
         3        2.0000           -0.6006179             -16.3436
         4        2.0000           -0.5028921             -13.6844
         5        2.0000           -0.5028663             -13.6837
         6        2.0000           -0.4144692             -11.2783
         7        2.0000           -0.3973476             -10.8124
         8        2.0000           -0.3973475             -10.8124
         9        2.0000           -0.3816408             -10.3850
        10        2.0000           -0.3783470             -10.2953
        11        2.0000           -0.3783463             -10.2953 (HOMO)
        12        0.0000           -0.3458405              -9.4108 (LUMO)
        13                          0.0856401               2.3304
        14                          0.0856405               2.3304
        15                          0.0863006               2.3484
        16                          0.0871702               2.3720
        17                          0.0871703               2.3720
        18                          0.1066360               2.9017
        19                          0.2702282               7.3533
        20                          0.2704722               7.3599
      -------------------------------------------------------------
                  HL-Gap            0.0325058 Eh            0.8845 eV
             Fermi-level           -0.3617569 Eh           -9.8439 eV

     #   Z        covCN         q      C6AA      α(0)
     1   9 F      0.000    -0.751    19.370     5.126
     2  17 Cl     0.028    -0.622   112.509    16.143
     3   6 C      2.807    -0.026    28.629     8.766
     4   1 H      0.927     0.133     1.512     1.923
     5   1 H      0.927     0.133     1.513     1.923
     6   1 H      0.927     0.133     1.513     1.923

 Mol. C6AA /au·bohr⁶  :        571.235180
 Mol. C8AA /au·bohr⁸  :      16304.861480
 Mol. α(0) /au        :         35.805041


Wiberg/Mayer (AO) data.
largest (>0.10) Wiberg bond orders for each atom
          total WBO             WBO to atom ...
     1  F   0.342        C    3 0.342
     2  Cl  0.519        C    3 0.519
     3  C   3.803        H    5 0.981    H    6 0.981    H    4 0.981    Cl   2 0.519    F    1 0.342
     4  H   0.982        C    3 0.981
     5  H   0.982        C    3 0.981
     6  H   0.982        C    3 0.981

molecular dipole:
                 x           y           z       tot (Debye)
 q only:        1.595       0.022      -0.039
   full:        1.703       0.025      -0.040       4.331
molecular quadrupole (traceless):
                xx          xy          yy          xz          yz          zz
 q only:      -38.129      -1.207      19.057       0.780       0.017      19.072
  q+dip:      -37.885      -1.197      18.935       0.781       0.017      18.950
   full:      -36.895      -1.164      18.441       0.765       0.017      18.455

           -------------------------------------------------
          |                Geometry Summary                 |
           -------------------------------------------------

      molecular mass/u    :       69.4858989
   center of mass at/Å    :        0.0838303       0.0069675       0.0030149
  moments of inertia/u·Å² :        0.3457783E+01   0.3653509E+03   0.3653529E+03
rotational constants/cm⁻¹ :        0.4875271E+01   0.4614093E-01   0.4614068E-01

 * 3 selected distances

     #   Z        #   Z                                     value/Å
     3   6 C      4   1 H                                 1.0702133 (max)
     3   6 C      5   1 H                                 1.0699309 (min)
     3   6 C      6   1 H                                 1.0699403

 * 1 distinct bonds (by element types)

   Z      Z             #   av. dist./Å        max./Å        min./Å
   1 H    6 C           3     1.0700282     1.0702133     1.0699309


optimized geometry written to: xtbopt.xyz


           -------------------------------------------------
          | TOTAL ENERGY              -13.195914956045 Eh   |
          | GRADIENT NORM               0.000337171005 Eh/α |
          | HOMO-LUMO GAP               0.884526685562 eV   |
           -------------------------------------------------

------------------------------------------------------------------------
 * finished run on 2020/08/20 at 17:46:27.952     
------------------------------------------------------------------------
 total:
 * wall-time:     0 d,  0 h,  0 min,  0.086 sec
 *  cpu-time:     0 d,  0 h,  0 min,  0.284 sec
 * ratio c/w:     3.304 speedup
 SCF:
 * wall-time:     0 d,  0 h,  0 min,  0.006 sec
 *  cpu-time:     0 d,  0 h,  0 min,  0.023 sec
 * ratio c/w:     3.983 speedup
 ANC optimizer:
 * wall-time:     0 d,  0 h,  0 min,  0.046 sec
 *  cpu-time:     0 d,  0 h,  0 min,  0.182 sec
 * ratio c/w:     3.990 speedup

