      -----------------------------------------------------------      
     |                   =====================                   |     
     |                           x T B                           |     
     |                   =====================                   |     
     |                         S. Grimme                         |     
     |          Mulliken Center for Theoretical Chemistry        |     
     |                    University of Bonn                     |     
      -----------------------------------------------------------      

   * xtb version 6.2.3 (830e466) compiled by 'ehlert@majestix' on 2020-03-16

   xtb is free software: you can redistribute it and/or modify it under
   the terms of the GNU Lesser General Public License as published by
   the Free Software Foundation, either version 3 of the License, or
   (at your option) any later version.
   
   xtb is distributed in the hope that it will be useful,
   but WITHOUT ANY WARRANTY; without even the implied warranty of
   MERCHANTABILITY or FITNESS FOR A PARTICULAR PURPOSE.  See the
   GNU Lesser General Public License for more details.
   
   Cite this work as:
   * S. Grimme, C. Bannwarth, P. Shushkov, J. Chem. Theory Comput., 2017,
     13, 1989-2009. DOI: 10.1021/acs.jctc.7b00118
   * C. Bannwarth, S. Ehlert and S. Grimme., J. Chem. Theory Comput., 2019,
     15, 1652-1671. DOI: 10.1021/acs.jctc.8b01176
   * P. Pracht, E. Caldeweyher, S. Ehlert, S. Grimme, ChemRxiv, 2019, preprint.
     DOI: 10.26434/chemrxiv.8326202.v1
   
   for DFT-D4:
   * E. Caldeweyher, C. Bannwarth and S. Grimme, J. Chem. Phys., 2017,
     147, 034112. DOI: 10.1063/1.4993215
   * E. Caldeweyher, S. Ehlert, A. Hansen, H. Neugebauer, S. Spicher,
     C. Bannwarth and S. Grimme, J. Chem. Phys., 2019, 150, 154122.
     DOI: 10.1063/1.5090222
   
   for sTDA-xTB:
   * S. Grimme and C. Bannwarth, J. Chem. Phys., 2016, 145, 054103.
     DOI: 10.1063/1.4959605
   
   in the mass-spec context:
   * V. Asgeirsson, C. Bauer and S. Grimme, Chem. Sci., 2017, 8, 4879.
     DOI: 10.1039/c7sc00601b
   
   for metadynamics refer to:
   * S. Grimme, J. Chem. Theory Comput., 2019, 155, 2847-2862
     DOI: 10.1021/acs.jctc.9b00143
   
   with help from (in alphabetical order)
   C. Bannwarth, F. Bohle, G. Brandenburg, E. Caldeweyher, M. Checinski,
   S. Dohm, S. Ehlert, S. Ehrlich, F. März, H. Neugebauer, J. Pisarek,
   P. Pracht, P. Shushkov, and S. Spicher.
   
 * started run on 2020/08/20 at 17:46:27.454     

           -------------------------------------------------
          |                Calculation Setup                |
           -------------------------------------------------

          program call               : /u/fd/ball4935/opt/bin/xtb 3ixBtq_reactant_constrained_opt2_xtb.xyz --chrg -1 --opt --gbsa Water --input xcontrol_3ixBtq_reactant_constrained_opt2_xtb
          hostname                   : comp0810
          coordinate file            : 3ixBtq_reactant_constrained_opt2_xtb.xyz
          omp threads                :                     4
          number of atoms            :                     6
          number of electrons        :                    22
          charge                     :                    -1
          spin                       :                   0.0
          first test random number   :      0.37389068341847

constraining bond 1 3 to    3.1121000 Å, actual value:    3.2740123 Å
constraining bond 2 3 to    2.1522000 Å, actual value:    1.9592825 Å

molecular fragmentation (1/2 indicates fragments):
122222
# atoms in fragment 1/2:     1     5
 fragment masses (1/2) :       19.00       50.49
CMA distance (Bohr)    :   8.754
constraining FC (au)   : 20.0000
########################################################################
[WARNING] Please study the warnings concerning your input carefully
-2- prog_main: XTBPATH is not set, using XTBHOME instead
-1- prog_main: XTBHOME is not set, using HOME instead
########################################################################
           ------------------------------------------------- 
          |                 G F N 2 - x T B                 |
          | Geometry, Frequencies, Noncovalent interactions |
          |            JCTC 2019 parametrisation            |
           ------------------------------------------------- 
             k(s)              :                1.8500
             k(p)              :                2.2300
             k(d)              :                2.2300
             k(f)              :                2.0000
             kEN (H0ij)        :               -2.0000
             D4 a1             :                0.5200
             D4 a2             :                5.0000
             D4 s6             :                1.0000
             D4 s8             :                2.7000
             D4 s9             :                5.0000
             alphaj            :                2.0000

  Z AO/shell   Hii/eV     exponent
  1     Wed Apr 25 08:07:45 CEST 2018   EN: 2.200 GM2: 0.406  GM3: 0.0800  RAES: 1.40
     1s    -10.707211    1.230000
  6     Wed Apr 25 08:07:45 CEST 2018   EN: 2.550 GM2: 0.538  GM3: 0.1500  RAES: 3.00
     2s    -13.970922    2.096432
     2p    -10.063292    1.800000
  9     Mon Apr 23 13:58:50 CEST 2018   EN: 3.980 GM2: 0.532  GM3: 0.1426  RAES: 2.40
     2s    -23.458179    2.416361
     2p    -15.746583    2.308399
 17     Mon Apr 23 14:09:22 CEST 2018   EN: 3.160 GM2: 0.249  GM3: 0.1495  RAES: 2.50
     3s    -29.278781    2.485265
     3p    -12.673758    2.199650
     3d     -0.240338    2.476089

 Solvent             : Water
 Using internal parameter file: .param_gbsa2_Water
 Gsolv ref. state (COSMO-RS): gsolv [1 M gas/solution]
 temperature (mdtemp)       :    298.150000000000     
 dielectric constant        :    80.2000000000000     
 rho                        :    1.00000000000000     
 mass                       :    18.0000000000000     
 surface tension            :    15.5689454083859     
 probe radius               :   0.975313790000000     
 Gshift (Eh)                :   1.857443126794793E-003
 c1                         :    1.55243817000000     
 soset                      :   0.130326360000000     
 HB correction              :  T
           ------------------------------------------------- 
          |        Self-Consistent Charge Iterations        |
           ------------------------------------------------- 

          ...................................................
          :                      SETUP                      :
          :.................................................:
          :  # basis functions                  21          :
          :  # atomic orbitals                  20          :
          :  # shells                           10          :
          :  # electrons                        22          :
          :  max. iterations                   250          :
          :  Hamiltonian                  GFN2-xTB          :
          :  restarted?                      false          :
          :  GBSA solvation                   true          :
          :  PC potential                    false          :
          :  electronic temp.          300.0000000     K    :
          :  accuracy                    1.0000000          :
          :  -> integral cutoff          0.2500000E+02      :
          :  -> integral neglect         0.1000000E-07      :
          :  -> SCF convergence          0.1000000E-05 Eh   :
          :  -> wf. convergence          0.1000000E-03 e    :
          :  Broyden damping             0.4000000          :
          ...................................................

 iter      E             dE          RMSdq      gap      omega  full diag
   1    -13.2556973 -0.132557E+02  0.578E+00    6.10       0.0  T
   2    -13.3201295 -0.644322E-01  0.320E+00    3.65       1.0  T
   3    -13.3229820 -0.285246E-02  0.176E+00    3.50       1.0  T
   4    -13.3232124 -0.230432E-03  0.200E-01    2.88       1.0  T
   5    -13.3232196 -0.717003E-05  0.131E-01    2.92       1.0  T
   6    -13.3232386 -0.190431E-04  0.102E-01    2.89       1.0  T
   7    -13.3232631 -0.245057E-04  0.240E-02    2.88       1.7  T
   8    -13.3232638 -0.653277E-06  0.156E-02    2.87       2.6  T
   9    -13.3232643 -0.509557E-06  0.461E-04    2.88      88.5  T
  10    -13.3232643 -0.112816E-09  0.343E-04    2.88     119.1  T

   *** convergence criteria satisfied after 10 iterations ***

         #    Occupation            Energy/Eh            Energy/eV
      -------------------------------------------------------------
         1        2.0000           -1.0515611             -28.6144
       ...           ...                  ...                  ...
         5        2.0000           -0.5046246             -13.7315
         6        2.0000           -0.4835038             -13.1568
         7        2.0000           -0.4201731             -11.4335
         8        2.0000           -0.4201716             -11.4335
         9        2.0000           -0.3352331              -9.1222
        10        2.0000           -0.3346632              -9.1066
        11        2.0000           -0.3346620              -9.1066 (HOMO)
        12                         -0.2289549              -6.2302 (LUMO)
        13                          0.0268310               0.7301
        14                          0.0268511               0.7307
        15                          0.0289429               0.7876
        16                          0.0289592               0.7880
       ...                                ...                  ...
        20                          0.2302486               6.2654
      -------------------------------------------------------------
                  HL-Gap            0.1057071 Eh            2.8764 eV
             Fermi-level           -0.2818085 Eh           -7.6684 eV

 SCC (total)                   0 d,  0 h,  0 min,  0.005 sec
 SCC setup                      ...        0 min,  0.000 sec (  6.303%)
 Dispersion                     ...        0 min,  0.000 sec (  0.645%)
 integral evaluation            ...        0 min,  0.001 sec ( 10.864%)
 zeroth order Hamiltonian       ...        0 min,  0.000 sec (  0.670%)
 iterations                     ...        0 min,  0.003 sec ( 63.576%)
 molecular gradient             ...        0 min,  0.001 sec ( 14.160%)
 printout                       ...        0 min,  0.000 sec (  2.561%)

         :::::::::::::::::::::::::::::::::::::::::::::::::::::
         ::                     SUMMARY                     ::
         :::::::::::::::::::::::::::::::::::::::::::::::::::::
         :: total energy              -8.733431605989 Eh    ::
         :: total w/o Gsasa/hb        -8.730672237581 Eh    ::
         :: gradient norm             32.831398840999 Eh/a0 ::
         :: HOMO-LUMO gap              2.876435789521 eV    ::
         ::.................................................::
         :: SCC energy               -13.320375150272 Eh    ::
         :: -> isotropic ES            0.280174623232 Eh    ::
         :: -> anisotropic ES         -0.000851045624 Eh    ::
         :: -> anisotropic XC          0.004622571891 Eh    ::
         :: -> dispersion             -0.001778683702 Eh    ::
         :: -> Gsolv                  -0.138387837372 Eh    ::
         ::    -> Gborn               -0.135628468963 Eh    ::
         ::    -> Gsasa                0.001031682404 Eh    ::
         ::    -> Ghb                 -0.005648493939 Eh    ::
         ::    -> Gshift               0.001857443127 Eh    ::
         :: repulsion energy           0.056497067825 Eh    ::
         :: add. restraining           4.530447485547 Eh    ::
         :::::::::::::::::::::::::::::::::::::::::::::::::::::

      ----------------------------------------------------------- 
     |                   =====================                   |
     |                        A N C O P T                        |
     |                   =====================                   |
     |               Approximate Normal Coordinate               |
     |                Rational Function Optimizer                |
      ----------------------------------------------------------- 

          ...................................................
          :                      SETUP                      :
          :.................................................:
          :   optimization level            normal          :
          :   max. optcycles                   200          :
          :   ANC micro-cycles                  20          :
          :   degrees of freedom                12          :
          :.................................................:
          :   RF solver                   davidson          :
          :   write xtbopt.log                true          :
          :   linear?                        false          :
          :   energy convergence         0.5000000E-05 Eh   :
          :   grad. convergence          0.1000000E-02 Eh/α :
          :   maximium RF displ.         1.0000000          :
          :   Hlow (freq-cutoff)         0.1000000E-01      :
          :   Hmax (freq-cutoff)         5.0000000          :
          :   S6 in model hess.         20.0000000          :
          ...................................................

generating ANC from model Hessian ...
Using Lindh-Hessian (1995)
 Shifting diagonal of input Hessian by    4.51719381888323     
 Lowest  eigenvalues of input Hessian
    0.010000    0.010291   -0.000000    0.000000    0.000000    0.000000
    0.000000    0.000000    4.596872    4.629263    4.629278    4.831860
    4.831946    4.980662    5.614411    5.614801   44.627622  124.988871
 Highest eigenvalues
    4.831946    4.980662    5.614411    5.614801   44.627622  124.988871
 

........................................................................
.............................. CYCLE    1 ..............................
........................................................................
   1    -13.3232643 -0.133233E+02  0.140E-04    2.88       0.0  T
   2    -13.3232643 -0.275087E-10  0.826E-05    2.88     494.2  T
   3    -13.3232643 -0.526512E-11  0.650E-05    2.88     628.4  T
     SCC iter.                  ...        0 min,  0.000 sec
     gradient                   ...        0 min,  0.001 sec
 * total energy  :    -8.7334316 Eh     change        0.4594490E-08 Eh
   gradient norm :    32.8314001 Eh/α   predicted     0.0000000E+00 (-100.00%)
   displ. norm   :     0.9267485 α      lambda       -0.3042644E+02
   maximum displ.:     0.9257160 α      in ANC's #9, #12, #8, ...

........................................................................
.............................. CYCLE    2 ..............................
........................................................................
   1    -12.7502961 -0.127503E+02  0.107E+01    0.12       0.0  T
   2    -13.0110316 -0.260735E+00  0.846E+00    4.66       1.0  T
   3    -13.2220133 -0.210982E+00  0.399E+00    2.15       1.0  T
   4    -13.2658951 -0.438818E-01  0.185E+00    1.47       1.0  T
   5    -13.2475123  0.183828E-01  0.259E+00    1.72       1.0  T
   6    -12.7916564  0.455856E+00  0.967E+00    0.13       1.0  T
   7    -13.2625535 -0.470897E+00  0.157E+00    1.54       1.0  T
   8    -13.2625865 -0.330180E-04  0.154E+00    0.56       1.0  T
   9    -13.2555880  0.699852E-02  0.194E+00    0.52       1.0  T
  10    -13.1022828  0.153305E+00  0.590E+00    0.26       1.0  T
  11    -13.1409181 -0.386353E-01  0.521E+00    0.29       1.0  T
  12    -13.1383818  0.253626E-02  0.524E+00    0.28       1.0  T
  13    -13.2661887 -0.127807E+00  0.937E-01    0.62       1.0  T
  14    -13.2642738  0.191492E-02  0.117E+00    0.59       1.0  T
  15    -13.2650946 -0.820808E-03  0.116E+00    0.60       1.0  T
  16    -13.2710893 -0.599472E-02  0.241E-01    0.77       1.0  T
  17    -13.2713248 -0.235444E-03  0.112E-01    0.81       1.0  T
  18    -13.2713716 -0.468192E-04  0.371E-02    0.83       1.1  T
  19    -13.2713755 -0.391589E-05  0.205E-02    0.83       2.0  T
  20    -13.2713763 -0.784230E-06  0.142E-02    0.83       2.9  T
  21    -13.2713770 -0.689439E-06  0.507E-03    0.84       8.0  T
  22    -13.2713771 -0.101842E-06  0.183E-04    0.84     223.4  T
     SCC iter.                  ...        0 min,  0.003 sec
     gradient                   ...        0 min,  0.000 sec
 * total energy  :    12.2970133 Eh     change        0.2103044E+02 Eh
   gradient norm :    78.2604250 Eh/α   predicted    -0.2827929E+02 (-234.47%)
   displ. norm   :     0.4940363 α      lambda       -0.3864286E+02
   maximum displ.:     0.4937761 α      in ANC's #9, #12, #1, ...

........................................................................
.............................. CYCLE    3 ..............................
........................................................................
   1    -13.2995285 -0.132995E+02  0.226E+00    2.14       0.0  T
   2    -13.3013656 -0.183710E-02  0.838E-01    1.73       1.0  T
   3    -13.3018177 -0.452105E-03  0.750E-01    1.13       1.0  T
   4    -13.3025521 -0.734368E-03  0.159E-01    0.88       1.0  T
   5    -13.3025631 -0.109549E-04  0.958E-02    0.96       1.0  T
   6    -13.3025728 -0.971260E-05  0.574E-02    0.88       1.0  T
   7    -13.3025791 -0.629194E-05  0.377E-02    0.90       1.1  T
   8    -13.3025817 -0.264498E-05  0.761E-03    0.91       5.4  T
   9    -13.3025818 -0.835028E-07  0.103E-03    0.90      39.6  T
  10    -13.3025818 -0.920517E-09  0.408E-04    0.90     100.1  T
     SCC iter.                  ...        0 min,  0.001 sec
     gradient                   ...        0 min,  0.000 sec
 * total energy  :   -11.7219346 Eh     change       -0.2401895E+02 Eh
   gradient norm :    19.0643966 Eh/α   predicted    -0.2403725E+02 (   0.08%)
   displ. norm   :     0.1974305 α      lambda       -0.3068914E+01
   maximum displ.:     0.1562715 α      in ANC's #9, #12, #1, ...

........................................................................
.............................. CYCLE    4 ..............................
........................................................................
   1    -13.3150968 -0.133151E+02  0.742E-01    1.90       0.0  T
   2    -13.3154060 -0.309191E-03  0.325E-01    1.87       1.0  T
   3    -13.3154764 -0.704108E-04  0.239E-01    1.73       1.0  T
   4    -13.3155271 -0.507274E-04  0.101E-01    1.66       1.0  T
   5    -13.3155482 -0.210666E-04  0.553E-02    1.65       1.0  T
   6    -13.3155572 -0.898701E-05  0.149E-02    1.65       2.7  T
   7    -13.3155580 -0.844310E-06  0.879E-04    1.64      46.4  T
   8    -13.3155580 -0.419149E-10  0.588E-05    1.64     693.9  T
     SCC iter.                  ...        0 min,  0.001 sec
     gradient                   ...        0 min,  0.000 sec
 * total energy  :   -13.0395590 Eh     change       -0.1317624E+01 Eh
   gradient norm :     4.0376645 Eh/α   predicted    -0.1594268E+01 (  21.00%)
   displ. norm   :     0.4712648 α      lambda       -0.1886428E+01
   maximum displ.:     0.4607607 α      in ANC's #12, #9, #8, ...

........................................................................
.............................. CYCLE    5 ..............................
........................................................................
   1    -13.2995632 -0.132996E+02  0.468E-01    0.86       0.0  T
   2    -13.2995941 -0.308844E-04  0.309E-01    0.89       1.0  T
   3    -13.2996457 -0.515662E-04  0.107E-01    0.94       1.0  T
   4    -13.2996656 -0.199504E-04  0.835E-02    0.95       1.0  T
   5    -13.2996831 -0.174420E-04  0.448E-02    0.95       1.0  T
   6    -13.2996868 -0.375463E-05  0.447E-03    0.95       9.1  T
   7    -13.2996869 -0.117628E-07  0.140E-03    0.96      29.2  T
     SCC iter.                  ...        0 min,  0.001 sec
     gradient                   ...        0 min,  0.000 sec
 * total energy  :   -10.0844687 Eh     change        0.2955090E+01 Eh
   gradient norm :    18.5240794 Eh/α   predicted    -0.1152692E+01 (-139.01%)
   displ. norm   :     0.3287957 α      lambda       -0.5627070E+01
   maximum displ.:     0.3155525 α      in ANC's #12, #9, #10, ...

........................................................................
.............................. CYCLE    6 ..............................
........................................................................
   1    -13.3092616 -0.133093E+02  0.273E-01    1.36       0.0  T
   2    -13.3092743 -0.127095E-04  0.187E-01    1.34       1.0  T
   3    -13.3092819 -0.757077E-05  0.805E-02    1.34       1.0  T
   4    -13.3092943 -0.124140E-04  0.530E-02    1.33       1.0  T
   5    -13.3093048 -0.105456E-04  0.128E-02    1.32       3.2  T
   6    -13.3093050 -0.178352E-06  0.332E-03    1.32      12.3  T
   7    -13.3093050 -0.783011E-08  0.439E-04    1.32      93.0  T
     SCC iter.                  ...        0 min,  0.001 sec
     gradient                   ...        0 min,  0.000 sec
 * total energy  :   -13.2016098 Eh     change       -0.3117141E+01 Eh
   gradient norm :     1.8477318 Eh/α   predicted    -0.3117697E+01 (   0.02%)
   displ. norm   :     0.0668415 α      lambda       -0.8202703E-01
   maximum displ.:     0.0484805 α      in ANC's #1, #12, #2, ...

........................................................................
.............................. CYCLE    7 ..............................
........................................................................
   1    -13.3102561 -0.133103E+02  0.145E-01    1.43       0.0  T
   2    -13.3102576 -0.157777E-05  0.848E-02    1.42       1.0  T
   3    -13.3102587 -0.111951E-05  0.181E-02    1.41       2.2  T
   4    -13.3102590 -0.293861E-06  0.139E-02    1.41       2.9  T
   5    -13.3102594 -0.385376E-06  0.802E-03    1.41       5.1  T
   6    -13.3102596 -0.210105E-06  0.150E-03    1.41      27.2  T
   7    -13.3102596 -0.455475E-08  0.732E-04    1.41      55.8  T
     SCC iter.                  ...        0 min,  0.001 sec
     gradient                   ...        0 min,  0.001 sec
 * total energy  :   -13.2423608 Eh     change       -0.4075096E-01 Eh
   gradient norm :     0.0332129 Eh/α   predicted    -0.4119673E-01 (   1.09%)
   displ. norm   :     0.6073961 α      lambda       -0.6198416E-02
   maximum displ.:     0.5996323 α      in ANC's #1, #2, #12, ...

........................................................................
.............................. CYCLE    8 ..............................
........................................................................
   1    -13.2891792 -0.132892E+02  0.161E+00    1.12       0.0  T
   2    -13.2893878 -0.208654E-03  0.945E-01    1.08       1.0  T
   3    -13.2892392  0.148568E-03  0.321E-01    1.20       1.0  T
   4    -13.2895007 -0.261459E-03  0.819E-02    1.15       1.0  T
   5    -13.2895019 -0.115187E-05  0.162E-02    1.15       2.5  T
   6    -13.2895022 -0.308560E-06  0.102E-02    1.15       4.0  T
   7    -13.2895024 -0.223591E-06  0.520E-03    1.15       7.9  T
   8    -13.2895024 -0.621084E-07  0.125E-03    1.15      32.6  T
     SCC iter.                  ...        0 min,  0.001 sec
     gradient                   ...        0 min,  0.000 sec
 * total energy  :   -13.1205681 Eh     change        0.1217927E+00 Eh
   gradient norm :     3.1343629 Eh/α   predicted    -0.4242669E-02 (-103.48%)
   displ. norm   :     0.4238084 α      lambda       -0.3574741E+00
   maximum displ.:     0.4135959 α      in ANC's #1, #2, #10, ...

........................................................................
.............................. CYCLE    9 ..............................
........................................................................
   1    -13.3085932 -0.133086E+02  0.117E+00    1.49       0.0  T
   2    -13.3086673 -0.741452E-04  0.671E-01    1.48       1.0  T
   3    -13.3086974 -0.301106E-04  0.920E-02    1.43       1.0  T
   4    -13.3087042 -0.679519E-05  0.525E-02    1.45       1.0  T
   5    -13.3087056 -0.135005E-05  0.144E-02    1.44       2.8  T
   6    -13.3087059 -0.333661E-06  0.952E-03    1.44       4.3  T
   7    -13.3087062 -0.268432E-06  0.385E-03    1.44      10.6  T
   8    -13.3087062 -0.288810E-07  0.114E-03    1.44      35.8  T
     SCC iter.                  ...        0 min,  0.001 sec
     gradient                   ...        0 min,  0.000 sec
 * total energy  :   -13.2383246 Eh     change       -0.1177566E+00 Eh
   gradient norm :     0.5127138 Eh/α   predicted    -0.2108408E+00 (  79.05%)
   displ. norm   :     0.0440456 α      lambda       -0.5926590E-02
   maximum displ.:     0.0414017 α      in ANC's #1, #12, #10, ...

........................................................................
.............................. CYCLE   10 ..............................
........................................................................
   1    -13.3085429 -0.133085E+02  0.127E-01    1.41       0.0  T
   2    -13.3085442 -0.133919E-05  0.735E-02    1.41       1.0  T
   3    -13.3085445 -0.270022E-06  0.158E-02    1.42       2.6  T
   4    -13.3085449 -0.418919E-06  0.786E-03    1.41       5.2  T
   5    -13.3085450 -0.435484E-07  0.295E-03    1.41      13.9  T
   6    -13.3085450 -0.231248E-07  0.137E-03    1.41      29.8  T
     SCC iter.                  ...        0 min,  0.001 sec
     gradient                   ...        0 min,  0.000 sec
 * total energy  :   -13.2420965 Eh     change       -0.3771832E-02 Eh
   gradient norm :     0.0699092 Eh/α   predicted    -0.2969047E-02 ( -21.28%)
   displ. norm   :     0.4018476 α      lambda       -0.2806111E-02
   maximum displ.:     0.3828839 α      in ANC's #2, #1, #12, ...

........................................................................
.............................. CYCLE   11 ..............................
........................................................................
   1    -13.2986759 -0.132987E+02  0.113E+00    1.26       0.0  T
   2    -13.2987575 -0.815989E-04  0.666E-01    1.23       1.0  T
   3    -13.2987368  0.207020E-04  0.165E-01    1.30       1.0  T
   4    -13.2987975 -0.606967E-04  0.567E-02    1.27       1.0  T
   5    -13.2987981 -0.548183E-06  0.106E-02    1.27       3.9  T
   6    -13.2987982 -0.134528E-06  0.723E-03    1.27       5.6  T
   7    -13.2987983 -0.125114E-06  0.359E-03    1.27      11.4  T
   8    -13.2987984 -0.304486E-07  0.881E-04    1.27      46.4  T
     SCC iter.                  ...        0 min,  0.001 sec
     gradient                   ...        0 min,  0.000 sec
 * total energy  :   -13.2008562 Eh     change        0.4124024E-01 Eh
   gradient norm :     1.7384212 Eh/α   predicted    -0.1629633E-02 (-103.95%)
   displ. norm   :     0.3362279 α      lambda       -0.1180906E+00
   maximum displ.:     0.3211802 α      in ANC's #2, #1, #12, ...

........................................................................
.............................. CYCLE   12 ..............................
........................................................................
   1    -13.3079956 -0.133080E+02  0.967E-01    1.44       0.0  T
   2    -13.3080407 -0.451013E-04  0.562E-01    1.43       1.0  T
   3    -13.3080616 -0.208391E-04  0.647E-02    1.41       1.0  T
   4    -13.3080623 -0.735430E-06  0.363E-02    1.42       1.1  T
   5    -13.3080635 -0.115679E-05  0.944E-03    1.42       4.3  T
   6    -13.3080636 -0.115232E-06  0.642E-03    1.42       6.4  T
   7    -13.3080637 -0.108129E-06  0.268E-03    1.42      15.2  T
   8    -13.3080637 -0.150618E-07  0.743E-04    1.42      54.9  T
     SCC iter.                  ...        0 min,  0.001 sec
     gradient                   ...        0 min,  0.000 sec
 * total energy  :   -13.2421966 Eh     change       -0.4134034E-01 Eh
   gradient norm :     0.0998452 Eh/α   predicted    -0.6572051E-01 (  58.97%)
   displ. norm   :     0.0485020 α      lambda       -0.1355956E-02
   maximum displ.:     0.0398711 α      in ANC's #2, #1, #8, ...

........................................................................
.............................. CYCLE   13 ..............................
........................................................................
   1    -13.3074865 -0.133075E+02  0.138E-01    1.40       0.0  T
   2    -13.3074878 -0.135691E-05  0.798E-02    1.40       1.0  T
   3    -13.3074881 -0.213812E-06  0.159E-02    1.41       2.6  T
   4    -13.3074885 -0.445354E-06  0.716E-03    1.40       5.7  T
   5    -13.3074885 -0.170771E-07  0.169E-03    1.40      24.2  T
   6    -13.3074885 -0.491452E-08  0.101E-03    1.40      40.5  T
     SCC iter.                  ...        0 min,  0.001 sec
     gradient                   ...        0 min,  0.001 sec
 * total energy  :   -13.2427311 Eh     change       -0.5344952E-03 Eh
   gradient norm :     0.1337057 Eh/α   predicted    -0.6795734E-03 (  27.14%)
   displ. norm   :     0.0068801 α      lambda       -0.1940816E-03
   maximum displ.:     0.0054314 α      in ANC's #2, #1, #8, ...

........................................................................
.............................. CYCLE   14 ..............................
........................................................................
   1    -13.3073024 -0.133073E+02  0.175E-02    1.41       0.0  T
   2    -13.3073024 -0.172969E-07  0.101E-02    1.41       4.0  T
   3    -13.3073024 -0.849932E-08  0.121E-03    1.41      33.9  T
   4    -13.3073024 -0.411275E-09  0.303E-04    1.41     134.9  T
     SCC iter.                  ...        0 min,  0.001 sec
     gradient                   ...        0 min,  0.000 sec
 * total energy  :   -13.2428690 Eh     change       -0.1378948E-03 Eh
   gradient norm :     0.0597362 Eh/α   predicted    -0.9704666E-04 ( -29.62%)
   displ. norm   :     0.0084977 α      lambda       -0.1915063E-03
   maximum displ.:     0.0067451 α      in ANC's #8, #3, #2, ...

........................................................................
.............................. CYCLE   15 ..............................
........................................................................
   1    -13.3066031 -0.133066E+02  0.145E-02    1.42       0.0  T
   2    -13.3066032 -0.532775E-07  0.823E-03    1.42       5.0  T
   3    -13.3066032  0.197764E-08  0.451E-03    1.42       9.1  T
   4    -13.3066032 -0.258783E-07  0.144E-03    1.42      28.4  T
     SCC iter.                  ...        0 min,  0.001 sec
     gradient                   ...        0 min,  0.000 sec
 * total energy  :   -13.2430103 Eh     change       -0.1413237E-03 Eh
   gradient norm :     0.0141134 Eh/α   predicted    -0.9575929E-04 ( -32.24%)
   displ. norm   :     0.0166680 α      lambda       -0.1714407E-03
   maximum displ.:     0.0107533 α      in ANC's #8, #2, #1, ...

........................................................................
.............................. CYCLE   16 ..............................
........................................................................
   1    -13.3054296 -0.133054E+02  0.360E-02    1.42       0.0  T
   2    -13.3054298 -0.201191E-06  0.205E-02    1.42       2.0  T
   3    -13.3054297  0.418942E-07  0.904E-03    1.42       4.5  T
   4    -13.3054299 -0.128986E-06  0.240E-03    1.42      17.0  T
   5    -13.3054299 -0.256385E-08  0.705E-04    1.42      57.9  T
     SCC iter.                  ...        0 min,  0.001 sec
     gradient                   ...        0 min,  0.000 sec
 * total energy  :   -13.2431267 Eh     change       -0.1164167E-03 Eh
   gradient norm :     0.0447323 Eh/α   predicted    -0.8574138E-04 ( -26.35%)
   displ. norm   :     0.0143943 α      lambda       -0.8710784E-04
   maximum displ.:     0.0088150 α      in ANC's #8, #1, #2, ...

........................................................................
.............................. CYCLE   17 ..............................
........................................................................
   1    -13.3044285 -0.133044E+02  0.300E-02    1.42       0.0  T
   2    -13.3044287 -0.128553E-06  0.169E-02    1.42       2.4  T
   3    -13.3044286  0.357581E-07  0.750E-03    1.42       5.4  T
   4    -13.3044287 -0.894128E-07  0.174E-03    1.42      23.5  T
   5    -13.3044287 -0.940666E-09  0.367E-04    1.42     111.2  T
     SCC iter.                  ...        0 min,  0.001 sec
     gradient                   ...        0 min,  0.000 sec
 * total energy  :   -13.2431897 Eh     change       -0.6302231E-04 Eh
   gradient norm :     0.0400202 Eh/α   predicted    -0.4356192E-04 ( -30.88%)
   displ. norm   :     0.0139634 α      lambda       -0.7517966E-04
   maximum displ.:     0.0089880 α      in ANC's #8, #1, #3, ...

........................................................................
.............................. CYCLE   18 ..............................
........................................................................
   1    -13.3034021 -0.133034E+02  0.237E-02    1.42       0.0  T
   2    -13.3034022 -0.803590E-07  0.131E-02    1.42       3.1  T
   3    -13.3034022  0.277030E-07  0.631E-03    1.42       6.5  T
   4    -13.3034022 -0.593121E-07  0.134E-03    1.42      30.4  T
   5    -13.3034022 -0.618810E-09  0.139E-04    1.42     292.9  T
     SCC iter.                  ...        0 min,  0.001 sec
     gradient                   ...        0 min,  0.000 sec
 * total energy  :   -13.2432451 Eh     change       -0.5540392E-04 Eh
   gradient norm :     0.0229882 Eh/α   predicted    -0.3759618E-04 ( -32.14%)
   displ. norm   :     0.0146909 α      lambda       -0.8194499E-04
   maximum displ.:     0.0093805 α      in ANC's #8, #3, #1, ...

........................................................................
.............................. CYCLE   19 ..............................
........................................................................
   1    -13.3023561 -0.133024E+02  0.184E-02    1.42       0.0  T
   2    -13.3023561 -0.418126E-07  0.103E-02    1.42       4.0  T
   3    -13.3023561  0.174167E-07  0.484E-03    1.42       8.4  T
   4    -13.3023561 -0.336764E-07  0.133E-03    1.42      30.8  T
     SCC iter.                  ...        0 min,  0.000 sec
     gradient                   ...        0 min,  0.000 sec
 * total energy  :   -13.2433051 Eh     change       -0.5995186E-04 Eh
   gradient norm :     0.0102638 Eh/α   predicted    -0.4098119E-04 ( -31.64%)
   displ. norm   :     0.0134872 α      lambda       -0.7692919E-04
   maximum displ.:     0.0087090 α      in ANC's #3, #8, #10, ...

........................................................................
.............................. CYCLE   20 ..............................
........................................................................
   1    -13.3016698 -0.133017E+02  0.194E-02    1.42       0.0  T
   2    -13.3016699 -0.403484E-07  0.117E-02    1.42       3.5  T
   3    -13.3016699 -0.186725E-07  0.202E-03    1.42      20.2  T
   4    -13.3016699 -0.151414E-08  0.147E-03    1.42      27.8  T
     SCC iter.                  ...        0 min,  0.001 sec
     gradient                   ...        0 min,  0.000 sec
 * total energy  :   -13.2433578 Eh     change       -0.5272335E-04 Eh
   gradient norm :     0.0164781 Eh/α   predicted    -0.3847013E-04 ( -27.03%)
   displ. norm   :     0.0080335 α      lambda       -0.4043216E-04
   maximum displ.:     0.0054046 α      in ANC's #3, #10, #2, ...
 * RMSD in coord.:     0.1215220 α      energy gain  -0.4509926E+01 Eh

generating ANC from model Hessian ...
Using Lindh-Hessian (1995)
 Shifting diagonal of input Hessian by   1.774256508629726E-002
 Lowest  eigenvalues of input Hessian
    0.010000    0.010052   -0.000000   -0.000000   -0.000000   -0.000000
    0.000000    0.000000    0.026856    0.027139    0.059017    0.161576
    0.162601    0.458840    1.194623    1.199516   40.066133  120.244571
 Highest eigenvalues
    0.162601    0.458840    1.194623    1.199516   40.066133  120.244571
 

........................................................................
.............................. CYCLE   21 ..............................
........................................................................
   1    -13.3016820 -0.133017E+02  0.176E-02    1.42       0.0  T
   2    -13.3016821 -0.746926E-07  0.103E-02    1.42       3.9  T
   3    -13.3016821 -0.341110E-09  0.508E-03    1.42       8.0  T
   4    -13.3016821 -0.341086E-07  0.142E-03    1.42      28.7  T
   5    -13.3016821 -0.107009E-08  0.442E-04    1.42      92.3  T
   6    -13.3016821 -0.469461E-09  0.144E-04    1.42     282.9  T
     SCC iter.                  ...        0 min,  0.001 sec
     gradient                   ...        0 min,  0.001 sec
 * total energy  :   -13.2433858 Eh     change       -0.2801084E-04 Eh
   gradient norm :     0.0168268 Eh/α   predicted     0.0000000E+00 (-100.00%)
   displ. norm   :     0.0808815 α      lambda       -0.3956554E-03
   maximum displ.:     0.0634746 α      in ANC's #5, #2, #4, ...

........................................................................
.............................. CYCLE   22 ..............................
........................................................................
   1    -13.3035558 -0.133036E+02  0.138E-01    1.42       0.0  T
   2    -13.3035679 -0.120116E-04  0.719E-02    1.44       1.0  T
   3    -13.3035714 -0.350204E-05  0.434E-02    1.43       1.0  T
   4    -13.3035723 -0.930464E-06  0.428E-03    1.43       9.5  T
   5    -13.3035723 -0.131298E-07  0.163E-03    1.43      25.1  T
   6    -13.3035723 -0.389336E-08  0.124E-03    1.43      32.9  T
     SCC iter.                  ...        0 min,  0.001 sec
     gradient                   ...        0 min,  0.000 sec
 * total energy  :   -13.2432662 Eh     change        0.1196131E-03 Eh
   gradient norm :     0.2196370 Eh/α   predicted    -0.1991218E-03 (-266.47%)
   displ. norm   :     0.2534552 α      lambda       -0.1643775E-02
   maximum displ.:     0.1910357 α      in ANC's #5, #2, #4, ...

........................................................................
.............................. CYCLE   23 ..............................
........................................................................
   1    -13.3043423 -0.133043E+02  0.412E-01    1.31       0.0  T
   2    -13.3044336 -0.913585E-04  0.233E-01    1.37       1.0  T
   3    -13.3044576 -0.239349E-04  0.134E-01    1.33       1.0  T
   4    -13.3044672 -0.964314E-05  0.184E-02    1.34       2.2  T
   5    -13.3044678 -0.598014E-06  0.963E-03    1.35       4.2  T
   6    -13.3044680 -0.234562E-06  0.574E-03    1.35       7.1  T
   7    -13.3044682 -0.112877E-06  0.121E-03    1.35      33.7  T
     SCC iter.                  ...        0 min,  0.001 sec
     gradient                   ...        0 min,  0.000 sec
 * total energy  :   -13.2366184 Eh     change        0.6647802E-02 Eh
   gradient norm :     1.0513007 Eh/α   predicted    -0.8746873E-03 (-113.16%)
   displ. norm   :     0.2018414 α      lambda       -0.1452409E-01
   maximum displ.:     0.1476797 α      in ANC's #5, #2, #4, ...

........................................................................
.............................. CYCLE   24 ..............................
........................................................................
   1    -13.3041124 -0.133041E+02  0.318E-01    1.43       0.0  T
   2    -13.3041644 -0.519361E-04  0.187E-01    1.38       1.0  T
   3    -13.3041769 -0.125811E-04  0.104E-01    1.41       1.0  T
   4    -13.3041829 -0.593810E-05  0.121E-02    1.40       3.4  T
   5    -13.3041831 -0.209709E-06  0.607E-03    1.40       6.7  T
   6    -13.3041832 -0.845496E-07  0.390E-03    1.40      10.5  T
   7    -13.3041832 -0.545812E-07  0.861E-04    1.40      47.4  T
     SCC iter.                  ...        0 min,  0.001 sec
     gradient                   ...        0 min,  0.000 sec
 * total energy  :   -13.2422342 Eh     change       -0.5615777E-02 Eh
   gradient norm :     0.3262257 Eh/α   predicted    -0.7557901E-02 (  34.58%)
   displ. norm   :     0.4229215 α      lambda       -0.1269052E-01
   maximum displ.:     0.2829890 α      in ANC's #2, #5, #4, ...

........................................................................
.............................. CYCLE   25 ..............................
........................................................................
   1    -13.2942141 -0.132942E+02  0.745E-01    1.49       0.0  T
   2    -13.2943711 -0.156973E-03  0.430E-01    1.41       1.0  T
   3    -13.2943795 -0.846564E-05  0.234E-01    1.48       1.0  T
   4    -13.2944385 -0.589276E-04  0.265E-02    1.45       1.5  T
   5    -13.2944395 -0.102410E-05  0.133E-02    1.44       3.1  T
   6    -13.2944399 -0.397064E-06  0.898E-03    1.44       4.5  T
   7    -13.2944402 -0.290950E-06  0.164E-03    1.44      24.9  T
   8    -13.2944402 -0.195922E-08  0.162E-04    1.44     252.3  T
     SCC iter.                  ...        0 min,  0.001 sec
     gradient                   ...        0 min,  0.001 sec
 * total energy  :   -13.2330253 Eh     change        0.9208866E-02 Eh
   gradient norm :     0.8362203 Eh/α   predicted    -0.7480197E-02 (-181.23%)
   displ. norm   :     0.4179223 α      lambda       -0.2178528E-01
   maximum displ.:     0.4015775 α      in ANC's #2, #5, #1, ...

........................................................................
.............................. CYCLE   26 ..............................
........................................................................
   1    -13.2951385 -0.132951E+02  0.717E-01    1.20       0.0  T
   2    -13.2951631 -0.246249E-04  0.416E-01    1.25       1.0  T
   3    -13.2951295  0.335665E-04  0.140E-01    1.22       1.0  T
   4    -13.2951790 -0.494389E-04  0.307E-02    1.25       1.3  T
   5    -13.2951813 -0.236509E-05  0.164E-02    1.25       2.5  T
   6    -13.2951820 -0.671640E-06  0.807E-03    1.25       5.1  T
   7    -13.2951822 -0.153197E-06  0.738E-04    1.25      55.3  T
   8    -13.2951822 -0.252552E-09  0.568E-05    1.25     718.2  T
     SCC iter.                  ...        0 min,  0.001 sec
     gradient                   ...        0 min,  0.000 sec
 * total energy  :   -13.2049721 Eh     change        0.2805325E-01 Eh
   gradient norm :     2.2022767 Eh/α   predicted    -0.1279515E-01 (-145.61%)
   displ. norm   :     0.5174059 α      lambda       -0.1208093E+00
   maximum displ.:     0.4099388 α      in ANC's #2, #4, #5, ...

........................................................................
.............................. CYCLE   27 ..............................
........................................................................
   1    -13.3076828 -0.133077E+02  0.104E+00    1.38       0.0  T
   2    -13.3077950 -0.112183E-03  0.558E-01    1.43       1.0  T
   3    -13.3077491  0.458861E-04  0.244E-01    1.35       1.0  T
   4    -13.3078370 -0.879234E-04  0.191E-02    1.39       2.1  T
   5    -13.3078371 -0.541953E-07  0.330E-03    1.39      12.4  T
   6    -13.3078371 -0.654463E-08  0.245E-03    1.39      16.6  T
     SCC iter.                  ...        0 min,  0.001 sec
     gradient                   ...        0 min,  0.001 sec
 * total energy  :   -13.2323978 Eh     change       -0.2742575E-01 Eh
   gradient norm :     1.1256228 Eh/α   predicted    -0.7657551E-01 ( 179.21%)
   displ. norm   :     0.3694294 α      lambda       -0.5860123E-01
   maximum displ.:     0.2466442 α      in ANC's #5, #4, #2, ...

........................................................................
.............................. CYCLE   28 ..............................
........................................................................
   1    -13.2930628 -0.132931E+02  0.587E-01    1.61       0.0  T
   2    -13.2932647 -0.201913E-03  0.332E-01    1.51       1.0  T
   3    -13.2933214 -0.566905E-04  0.204E-01    1.56       1.0  T
   4    -13.2933471 -0.257069E-04  0.381E-02    1.54       1.1  T
   5    -13.2933507 -0.358386E-05  0.180E-02    1.54       2.3  T
   6    -13.2933515 -0.843082E-06  0.125E-02    1.53       3.3  T
   7    -13.2933519 -0.421699E-06  0.631E-04    1.53      64.7  T
   8    -13.2933519 -0.146343E-09  0.300E-04    1.53     135.9  T
     SCC iter.                  ...        0 min,  0.001 sec
     gradient                   ...        0 min,  0.000 sec
 * total energy  :   -13.1996041 Eh     change        0.3279373E-01 Eh
   gradient norm :     1.8035750 Eh/α   predicted    -0.3329949E-01 (-201.54%)
   displ. norm   :     0.1764139 α      lambda       -0.7916261E-01
   maximum displ.:     0.1208695 α      in ANC's #5, #4, #2, ...

........................................................................
.............................. CYCLE   29 ..............................
........................................................................
   1    -13.3022157 -0.133022E+02  0.292E-01    1.38       0.0  T
   2    -13.3022638 -0.481195E-04  0.162E-01    1.44       1.0  T
   3    -13.3022788 -0.149671E-04  0.105E-01    1.41       1.0  T
   4    -13.3022857 -0.694086E-05  0.232E-02    1.42       1.8  T
   5    -13.3022870 -0.133901E-05  0.130E-02    1.43       3.1  T
   6    -13.3022875 -0.425581E-06  0.535E-03    1.43       7.6  T
   7    -13.3022875 -0.756478E-07  0.807E-04    1.43      50.6  T
     SCC iter.                  ...        0 min,  0.001 sec
     gradient                   ...        0 min,  0.000 sec
 * total energy  :   -13.2427009 Eh     change       -0.4309686E-01 Eh
   gradient norm :     0.1457127 Eh/α   predicted    -0.4081314E-01 (  -5.30%)
   displ. norm   :     0.1513011 α      lambda       -0.1758832E-02
   maximum displ.:     0.1437018 α      in ANC's #5, #4, #1, ...

........................................................................
.............................. CYCLE   30 ..............................
........................................................................
   1    -13.3044442 -0.133044E+02  0.223E-01    1.39       0.0  T
   2    -13.3044848 -0.406501E-04  0.120E-01    1.43       1.0  T
   3    -13.3044981 -0.133053E-04  0.715E-02    1.40       1.0  T
   4    -13.3045000 -0.186644E-05  0.112E-02    1.41       3.6  T
   5    -13.3045002 -0.174892E-06  0.590E-03    1.41       6.9  T
   6    -13.3045003 -0.807529E-07  0.375E-03    1.41      10.9  T
     SCC iter.                  ...        0 min,  0.001 sec
     gradient                   ...        0 min,  0.000 sec
 * total energy  :   -13.2432870 Eh     change       -0.5860441E-03 Eh
   gradient norm :     0.0762107 Eh/α   predicted    -0.8995565E-03 (  53.50%)
   displ. norm   :     0.0975635 α      lambda       -0.4856407E-03
   maximum displ.:     0.0774655 α      in ANC's #4, #5, #2, ...

........................................................................
.............................. CYCLE   31 ..............................
........................................................................
   1    -13.3034174 -0.133034E+02  0.938E-02    1.43       0.0  T
   2    -13.3034237 -0.628453E-05  0.509E-02    1.41       1.0  T
   3    -13.3034256 -0.192901E-05  0.305E-02    1.42       1.3  T
   4    -13.3034260 -0.381538E-06  0.274E-03    1.42      14.9  T
   5    -13.3034260 -0.531544E-08  0.106E-03    1.42      38.4  T
     SCC iter.                  ...        0 min,  0.001 sec
     gradient                   ...        0 min,  0.001 sec
 * total energy  :   -13.2435065 Eh     change       -0.2195515E-03 Eh
   gradient norm :     0.0608471 Eh/α   predicted    -0.2451293E-03 (  11.65%)
   displ. norm   :     0.0090638 α      lambda       -0.4594720E-04
   maximum displ.:     0.0073257 α      in ANC's #3, #5, #6, ...

........................................................................
.............................. CYCLE   32 ..............................
........................................................................
   1    -13.3036947 -0.133037E+02  0.787E-03    1.42       0.0  T
   2    -13.3036947 -0.788938E-08  0.482E-03    1.42       8.5  T
   3    -13.3036947  0.785841E-09  0.168E-03    1.42      24.3  T
     SCC iter.                  ...        0 min,  0.000 sec
     gradient                   ...        0 min,  0.000 sec
 * total energy  :   -13.2435327 Eh     change       -0.2613996E-04 Eh
   gradient norm :     0.0139669 Eh/α   predicted    -0.2297412E-04 ( -12.11%)
   displ. norm   :     0.0106743 α      lambda       -0.5783138E-05
   maximum displ.:     0.0098454 α      in ANC's #4, #2, #6, ...

........................................................................
.............................. CYCLE   33 ..............................
........................................................................
   1    -13.3037544 -0.133038E+02  0.704E-03    1.42       0.0  T
   2    -13.3037544 -0.668613E-08  0.402E-03    1.42      10.1  T
   3    -13.3037544  0.249926E-08  0.192E-03    1.42      21.3  T
   4    -13.3037544 -0.519665E-08  0.223E-04    1.42     183.1  T
     SCC iter.                  ...        0 min,  0.001 sec
     gradient                   ...        0 min,  0.001 sec
 * total energy  :   -13.2435361 Eh     change       -0.3450507E-05 Eh
   gradient norm :     0.0017972 Eh/α   predicted    -0.2892963E-05 ( -16.16%)
   displ. norm   :     0.0055654 α      lambda       -0.3936910E-06
   maximum displ.:     0.0051743 α      in ANC's #4, #2, #3, ...

........................................................................
.............................. CYCLE   34 ..............................
........................................................................
   1    -13.3037856 -0.133038E+02  0.299E-03    1.42       0.0  T
   2    -13.3037856 -0.389095E-09  0.175E-03    1.42      23.3  T
   3    -13.3037856 -0.246203E-10  0.294E-04    1.42     138.8  T
   4    -13.3037856 -0.161680E-09  0.112E-04    1.42     366.0  T
     SCC iter.                  ...        0 min,  0.001 sec
     gradient                   ...        0 min,  0.000 sec
 * total energy  :   -13.2435363 Eh     change       -0.2068258E-06 Eh
   gradient norm :     0.0006999 Eh/α   predicted    -0.1966077E-06 (  -4.94%)
   displ. norm   :     0.0013415 α      lambda       -0.5171994E-07
   maximum displ.:     0.0009767 α      in ANC's #4, #1, #3, ...

   *** GEOMETRY OPTIMIZATION CONVERGED AFTER 34 ITERATIONS ***

------------------------------------------------------------------------
 total energy gain   :        -4.5101047 Eh    -2830.1334 kcal/mol
 total RMSD          :         0.1869149 a0        0.0989 Å
 total power (kW/mol):      -348.2728923 (step)********** (real)
------------------------------------------------------------------------

 ANCopt (total)                0 d,  0 h,  0 min,  0.071 sec
 optimizer setup                ...        0 min,  0.000 sec (  0.141%)
 model hessian                  ...        0 min,  0.000 sec (  0.501%)
 ANC generation                 ...        0 min,  0.000 sec (  0.328%)
 coordinate transformation      ...        0 min,  0.000 sec (  0.496%)
 single point calculation       ...        0 min,  0.065 sec ( 90.996%)
 optimization log               ...        0 min,  0.001 sec (  1.979%)
 hessian update                 ...        0 min,  0.000 sec (  0.530%)
 rational function              ...        0 min,  0.002 sec (  2.192%)

================
 final structure:
================
6
 xtb: 6.2.3 (830e466)
F        -3.43090345789901   -0.01468276926512    0.12153352341915
Cl        1.82595950289778    0.08314986196202    0.03063500924134
C        -0.32217906799614   -0.02227572710719   -0.02313328165609
H        -0.48863485339029   -0.65566739527014   -0.87417255350094
H        -0.54776345778076   -0.45252902896743    0.93453613240866
H        -0.59215866583159    1.00988505864785   -0.14513882991223
 
 Bond Distances (Angstroems)
 ---------------------------
Cl2-C3=2.1514        C3-Cl2=2.1514        C3-H4=1.0739         C3-H5=1.0738         C3-H6=1.0738         H4-C3=1.0739         
H5-C3=1.0738         H6-C3=1.0738         
 C  H  Rav=1.0738 sigma=0.0000  Rmin=1.0738  Rmax=1.0739     3
 Cl C  Rav=2.1514 sigma=0.0000  Rmin=2.1514  Rmax=2.1514     1
 
 selected bond angles (degree)
 --------------------
H4-C3-Cl2=101.74               H5-C3-Cl2=101.95               H5-C3-H4=115.97                H6-C3-Cl2=101.93               
H6-C3-H4=115.97                H6-C3-H5=115.70                
 
 selected dihedral angles (degree)
 ---------------------------------

 
 CMA Distance (Angstroems)
 ---------------------------
R(CMA):  4.6057
           -------------------------------------------------
          |                Final Singlepoint                |
           -------------------------------------------------

          ...................................................
          :                      SETUP                      :
          :.................................................:
          :  # basis functions                  21          :
          :  # atomic orbitals                  20          :
          :  # shells                           10          :
          :  # electrons                        22          :
          :  max. iterations                   250          :
          :  Hamiltonian                  GFN2-xTB          :
          :  restarted?                      false          :
          :  GBSA solvation                   true          :
          :  PC potential                    false          :
          :  electronic temp.          300.0000000     K    :
          :  accuracy                    1.0000000          :
          :  -> integral cutoff          0.2500000E+02      :
          :  -> integral neglect         0.1000000E-07      :
          :  -> SCF convergence          0.1000000E-05 Eh   :
          :  -> wf. convergence          0.1000000E-03 e    :
          :  Broyden damping             0.4000000          :
          ...................................................

 iter      E             dE          RMSdq      gap      omega  full diag
   1    -13.3037856 -0.133038E+02  0.346E-05    1.42       0.0  T
   2    -13.3037856 -0.987654E-12  0.296E-05    1.42    1380.1  T
   3    -13.3037856 -0.259170E-11  0.136E-05    1.42    2994.2  T

   *** convergence criteria satisfied after 3 iterations ***

         #    Occupation            Energy/Eh            Energy/eV
      -------------------------------------------------------------
         1        2.0000           -1.0455610             -28.4512
       ...           ...                  ...                  ...
         5        2.0000           -0.5012858             -13.6407
         6        2.0000           -0.4652302             -12.6596
         7        2.0000           -0.4179677             -11.3735
         8        2.0000           -0.4179549             -11.3731
         9        2.0000           -0.3349971              -9.1157
        10        2.0000           -0.3341695              -9.0932
        11        2.0000           -0.3341593              -9.0929 (HOMO)
        12                         -0.2820454              -7.6748 (LUMO)
        13                          0.0363632               0.9895
        14                          0.0364123               0.9908
        15                          0.0379747               1.0333
        16                          0.0380100               1.0343
       ...                                ...                  ...
        20                          0.2473959               6.7320
      -------------------------------------------------------------
                  HL-Gap            0.0521139 Eh            1.4181 eV
             Fermi-level           -0.3077104 Eh           -8.3732 eV

 SCC (total)                   0 d,  0 h,  0 min,  0.002 sec
 SCC setup                      ...        0 min,  0.000 sec (  9.760%)
 Dispersion                     ...        0 min,  0.000 sec (  0.723%)
 integral evaluation            ...        0 min,  0.000 sec ( 22.137%)
 zeroth order Hamiltonian       ...        0 min,  0.000 sec (  1.099%)
 iterations                     ...        0 min,  0.000 sec ( 25.766%)
 molecular gradient             ...        0 min,  0.001 sec ( 32.316%)
 printout                       ...        0 min,  0.000 sec (  5.205%)

         :::::::::::::::::::::::::::::::::::::::::::::::::::::
         ::                     SUMMARY                     ::
         :::::::::::::::::::::::::::::::::::::::::::::::::::::
         :: total energy             -13.243536332914 Eh    ::
         :: total w/o Gsasa/hb       -13.240561875350 Eh    ::
         :: gradient norm              0.000700587542 Eh/a0 ::
         :: HOMO-LUMO gap              1.418091468103 eV    ::
         ::.................................................::
         :: SCC energy               -13.300956039277 Eh    ::
         :: -> isotropic ES            0.277598672746 Eh    ::
         :: -> anisotropic ES         -0.001163109943 Eh    ::
         :: -> anisotropic XC          0.005396609227 Eh    ::
         :: -> dispersion             -0.001780368633 Eh    ::
         :: -> Gsolv                  -0.135267717598 Eh    ::
         ::    -> Gborn               -0.132293260034 Eh    ::
         ::    -> Gsasa                0.000972154687 Eh    ::
         ::    -> Ghb                 -0.005804055378 Eh    ::
         ::    -> Gshift               0.001857443127 Eh    ::
         :: repulsion energy           0.057374642398 Eh    ::
         :: add. restraining           0.000046164035 Eh    ::
         :::::::::::::::::::::::::::::::::::::::::::::::::::::

           -------------------------------------------------
          |                Property Printout                |
           -------------------------------------------------

    * Orbital Energies and Occupations

         #    Occupation            Energy/Eh            Energy/eV
      -------------------------------------------------------------
         1        2.0000           -1.0455610             -28.4512
         2        2.0000           -0.6009858             -16.3537
         3        2.0000           -0.5914213             -16.0934
         4        2.0000           -0.5016232             -13.6499
         5        2.0000           -0.5012858             -13.6407
         6        2.0000           -0.4652302             -12.6596
         7        2.0000           -0.4179677             -11.3735
         8        2.0000           -0.4179549             -11.3731
         9        2.0000           -0.3349971              -9.1157
        10        2.0000           -0.3341695              -9.0932
        11        2.0000           -0.3341593              -9.0929 (HOMO)
        12                         -0.2820454              -7.6748 (LUMO)
        13                          0.0363632               0.9895
        14                          0.0364123               0.9908
        15                          0.0379747               1.0333
        16                          0.0380100               1.0343
        17                          0.0513812               1.3982
        18                          0.1330639               3.6209
        19                          0.2461198               6.6973
        20                          0.2473959               6.7320
      -------------------------------------------------------------
                  HL-Gap            0.0521139 Eh            1.4181 eV
             Fermi-level           -0.3077104 Eh           -8.3732 eV

     #   Z        covCN         q      C6AA      α(0)
     1   9 F      0.000    -0.993    24.366     5.749
     2  17 Cl     0.697    -0.306   108.561    15.936
     3   6 C      3.475    -0.033    23.234     7.217
     4   1 H      0.926     0.112     1.679     2.026
     5   1 H      0.926     0.110     1.697     2.037
     6   1 H      0.926     0.110     1.697     2.037

 Mol. C6AA /au·bohr⁶  :        572.550642
 Mol. C8AA /au·bohr⁸  :      16019.314750
 Mol. α(0) /au        :         35.002255


Wiberg/Mayer (AO) data.
largest (>0.10) Wiberg bond orders for each atom
          total WBO             WBO to atom ...
     1  F   0.015
     2  Cl  0.910        C    3 0.899
     3  C   3.865        H    5 0.986    H    6 0.986    H    4 0.985    Cl   2 0.899
     4  H   0.987        C    3 0.985
     5  H   0.988        C    3 0.986
     6  H   0.988        C    3 0.986

molecular dipole:
                 x           y           z       tot (Debye)
 q only:        5.058      -0.042      -0.266
   full:        5.051      -0.032      -0.251      12.855
molecular quadrupole (traceless):
                xx          xy          yy          xz          yz          zz
 q only:      -45.663      -0.532      22.862       2.130       0.014      22.801
  q+dip:      -45.993      -0.523      23.027       2.164       0.017      22.966
   full:      -45.022      -0.452      22.543       2.200       0.019      22.479

           -------------------------------------------------
          |                Geometry Summary                 |
           -------------------------------------------------

      molecular mass/u    :       69.4858989
   center of mass at/Å    :       -0.0857319       0.0331336       0.0436311
  moments of inertia/u·Å² :        0.3487843E+01   0.3453541E+03   0.3455093E+03
rotational constants/cm⁻¹ :        0.4833254E+01   0.4881261E-01   0.4879067E-01

 * 3 selected distances

     #   Z        #   Z                                     value/Å
     3   6 C      4   1 H                                 1.0738531 (max)
     3   6 C      5   1 H                                 1.0738421
     3   6 C      6   1 H                                 1.0738390 (min)

 * 1 distinct bonds (by element types)

   Z      Z             #   av. dist./Å        max./Å        min./Å
   1 H    6 C           3     1.0738447     1.0738531     1.0738390


optimized geometry written to: xtbopt.xyz


           -------------------------------------------------
          | TOTAL ENERGY              -13.243536332914 Eh   |
          | GRADIENT NORM               0.000700587542 Eh/α |
          | HOMO-LUMO GAP               1.418091468103 eV   |
           -------------------------------------------------

------------------------------------------------------------------------
 * finished run on 2020/08/20 at 17:46:27.572     
------------------------------------------------------------------------
 total:
 * wall-time:     0 d,  0 h,  0 min,  0.117 sec
 *  cpu-time:     0 d,  0 h,  0 min,  0.401 sec
 * ratio c/w:     3.437 speedup
 SCF:
 * wall-time:     0 d,  0 h,  0 min,  0.005 sec
 *  cpu-time:     0 d,  0 h,  0 min,  0.020 sec
 * ratio c/w:     3.984 speedup
 ANC optimizer:
 * wall-time:     0 d,  0 h,  0 min,  0.073 sec
 *  cpu-time:     0 d,  0 h,  0 min,  0.292 sec
 * ratio c/w:     3.990 speedup

