      -----------------------------------------------------------      
     |                   =====================                   |     
     |                           x T B                           |     
     |                   =====================                   |     
     |                         S. Grimme                         |     
     |          Mulliken Center for Theoretical Chemistry        |     
     |                    University of Bonn                     |     
      -----------------------------------------------------------      

   * xtb version 6.2.3 (830e466) compiled by 'ehlert@majestix' on 2020-03-16

   xtb is free software: you can redistribute it and/or modify it under
   the terms of the GNU Lesser General Public License as published by
   the Free Software Foundation, either version 3 of the License, or
   (at your option) any later version.
   
   xtb is distributed in the hope that it will be useful,
   but WITHOUT ANY WARRANTY; without even the implied warranty of
   MERCHANTABILITY or FITNESS FOR A PARTICULAR PURPOSE.  See the
   GNU Lesser General Public License for more details.
   
   Cite this work as:
   * S. Grimme, C. Bannwarth, P. Shushkov, J. Chem. Theory Comput., 2017,
     13, 1989-2009. DOI: 10.1021/acs.jctc.7b00118
   * C. Bannwarth, S. Ehlert and S. Grimme., J. Chem. Theory Comput., 2019,
     15, 1652-1671. DOI: 10.1021/acs.jctc.8b01176
   * P. Pracht, E. Caldeweyher, S. Ehlert, S. Grimme, ChemRxiv, 2019, preprint.
     DOI: 10.26434/chemrxiv.8326202.v1
   
   for DFT-D4:
   * E. Caldeweyher, C. Bannwarth and S. Grimme, J. Chem. Phys., 2017,
     147, 034112. DOI: 10.1063/1.4993215
   * E. Caldeweyher, S. Ehlert, A. Hansen, H. Neugebauer, S. Spicher,
     C. Bannwarth and S. Grimme, J. Chem. Phys., 2019, 150, 154122.
     DOI: 10.1063/1.5090222
   
   for sTDA-xTB:
   * S. Grimme and C. Bannwarth, J. Chem. Phys., 2016, 145, 054103.
     DOI: 10.1063/1.4959605
   
   in the mass-spec context:
   * V. Asgeirsson, C. Bauer and S. Grimme, Chem. Sci., 2017, 8, 4879.
     DOI: 10.1039/c7sc00601b
   
   for metadynamics refer to:
   * S. Grimme, J. Chem. Theory Comput., 2019, 155, 2847-2862
     DOI: 10.1021/acs.jctc.9b00143
   
   with help from (in alphabetical order)
   C. Bannwarth, F. Bohle, G. Brandenburg, E. Caldeweyher, M. Checinski,
   S. Dohm, S. Ehlert, S. Ehrlich, F. März, H. Neugebauer, J. Pisarek,
   P. Pracht, P. Shushkov, and S. Spicher.
   
 * started run on 2020/08/20 at 17:46:28.566     

           -------------------------------------------------
          |                Calculation Setup                |
           -------------------------------------------------

          program call               : /u/fd/ball4935/opt/bin/xtb 3ixBtq_reactant_constrained_opt12_xtb.xyz --chrg -1 --opt --gbsa Water --input xcontrol_3ixBtq_reactant_constrained_opt12_xtb
          hostname                   : comp0810
          coordinate file            : 3ixBtq_reactant_constrained_opt12_xtb.xyz
          omp threads                :                     4
          number of atoms            :                     6
          number of electrons        :                    22
          charge                     :                    -1
          spin                       :                   0.0
          first test random number   :      0.03728194170118

constraining bond 1 3 to    1.4935000 Å, actual value:    1.6544978 Å
constraining bond 2 3 to    4.0753000 Å, actual value:    3.8830018 Å

molecular fragmentation (1/2 indicates fragments):
121111
# atoms in fragment 1/2:     5     1
 fragment masses (1/2) :       34.03       35.45
CMA distance (Bohr)    :   9.044
constraining FC (au)   : 20.0000
########################################################################
[WARNING] Please study the warnings concerning your input carefully
-2- prog_main: XTBPATH is not set, using XTBHOME instead
-1- prog_main: XTBHOME is not set, using HOME instead
########################################################################
           ------------------------------------------------- 
          |                 G F N 2 - x T B                 |
          | Geometry, Frequencies, Noncovalent interactions |
          |            JCTC 2019 parametrisation            |
           ------------------------------------------------- 
             k(s)              :                1.8500
             k(p)              :                2.2300
             k(d)              :                2.2300
             k(f)              :                2.0000
             kEN (H0ij)        :               -2.0000
             D4 a1             :                0.5200
             D4 a2             :                5.0000
             D4 s6             :                1.0000
             D4 s8             :                2.7000
             D4 s9             :                5.0000
             alphaj            :                2.0000

  Z AO/shell   Hii/eV     exponent
  1     Wed Apr 25 08:07:45 CEST 2018   EN: 2.200 GM2: 0.406  GM3: 0.0800  RAES: 1.40
     1s    -10.707211    1.230000
  6     Wed Apr 25 08:07:45 CEST 2018   EN: 2.550 GM2: 0.538  GM3: 0.1500  RAES: 3.00
     2s    -13.970922    2.096432
     2p    -10.063292    1.800000
  9     Mon Apr 23 13:58:50 CEST 2018   EN: 3.980 GM2: 0.532  GM3: 0.1426  RAES: 2.40
     2s    -23.458179    2.416361
     2p    -15.746583    2.308399
 17     Mon Apr 23 14:09:22 CEST 2018   EN: 3.160 GM2: 0.249  GM3: 0.1495  RAES: 2.50
     3s    -29.278781    2.485265
     3p    -12.673758    2.199650
     3d     -0.240338    2.476089

 Solvent             : Water
 Using internal parameter file: .param_gbsa2_Water
 Gsolv ref. state (COSMO-RS): gsolv [1 M gas/solution]
 temperature (mdtemp)       :    298.150000000000     
 dielectric constant        :    80.2000000000000     
 rho                        :    1.00000000000000     
 mass                       :    18.0000000000000     
 surface tension            :    15.5689454083859     
 probe radius               :   0.975313790000000     
 Gshift (Eh)                :   1.857443126794793E-003
 c1                         :    1.55243817000000     
 soset                      :   0.130326360000000     
 HB correction              :  T
           ------------------------------------------------- 
          |        Self-Consistent Charge Iterations        |
           ------------------------------------------------- 

          ...................................................
          :                      SETUP                      :
          :.................................................:
          :  # basis functions                  21          :
          :  # atomic orbitals                  20          :
          :  # shells                           10          :
          :  # electrons                        22          :
          :  max. iterations                   250          :
          :  Hamiltonian                  GFN2-xTB          :
          :  restarted?                      false          :
          :  GBSA solvation                   true          :
          :  PC potential                    false          :
          :  electronic temp.          300.0000000     K    :
          :  accuracy                    1.0000000          :
          :  -> integral cutoff          0.2500000E+02      :
          :  -> integral neglect         0.1000000E-07      :
          :  -> SCF convergence          0.1000000E-05 Eh   :
          :  -> wf. convergence          0.1000000E-03 e    :
          :  Broyden damping             0.4000000          :
          ...................................................

 iter      E             dE          RMSdq      gap      omega  full diag
   1    -13.2451856 -0.132452E+02  0.632E+00    7.49       0.0  T
   2    -13.3229414 -0.777558E-01  0.270E+00    4.91       1.0  T
   3    -13.3260076 -0.306624E-02  0.174E+00    4.86       1.0  T
   4    -13.3265733 -0.565722E-03  0.266E-01    4.51       1.0  T
   5    -13.3266420 -0.686748E-04  0.136E-01    4.68       1.0  T
   6    -13.3266678 -0.257836E-04  0.945E-02    4.66       1.0  T
   7    -13.3266954 -0.276163E-04  0.201E-02    4.68       2.0  T
   8    -13.3266951  0.267637E-06  0.174E-02    4.68       2.4  T
   9    -13.3266959 -0.804296E-06  0.115E-03    4.68      35.5  T
  10    -13.3266959 -0.251697E-08  0.141E-04    4.68     290.1  T
  11    -13.3266959 -0.353335E-10  0.448E-06    4.68    9105.6  T

   *** convergence criteria satisfied after 11 iterations ***

         #    Occupation            Energy/Eh            Energy/eV
      -------------------------------------------------------------
         1        2.0000           -0.9862767             -26.8380
       ...           ...                  ...                  ...
         5        2.0000           -0.5174452             -14.0804
         6        2.0000           -0.5117005             -13.9241
         7        2.0000           -0.4606607             -12.5352
         8        2.0000           -0.4606482             -12.5349
         9        2.0000           -0.3901927             -10.6177
        10        2.0000           -0.3893124             -10.5937
        11        2.0000           -0.3893117             -10.5937 (HOMO)
        12                         -0.2172776              -5.9124 (LUMO)
        13                          0.1204765               3.2783
        14                          0.1419281               3.8621
        15                          0.1420018               3.8641
        16                          0.1420026               3.8641
       ...                                ...                  ...
        20                          0.2309417               6.2842
      -------------------------------------------------------------
                  HL-Gap            0.1720340 Eh            4.6813 eV
             Fermi-level           -0.3032946 Eh           -8.2531 eV

 SCC (total)                   0 d,  0 h,  0 min,  0.005 sec
 SCC setup                      ...        0 min,  0.000 sec (  7.423%)
 Dispersion                     ...        0 min,  0.000 sec (  0.763%)
 integral evaluation            ...        0 min,  0.001 sec ( 11.233%)
 zeroth order Hamiltonian       ...        0 min,  0.000 sec (  0.805%)
 iterations                     ...        0 min,  0.003 sec ( 62.201%)
 molecular gradient             ...        0 min,  0.001 sec ( 12.977%)
 printout                       ...        0 min,  0.000 sec (  3.068%)

         :::::::::::::::::::::::::::::::::::::::::::::::::::::
         ::                     SUMMARY                     ::
         :::::::::::::::::::::::::::::::::::::::::::::::::::::
         :: total energy              -8.775888345079 Eh    ::
         :: total w/o Gsasa/hb        -8.775069181302 Eh    ::
         :: gradient norm             32.830029903170 Eh/a0 ::
         :: HOMO-LUMO gap              4.681284619862 eV    ::
         ::.................................................::
         :: SCC energy               -13.324536628794 Eh    ::
         :: -> isotropic ES            0.178461922402 Eh    ::
         :: -> anisotropic ES         -0.002346669802 Eh    ::
         :: -> anisotropic XC          0.003627933144 Eh    ::
         :: -> dispersion             -0.001396186280 Eh    ::
         :: -> Gsolv                  -0.104209685423 Eh    ::
         ::    -> Gborn               -0.103390521646 Eh    ::
         ::    -> Gsasa                0.000301858493 Eh    ::
         ::    -> Ghb                 -0.002978465397 Eh    ::
         ::    -> Gshift               0.001857443127 Eh    ::
         :: repulsion energy           0.056328509201 Eh    ::
         :: add. restraining           4.492320675269 Eh    ::
         :::::::::::::::::::::::::::::::::::::::::::::::::::::

      ----------------------------------------------------------- 
     |                   =====================                   |
     |                        A N C O P T                        |
     |                   =====================                   |
     |               Approximate Normal Coordinate               |
     |                Rational Function Optimizer                |
      ----------------------------------------------------------- 

          ...................................................
          :                      SETUP                      :
          :.................................................:
          :   optimization level            normal          :
          :   max. optcycles                   200          :
          :   ANC micro-cycles                  20          :
          :   degrees of freedom                12          :
          :.................................................:
          :   RF solver                   davidson          :
          :   write xtbopt.log                true          :
          :   linear?                        false          :
          :   energy convergence         0.5000000E-05 Eh   :
          :   grad. convergence          0.1000000E-02 Eh/α :
          :   maximium RF displ.         1.0000000          :
          :   Hlow (freq-cutoff)         0.1000000E-01      :
          :   Hmax (freq-cutoff)         5.0000000          :
          :   S6 in model hess.         20.0000000          :
          ...................................................

generating ANC from model Hessian ...
Using Lindh-Hessian (1995)
 Shifting diagonal of input Hessian by   0.306300807354033     
 Lowest  eigenvalues of input Hessian
    0.010000    0.010069   -0.000000   -0.000000   -0.000000    0.000000
    0.000000    0.000000    0.382779    0.424402    0.424494    0.757273
    0.963787    0.964122    6.081848    6.082100   40.436251  120.818028
 Highest eigenvalues
    0.963787    0.964122    6.081848    6.082100   40.436251  120.818028
 

........................................................................
.............................. CYCLE    1 ..............................
........................................................................
   1    -13.3266959 -0.133267E+02  0.258E-06    4.68       0.0  T
   2    -13.3266959  0.000000E+00  0.105E-06    4.68   39003.3  T
   3    -13.3266959  0.000000E+00  0.678E-07    4.68   60221.8  T
     SCC iter.                  ...        0 min,  0.000 sec
     gradient                   ...        0 min,  0.001 sec
 * total energy  :    -8.7758883 Eh     change       -0.1381171E-09 Eh
   gradient norm :    32.8300299 Eh/α   predicted     0.0000000E+00 (-100.00%)
   displ. norm   :     0.9267455 α      lambda       -0.3042509E+02
   maximum displ.:     0.9254776 α      in ANC's #9, #12, #6, ...

........................................................................
.............................. CYCLE    2 ..............................
........................................................................
   1    -13.2573060 -0.132573E+02  0.411E+00   11.44       0.0  T
   2    -13.2802037 -0.228977E-01  0.166E+00   10.88       1.0  T
   3    -13.2823970 -0.219331E-02  0.725E-01   10.88       1.0  T
   4    -13.2825847 -0.187665E-03  0.296E-01   10.81       1.0  T
   5    -13.2826021 -0.173871E-04  0.567E-02   10.80       1.0  T
   6    -13.2826062 -0.405553E-05  0.347E-02   10.80       1.2  T
   7    -13.2826071 -0.918752E-06  0.123E-02   10.79       3.3  T
   8    -13.2826072 -0.158902E-06  0.131E-03   10.79      31.1  T
   9    -13.2826072 -0.102465E-08  0.548E-04   10.79      74.4  T
     SCC iter.                  ...        0 min,  0.001 sec
     gradient                   ...        0 min,  0.000 sec
 * total energy  :    12.4225959 Eh     change        0.2119848E+02 Eh
   gradient norm :    79.0433429 Eh/α   predicted    -0.2827794E+02 (-233.40%)
   displ. norm   :     0.4949781 α      lambda       -0.3909973E+02
   maximum displ.:     0.4946698 α      in ANC's #9, #12, #10, ...

........................................................................
.............................. CYCLE    3 ..............................
........................................................................
   1    -13.3284439 -0.133284E+02  0.198E+00    9.53       0.0  T
   2    -13.3307588 -0.231486E-02  0.968E-01   10.19       1.0  T
   3    -13.3314850 -0.726216E-03  0.297E-01   10.71       1.0  T
   4    -13.3314984 -0.133581E-04  0.880E-02   10.77       1.0  T
   5    -13.3315015 -0.309437E-05  0.373E-02   10.77       1.1  T
   6    -13.3315039 -0.245558E-05  0.794E-03   10.78       5.1  T
   7    -13.3315040 -0.785658E-07  0.335E-03   10.78      12.2  T
   8    -13.3315040 -0.130025E-07  0.397E-04   10.78     102.8  T
     SCC iter.                  ...        0 min,  0.001 sec
     gradient                   ...        0 min,  0.000 sec
 * total energy  :   -11.7700719 Eh     change       -0.2419267E+02 Eh
   gradient norm :    19.0434423 Eh/α   predicted    -0.2433966E+02 (   0.61%)
   displ. norm   :     0.2188712 α      lambda       -0.3100750E+01
   maximum displ.:     0.1550526 α      in ANC's #9, #12, #6, ...

........................................................................
.............................. CYCLE    4 ..............................
........................................................................
   1    -13.3401310 -0.133401E+02  0.210E-01    9.36       0.0  T
   2    -13.3401560 -0.249803E-04  0.116E-01    9.42       1.0  T
   3    -13.3401643 -0.827675E-05  0.355E-02    9.49       1.1  T
   4    -13.3401644 -0.118927E-06  0.589E-03    9.49       6.9  T
   5    -13.3401644 -0.222031E-07  0.359E-03    9.49      11.4  T
     SCC iter.                  ...        0 min,  0.001 sec
     gradient                   ...        0 min,  0.000 sec
 * total energy  :   -12.9458246 Eh     change       -0.1175753E+01 Eh
   gradient norm :     5.2196360 Eh/α   predicted    -0.1624645E+01 (  38.18%)
   displ. norm   :     0.4975642 α      lambda       -0.2549140E+01
   maximum displ.:     0.4810248 α      in ANC's #12, #9, #6, ...

........................................................................
.............................. CYCLE    5 ..............................
........................................................................
   1    -13.3135207 -0.133135E+02  0.112E+00    3.51       0.0  T
   2    -13.3141348 -0.614111E-03  0.634E-01    3.64       1.0  T
   3    -13.3142672 -0.132425E-03  0.236E-01    3.89       1.0  T
   4    -13.3143245 -0.573089E-04  0.832E-02    3.93       1.0  T
   5    -13.3143294 -0.483356E-05  0.312E-02    3.93       1.3  T
   6    -13.3143298 -0.424888E-06  0.125E-02    3.92       3.3  T
   7    -13.3143301 -0.256547E-06  0.592E-03    3.93       6.9  T
   8    -13.3143301 -0.607491E-07  0.600E-04    3.93      68.1  T
     SCC iter.                  ...        0 min,  0.001 sec
     gradient                   ...        0 min,  0.000 sec
 * total energy  :    -9.9020999 Eh     change        0.3043725E+01 Eh
   gradient norm :    20.4070738 Eh/α   predicted    -0.1590115E+01 (-152.24%)
   displ. norm   :     0.3265827 α      lambda       -0.6031915E+01
   maximum displ.:     0.3040797 α      in ANC's #12, #9, #6, ...

........................................................................
.............................. CYCLE    6 ..............................
........................................................................
   1    -13.3337310 -0.133337E+02  0.795E-01    7.77       0.0  T
   2    -13.3339077 -0.176756E-03  0.464E-01    7.64       1.0  T
   3    -13.3339734 -0.657048E-04  0.831E-02    7.44       1.0  T
   4    -13.3339770 -0.360523E-05  0.403E-02    7.44       1.0  T
   5    -13.3339781 -0.104884E-05  0.165E-02    7.44       2.5  T
   6    -13.3339783 -0.202199E-06  0.505E-03    7.44       8.1  T
   7    -13.3339783 -0.195380E-07  0.355E-03    7.44      11.5  T
     SCC iter.                  ...        0 min,  0.001 sec
     gradient                   ...        0 min,  0.000 sec
 * total energy  :   -13.2393241 Eh     change       -0.3337224E+01 Eh
   gradient norm :     1.9674544 Eh/α   predicted    -0.3337629E+01 (   0.01%)
   displ. norm   :     0.0609204 α      lambda       -0.9276313E-01
   maximum displ.:     0.0473973 α      in ANC's #12, #3, #6, ...

........................................................................
.............................. CYCLE    7 ..............................
........................................................................
   1    -13.3403523 -0.133404E+02  0.104E-01    8.02       0.0  T
   2    -13.3403540 -0.165075E-05  0.616E-02    8.01       1.0  T
   3    -13.3403546 -0.654141E-06  0.908E-03    7.99       4.5  T
   4    -13.3403547 -0.460783E-07  0.457E-03    7.99       8.9  T
   5    -13.3403547 -0.138789E-07  0.163E-03    7.99      25.0  T
     SCC iter.                  ...        0 min,  0.001 sec
     gradient                   ...        0 min,  0.000 sec
 * total energy  :   -13.2856925 Eh     change       -0.4636843E-01 Eh
   gradient norm :     0.0499070 Eh/α   predicted    -0.4655369E-01 (   0.40%)
   displ. norm   :     0.0302836 α      lambda       -0.4246786E-03
   maximum displ.:     0.0239275 α      in ANC's #3, #6, #1, ...

........................................................................
.............................. CYCLE    8 ..............................
........................................................................
   1    -13.3427741 -0.133428E+02  0.238E-02    7.99       0.0  T
   2    -13.3427743 -0.212570E-06  0.135E-02    8.00       3.0  T
   3    -13.3427743 -0.597489E-07  0.449E-03    8.00       9.1  T
   4    -13.3427743 -0.669083E-09  0.151E-03    8.00      27.0  T
     SCC iter.                  ...        0 min,  0.000 sec
     gradient                   ...        0 min,  0.000 sec
 * total energy  :   -13.2860173 Eh     change       -0.3248258E-03 Eh
   gradient norm :     0.0112393 Eh/α   predicted    -0.2125354E-03 ( -34.57%)
   displ. norm   :     0.1389662 α      lambda       -0.5367239E-03
   maximum displ.:     0.1121637 α      in ANC's #1, #2, #3, ...

........................................................................
.............................. CYCLE    9 ..............................
........................................................................
   1    -13.3461157 -0.133461E+02  0.109E-01    7.97       0.0  T
   2    -13.3461166 -0.864180E-06  0.648E-02    7.98       1.0  T
   3    -13.3461169 -0.315884E-06  0.852E-03    7.99       4.8  T
   4    -13.3461169 -0.123931E-07  0.101E-03    7.99      40.6  T
   5    -13.3461169 -0.494888E-09  0.709E-04    7.99      57.6  T
     SCC iter.                  ...        0 min,  0.001 sec
     gradient                   ...        0 min,  0.000 sec
 * total energy  :   -13.2856080 Eh     change        0.4092771E-03 Eh
   gradient norm :     0.0488909 Eh/α   predicted    -0.2735356E-03 (-166.83%)
   displ. norm   :     0.1414428 α      lambda       -0.1349732E-02
   maximum displ.:     0.1242506 α      in ANC's #1, #2, #3, ...

........................................................................
.............................. CYCLE   10 ..............................
........................................................................
   1    -13.3470877 -0.133471E+02  0.110E-01    7.99       0.0  T
   2    -13.3470881 -0.339402E-06  0.661E-02    7.99       1.0  T
   3    -13.3470882 -0.146224E-06  0.471E-03    7.99       8.7  T
   4    -13.3470882 -0.368527E-08  0.207E-03    7.99      19.7  T
     SCC iter.                  ...        0 min,  0.000 sec
     gradient                   ...        0 min,  0.000 sec
 * total energy  :   -13.2861250 Eh     change       -0.5169092E-03 Eh
   gradient norm :     0.0098980 Eh/α   predicted    -0.6883692E-03 (  33.17%)
   displ. norm   :     0.0408238 α      lambda       -0.2252576E-03
   maximum displ.:     0.0301553 α      in ANC's #3, #6, #1, ...

........................................................................
.............................. CYCLE   11 ..............................
........................................................................
   1    -13.3443751 -0.133444E+02  0.319E-02    8.01       0.0  T
   2    -13.3443754 -0.346987E-06  0.180E-02    8.00       2.3  T
   3    -13.3443755 -0.987724E-07  0.551E-03    8.00       7.4  T
   4    -13.3443755 -0.519005E-09  0.182E-03    8.00      22.4  T
   5    -13.3443755 -0.925674E-09  0.137E-04    8.00     297.6  T
     SCC iter.                  ...        0 min,  0.001 sec
     gradient                   ...        0 min,  0.000 sec
 * total energy  :   -13.2861986 Eh     change       -0.7367572E-04 Eh
   gradient norm :     0.0037350 Eh/α   predicted    -0.1128173E-03 (  53.13%)
   displ. norm   :     0.0292516 α      lambda       -0.3840860E-04
   maximum displ.:     0.0255637 α      in ANC's #2, #3, #1, ...

........................................................................
.............................. CYCLE   12 ..............................
........................................................................
   1    -13.3449655 -0.133450E+02  0.290E-02    7.99       0.0  T
   2    -13.3449655 -0.367622E-07  0.174E-02    8.00       2.3  T
   3    -13.3449655 -0.127807E-07  0.172E-03    8.00      23.7  T
   4    -13.3449655 -0.609493E-09  0.448E-04    8.00      91.2  T
   5    -13.3449655 -0.891358E-10  0.164E-04    8.00     248.4  T
     SCC iter.                  ...        0 min,  0.001 sec
     gradient                   ...        0 min,  0.000 sec
 * total energy  :   -13.2861977 Eh     change        0.9564869E-06 Eh
   gradient norm :     0.0042466 Eh/α   predicted    -0.1922105E-04 (*******%)
   displ. norm   :     0.0463032 α      lambda       -0.7621538E-04
   maximum displ.:     0.0332888 α      in ANC's #2, #1, #3, ...

........................................................................
.............................. CYCLE   13 ..............................
........................................................................
   1    -13.3460380 -0.133460E+02  0.453E-02    7.99       0.0  T
   2    -13.3460381 -0.113061E-06  0.272E-02    7.99       1.5  T
   3    -13.3460381 -0.381170E-07  0.302E-03    7.99      13.5  T
   4    -13.3460381 -0.182583E-08  0.779E-04    7.99      52.4  T
   5    -13.3460381 -0.260989E-09  0.270E-04    7.99     151.4  T
     SCC iter.                  ...        0 min,  0.001 sec
     gradient                   ...        0 min,  0.000 sec
 * total energy  :   -13.2861703 Eh     change        0.2739996E-04 Eh
   gradient norm :     0.0074212 Eh/α   predicted    -0.3818815E-04 (-239.37%)
   displ. norm   :     0.0274853 α      lambda       -0.9593266E-04
   maximum displ.:     0.0181687 α      in ANC's #3, #1, #2, ...

........................................................................
.............................. CYCLE   14 ..............................
........................................................................
   1    -13.3448631 -0.133449E+02  0.241E-02    8.00       0.0  T
   2    -13.3448631 -0.848505E-07  0.143E-02    8.00       2.9  T
   3    -13.3448632 -0.278829E-07  0.272E-03    8.00      15.0  T
   4    -13.3448632 -0.836579E-09  0.184E-04    8.00     222.1  T
     SCC iter.                  ...        0 min,  0.000 sec
     gradient                   ...        0 min,  0.000 sec
 * total energy  :   -13.2862174 Eh     change       -0.4711851E-04 Eh
   gradient norm :     0.0006418 Eh/α   predicted    -0.4800446E-04 (   1.88%)
   displ. norm   :     0.0049534 α      lambda       -0.1133019E-05
   maximum displ.:     0.0037332 α      in ANC's #2, #3, #1, ...

........................................................................
.............................. CYCLE   15 ..............................
........................................................................
   1    -13.3448858 -0.133449E+02  0.489E-03    8.00       0.0  T
   2    -13.3448858 -0.352258E-08  0.292E-03    8.00      14.0  T
   3    -13.3448858 -0.389489E-09  0.444E-04    8.00      92.0  T
   4    -13.3448858 -0.633875E-10  0.178E-04    8.00     229.4  T
     SCC iter.                  ...        0 min,  0.000 sec
     gradient                   ...        0 min,  0.000 sec
 * total energy  :   -13.2862180 Eh     change       -0.5712249E-06 Eh
   gradient norm :     0.0006379 Eh/α   predicted    -0.5665614E-06 (  -0.82%)
   displ. norm   :     0.0018452 α      lambda       -0.3100413E-06
   maximum displ.:     0.0017074 α      in ANC's #2, #6, #1, ...

   *** GEOMETRY OPTIMIZATION CONVERGED AFTER 15 ITERATIONS ***

------------------------------------------------------------------------
 total energy gain   :        -4.5103296 Eh    -2830.2746 kcal/mol
 total RMSD          :         0.1263021 a0        0.0668 Å
 total power (kW/mol):      -789.4579192 (step)********** (real)
------------------------------------------------------------------------

 ANCopt (total)                0 d,  0 h,  0 min,  0.029 sec
 optimizer setup                ...        0 min,  0.000 sec (  0.341%)
 model hessian                  ...        0 min,  0.000 sec (  0.768%)
 ANC generation                 ...        0 min,  0.000 sec (  0.441%)
 coordinate transformation      ...        0 min,  0.000 sec (  0.682%)
 single point calculation       ...        0 min,  0.026 sec ( 88.810%)
 optimization log               ...        0 min,  0.001 sec (  2.218%)
 hessian update                 ...        0 min,  0.000 sec (  0.641%)
 rational function              ...        0 min,  0.001 sec (  2.514%)

================
 final structure:
================
6
 xtb: 6.2.3 (830e466)
F        -2.66220368320452   -0.05209446147990    0.03853622334182
Cl        2.90424103425239    0.07067893297995   -0.02333607955507
C        -1.16986039878751   -0.02194469649928    0.01128747452034
H        -0.87922068610295   -0.63511868314592   -0.83162286918057
H        -0.84917261393799   -0.43199447791994    0.96016844111013
H        -0.89944365221943    1.01839338606509   -0.11078319023664
 
 Bond Distances (Angstroems)
 ---------------------------
F1-C3=1.4929         C3-F1=1.4929         C3-H4=1.0821         C3-H5=1.0823         C3-H6=1.0818         H4-C3=1.0821         
H5-C3=1.0823         H6-C3=1.0818         
 C  H  Rav=1.0821 sigma=0.0002  Rmin=1.0818  Rmax=1.0823     3
 F  C  Rav=1.4929 sigma=0.0000  Rmin=1.4929  Rmax=1.4929     1
 
 selected bond angles (degree)
 --------------------
H4-C3-F1=105.74                H5-C3-F1=105.82                H5-C3-H4=112.87                H6-C3-F1=105.74                
H6-C3-H4=112.95                H6-C3-H5=112.91                
 
 selected dihedral angles (degree)
 ---------------------------------

 
 CMA Distance (Angstroems)
 ---------------------------
R(CMA):  4.8825
           -------------------------------------------------
          |                Final Singlepoint                |
           -------------------------------------------------

          ...................................................
          :                      SETUP                      :
          :.................................................:
          :  # basis functions                  21          :
          :  # atomic orbitals                  20          :
          :  # shells                           10          :
          :  # electrons                        22          :
          :  max. iterations                   250          :
          :  Hamiltonian                  GFN2-xTB          :
          :  restarted?                      false          :
          :  GBSA solvation                   true          :
          :  PC potential                    false          :
          :  electronic temp.          300.0000000     K    :
          :  accuracy                    1.0000000          :
          :  -> integral cutoff          0.2500000E+02      :
          :  -> integral neglect         0.1000000E-07      :
          :  -> SCF convergence          0.1000000E-05 Eh   :
          :  -> wf. convergence          0.1000000E-03 e    :
          :  Broyden damping             0.4000000          :
          ...................................................

 iter      E             dE          RMSdq      gap      omega  full diag
   1    -13.3448858 -0.133449E+02  0.424E-05    8.00       0.0  T
   2    -13.3448858 -0.792255E-12  0.324E-05    8.00    1260.7  T
   3    -13.3448858 -0.142109E-11  0.128E-05    8.00    3199.3  T

   *** convergence criteria satisfied after 3 iterations ***

         #    Occupation            Energy/Eh            Energy/eV
      -------------------------------------------------------------
         1        2.0000           -0.9864332             -26.8422
       ...           ...                  ...                  ...
         5        2.0000           -0.5272582             -14.3474
         6        2.0000           -0.5272040             -14.3460
         7        2.0000           -0.4626418             -12.5891
         8        2.0000           -0.4626219             -12.5886
         9        2.0000           -0.3900503             -10.6138
        10        2.0000           -0.3893845             -10.5957
        11        2.0000           -0.3893840             -10.5957 (HOMO)
        12                         -0.0954904              -2.5984 (LUMO)
        13                          0.1306632               3.5555
        14                          0.1420491               3.8654
        15                          0.1420749               3.8661
        16                          0.1420754               3.8661
       ...                                ...                  ...
        20                          0.2169251               5.9028
      -------------------------------------------------------------
                  HL-Gap            0.2938936 Eh            7.9973 eV
             Fermi-level           -0.2424372 Eh           -6.5971 eV

 SCC (total)                   0 d,  0 h,  0 min,  0.002 sec
 SCC setup                      ...        0 min,  0.000 sec (  9.749%)
 Dispersion                     ...        0 min,  0.000 sec (  0.789%)
 integral evaluation            ...        0 min,  0.000 sec ( 22.423%)
 zeroth order Hamiltonian       ...        0 min,  0.000 sec (  1.735%)
 iterations                     ...        0 min,  0.000 sec ( 26.050%)
 molecular gradient             ...        0 min,  0.001 sec ( 30.194%)
 printout                       ...        0 min,  0.000 sec (  5.118%)

         :::::::::::::::::::::::::::::::::::::::::::::::::::::
         ::                     SUMMARY                     ::
         :::::::::::::::::::::::::::::::::::::::::::::::::::::
         :: total energy             -13.286217964121 Eh    ::
         :: total w/o Gsasa/hb       -13.285794871621 Eh    ::
         :: gradient norm              0.000638074634 Eh/a0 ::
         :: HOMO-LUMO gap              7.997251170995 eV    ::
         ::.................................................::
         :: SCC energy               -13.342810142723 Eh    ::
         :: -> isotropic ES            0.172983404190 Eh    ::
         :: -> anisotropic ES         -0.001028901590 Eh    ::
         :: -> anisotropic XC          0.000837402540 Eh    ::
         :: -> dispersion             -0.001345827406 Eh    ::
         :: -> Gsolv                  -0.104106572387 Eh    ::
         ::    -> Gborn               -0.103683479887 Eh    ::
         ::    -> Gsasa                0.000218225303 Eh    ::
         ::    -> Ghb                 -0.002498760929 Eh    ::
         ::    -> Gshift               0.001857443127 Eh    ::
         :: repulsion energy           0.056566921652 Eh    ::
         :: add. restraining           0.000026012001 Eh    ::
         :::::::::::::::::::::::::::::::::::::::::::::::::::::

           -------------------------------------------------
          |                Property Printout                |
           -------------------------------------------------

    * Orbital Energies and Occupations

         #    Occupation            Energy/Eh            Energy/eV
      -------------------------------------------------------------
         1        2.0000           -0.9864332             -26.8422
         2        2.0000           -0.7951141             -21.6362
         3        2.0000           -0.6110344             -16.6271
         4        2.0000           -0.5298895             -14.4190
         5        2.0000           -0.5272582             -14.3474
         6        2.0000           -0.5272040             -14.3460
         7        2.0000           -0.4626418             -12.5891
         8        2.0000           -0.4626219             -12.5886
         9        2.0000           -0.3900503             -10.6138
        10        2.0000           -0.3893845             -10.5957
        11        2.0000           -0.3893840             -10.5957 (HOMO)
        12                         -0.0954904              -2.5984 (LUMO)
        13                          0.1306632               3.5555
        14                          0.1420491               3.8654
        15                          0.1420749               3.8661
        16                          0.1420754               3.8661
        17                          0.1424511               3.8763
        18                          0.1424511               3.8763
        19                          0.2161099               5.8806
        20                          0.2169251               5.9028
      -------------------------------------------------------------
                  HL-Gap            0.2938936 Eh            7.9973 eV
             Fermi-level           -0.2424372 Eh           -6.5971 eV

     #   Z        covCN         q      C6AA      α(0)
     1   9 F      0.770    -0.313    12.475     4.172
     2  17 Cl     0.000    -1.000   127.011    17.152
     3   6 C      3.546     0.041    20.896     6.689
     4   1 H      0.925     0.091     1.869     2.138
     5   1 H      0.925     0.091     1.873     2.140
     6   1 H      0.925     0.091     1.870     2.139

 Mol. C6AA /au·bohr⁶  :        546.209084
 Mol. C8AA /au·bohr⁸  :      15827.901575
 Mol. α(0) /au        :         34.429527


Wiberg/Mayer (AO) data.
largest (>0.10) Wiberg bond orders for each atom
          total WBO             WBO to atom ...
     1  F   0.927        C    3 0.903
     2  Cl  0.000
     3  C   3.854        H    5 0.984    H    6 0.984    H    4 0.984    F    1 0.903
     4  H   0.992        C    3 0.984
     5  H   0.992        C    3 0.984
     6  H   0.992        C    3 0.984

molecular dipole:
                 x           y           z       tot (Debye)
 q only:       -4.453      -0.113       0.025
   full:       -4.280      -0.109       0.022      10.881
molecular quadrupole (traceless):
                xx          xy          yy          xz          yz          zz
 q only:      -37.618      -1.322      18.797       0.541       0.013      18.821
  q+dip:      -39.672      -1.383      19.824       0.599       0.014      19.848
   full:      -38.949      -1.360      19.463       0.578       0.014      19.486

           -------------------------------------------------
          |                Geometry Summary                 |
           -------------------------------------------------

      molecular mass/u    :       69.4858989
   center of mass at/Å    :        0.5135815       0.0173184       0.0008386
  moments of inertia/u·Å² :        0.3280385E+01   0.4360114E+03   0.4360125E+03
rotational constants/cm⁻¹ :        0.5138919E+01   0.3866328E-01   0.3866318E-01

 * 3 selected distances

     #   Z        #   Z                                     value/Å
     3   6 C      4   1 H                                 1.0821052
     3   6 C      5   1 H                                 1.0822923 (max)
     3   6 C      6   1 H                                 1.0818178 (min)

 * 1 distinct bonds (by element types)

   Z      Z             #   av. dist./Å        max./Å        min./Å
   1 H    6 C           3     1.0820718     1.0822923     1.0818178


optimized geometry written to: xtbopt.xyz


           -------------------------------------------------
          | TOTAL ENERGY              -13.286217964121 Eh   |
          | GRADIENT NORM               0.000638074634 Eh/α |
          | HOMO-LUMO GAP               7.997251170995 eV   |
           -------------------------------------------------

------------------------------------------------------------------------
 * finished run on 2020/08/20 at 17:46:28.636     
------------------------------------------------------------------------
 total:
 * wall-time:     0 d,  0 h,  0 min,  0.069 sec
 *  cpu-time:     0 d,  0 h,  0 min,  0.219 sec
 * ratio c/w:     3.155 speedup
 SCF:
 * wall-time:     0 d,  0 h,  0 min,  0.005 sec
 *  cpu-time:     0 d,  0 h,  0 min,  0.019 sec
 * ratio c/w:     3.980 speedup
 ANC optimizer:
 * wall-time:     0 d,  0 h,  0 min,  0.031 sec
 *  cpu-time:     0 d,  0 h,  0 min,  0.125 sec
 * ratio c/w:     3.990 speedup

