      -----------------------------------------------------------      
     |                   =====================                   |     
     |                           x T B                           |     
     |                   =====================                   |     
     |                         S. Grimme                         |     
     |          Mulliken Center for Theoretical Chemistry        |     
     |                    University of Bonn                     |     
      -----------------------------------------------------------      

   * xtb version 6.2.3 (830e466) compiled by 'ehlert@majestix' on 2020-03-16

   xtb is free software: you can redistribute it and/or modify it under
   the terms of the GNU Lesser General Public License as published by
   the Free Software Foundation, either version 3 of the License, or
   (at your option) any later version.
   
   xtb is distributed in the hope that it will be useful,
   but WITHOUT ANY WARRANTY; without even the implied warranty of
   MERCHANTABILITY or FITNESS FOR A PARTICULAR PURPOSE.  See the
   GNU Lesser General Public License for more details.
   
   Cite this work as:
   * S. Grimme, C. Bannwarth, P. Shushkov, J. Chem. Theory Comput., 2017,
     13, 1989-2009. DOI: 10.1021/acs.jctc.7b00118
   * C. Bannwarth, S. Ehlert and S. Grimme., J. Chem. Theory Comput., 2019,
     15, 1652-1671. DOI: 10.1021/acs.jctc.8b01176
   * P. Pracht, E. Caldeweyher, S. Ehlert, S. Grimme, ChemRxiv, 2019, preprint.
     DOI: 10.26434/chemrxiv.8326202.v1
   
   for DFT-D4:
   * E. Caldeweyher, C. Bannwarth and S. Grimme, J. Chem. Phys., 2017,
     147, 034112. DOI: 10.1063/1.4993215
   * E. Caldeweyher, S. Ehlert, A. Hansen, H. Neugebauer, S. Spicher,
     C. Bannwarth and S. Grimme, J. Chem. Phys., 2019, 150, 154122.
     DOI: 10.1063/1.5090222
   
   for sTDA-xTB:
   * S. Grimme and C. Bannwarth, J. Chem. Phys., 2016, 145, 054103.
     DOI: 10.1063/1.4959605
   
   in the mass-spec context:
   * V. Asgeirsson, C. Bauer and S. Grimme, Chem. Sci., 2017, 8, 4879.
     DOI: 10.1039/c7sc00601b
   
   for metadynamics refer to:
   * S. Grimme, J. Chem. Theory Comput., 2019, 155, 2847-2862
     DOI: 10.1021/acs.jctc.9b00143
   
   with help from (in alphabetical order)
   C. Bannwarth, F. Bohle, G. Brandenburg, E. Caldeweyher, M. Checinski,
   S. Dohm, S. Ehlert, S. Ehrlich, F. März, H. Neugebauer, J. Pisarek,
   P. Pracht, P. Shushkov, and S. Spicher.
   
 * started run on 2020/08/20 at 17:46:27.324     

           -------------------------------------------------
          |                Calculation Setup                |
           -------------------------------------------------

          program call               : /u/fd/ball4935/opt/bin/xtb 3ixBtq_reactant_constrained_opt1_xtb.xyz --chrg -1 --opt --gbsa Water --input xcontrol_3ixBtq_reactant_constrained_opt1_xtb
          hostname                   : comp0810
          coordinate file            : 3ixBtq_reactant_constrained_opt1_xtb.xyz
          omp threads                :                     4
          number of atoms            :                     6
          number of electrons        :                    22
          charge                     :                    -1
          spin                       :                   0.0
          first test random number   :      0.11345536338338

constraining bond 1 3 to    3.2740000 Å, actual value:    3.4358077 Å
constraining bond 2 3 to    1.9599000 Å, actual value:    1.7675574 Å

molecular fragmentation (1/2 indicates fragments):
122222
# atoms in fragment 1/2:     1     5
 fragment masses (1/2) :       19.00       50.49
CMA distance (Bohr)    :   8.799
constraining FC (au)   : 20.0000
########################################################################
[WARNING] Please study the warnings concerning your input carefully
-2- prog_main: XTBPATH is not set, using XTBHOME instead
-1- prog_main: XTBHOME is not set, using HOME instead
########################################################################
           ------------------------------------------------- 
          |                 G F N 2 - x T B                 |
          | Geometry, Frequencies, Noncovalent interactions |
          |            JCTC 2019 parametrisation            |
           ------------------------------------------------- 
             k(s)              :                1.8500
             k(p)              :                2.2300
             k(d)              :                2.2300
             k(f)              :                2.0000
             kEN (H0ij)        :               -2.0000
             D4 a1             :                0.5200
             D4 a2             :                5.0000
             D4 s6             :                1.0000
             D4 s8             :                2.7000
             D4 s9             :                5.0000
             alphaj            :                2.0000

  Z AO/shell   Hii/eV     exponent
  1     Wed Apr 25 08:07:45 CEST 2018   EN: 2.200 GM2: 0.406  GM3: 0.0800  RAES: 1.40
     1s    -10.707211    1.230000
  6     Wed Apr 25 08:07:45 CEST 2018   EN: 2.550 GM2: 0.538  GM3: 0.1500  RAES: 3.00
     2s    -13.970922    2.096432
     2p    -10.063292    1.800000
  9     Mon Apr 23 13:58:50 CEST 2018   EN: 3.980 GM2: 0.532  GM3: 0.1426  RAES: 2.40
     2s    -23.458179    2.416361
     2p    -15.746583    2.308399
 17     Mon Apr 23 14:09:22 CEST 2018   EN: 3.160 GM2: 0.249  GM3: 0.1495  RAES: 2.50
     3s    -29.278781    2.485265
     3p    -12.673758    2.199650
     3d     -0.240338    2.476089

 Solvent             : Water
 Using internal parameter file: .param_gbsa2_Water
 Gsolv ref. state (COSMO-RS): gsolv [1 M gas/solution]
 temperature (mdtemp)       :    298.150000000000     
 dielectric constant        :    80.2000000000000     
 rho                        :    1.00000000000000     
 mass                       :    18.0000000000000     
 surface tension            :    15.5689454083859     
 probe radius               :   0.975313790000000     
 Gshift (Eh)                :   1.857443126794793E-003
 c1                         :    1.55243817000000     
 soset                      :   0.130326360000000     
 HB correction              :  T
           ------------------------------------------------- 
          |        Self-Consistent Charge Iterations        |
           ------------------------------------------------- 

          ...................................................
          :                      SETUP                      :
          :.................................................:
          :  # basis functions                  21          :
          :  # atomic orbitals                  20          :
          :  # shells                           10          :
          :  # electrons                        22          :
          :  max. iterations                   250          :
          :  Hamiltonian                  GFN2-xTB          :
          :  restarted?                      false          :
          :  GBSA solvation                   true          :
          :  PC potential                    false          :
          :  electronic temp.          300.0000000     K    :
          :  accuracy                    1.0000000          :
          :  -> integral cutoff          0.2500000E+02      :
          :  -> integral neglect         0.1000000E-07      :
          :  -> SCF convergence          0.1000000E-05 Eh   :
          :  -> wf. convergence          0.1000000E-03 e    :
          :  Broyden damping             0.4000000          :
          ...................................................

 iter      E             dE          RMSdq      gap      omega  full diag
   1    -13.2787192 -0.132787E+02  0.558E+00    7.92       0.0  T
   2    -13.3324875 -0.537682E-01  0.324E+00    5.86       1.0  T
   3    -13.3331716 -0.684122E-03  0.172E+00    5.40       1.0  T
   4    -13.3335998 -0.428184E-03  0.352E-01    4.83       1.0  T
   5    -13.3338270 -0.227237E-03  0.204E-01    4.80       1.0  T
   6    -13.3339540 -0.127020E-03  0.135E-01    4.72       1.0  T
   7    -13.3339992 -0.452184E-04  0.877E-03    4.69       4.7  T
   8    -13.3339993 -0.102771E-07  0.891E-03    4.69       4.6  T
   9    -13.3339994 -0.151355E-06  0.602E-04    4.69      67.9  T
  10    -13.3339994 -0.616055E-09  0.291E-04    4.69     140.2  T

   *** convergence criteria satisfied after 10 iterations ***

         #    Occupation            Energy/Eh            Energy/eV
      -------------------------------------------------------------
         1        2.0000           -1.0587307             -28.8095
       ...           ...                  ...                  ...
         5        2.0000           -0.5147112             -14.0060
         6        2.0000           -0.5024344             -13.6719
         7        2.0000           -0.4203298             -11.4378
         8        2.0000           -0.4203259             -11.4377
         9        2.0000           -0.3380777              -9.1996
        10        2.0000           -0.3376666              -9.1884
        11        2.0000           -0.3376659              -9.1884 (HOMO)
        12                         -0.1654104              -4.5010 (LUMO)
        13                          0.0171597               0.4669
        14                          0.0171947               0.4679
        15                          0.0216101               0.5880
        16                          0.0216345               0.5887
       ...                                ...                  ...
        20                          0.2110154               5.7420
      -------------------------------------------------------------
                  HL-Gap            0.1722555 Eh            4.6873 eV
             Fermi-level           -0.2515382 Eh           -6.8447 eV

 SCC (total)                   0 d,  0 h,  0 min,  0.004 sec
 SCC setup                      ...        0 min,  0.000 sec (  7.037%)
 Dispersion                     ...        0 min,  0.000 sec (  0.739%)
 integral evaluation            ...        0 min,  0.001 sec ( 11.750%)
 zeroth order Hamiltonian       ...        0 min,  0.000 sec (  0.809%)
 iterations                     ...        0 min,  0.003 sec ( 59.524%)
 molecular gradient             ...        0 min,  0.001 sec ( 15.814%)
 printout                       ...        0 min,  0.000 sec (  2.496%)

         :::::::::::::::::::::::::::::::::::::::::::::::::::::
         ::                     SUMMARY                     ::
         :::::::::::::::::::::::::::::::::::::::::::::::::::::
         :: total energy              -8.761841152968 Eh    ::
         :: total w/o Gsasa/hb        -8.759328510958 Eh    ::
         :: gradient norm             32.822217564908 Eh/a0 ::
         :: HOMO-LUMO gap              4.687311792251 eV    ::
         ::.................................................::
         :: SCC energy               -13.331048915073 Eh    ::
         :: -> isotropic ES            0.281162280918 Eh    ::
         :: -> anisotropic ES         -0.002298099075 Eh    ::
         :: -> anisotropic XC         -0.000646815379 Eh    ::
         :: -> dispersion             -0.001810966562 Eh    ::
         :: -> Gsolv                  -0.140591438064 Eh    ::
         ::    -> Gborn               -0.138078796054 Eh    ::
         ::    -> Gsasa                0.001093045564 Eh    ::
         ::    -> Ghb                 -0.005463130700 Eh    ::
         ::    -> Gshift               0.001857443127 Eh    ::
         :: repulsion energy           0.056996545696 Eh    ::
         :: add. restraining           4.512212116046 Eh    ::
         :::::::::::::::::::::::::::::::::::::::::::::::::::::

      ----------------------------------------------------------- 
     |                   =====================                   |
     |                        A N C O P T                        |
     |                   =====================                   |
     |               Approximate Normal Coordinate               |
     |                Rational Function Optimizer                |
      ----------------------------------------------------------- 

          ...................................................
          :                      SETUP                      :
          :.................................................:
          :   optimization level            normal          :
          :   max. optcycles                   200          :
          :   ANC micro-cycles                  20          :
          :   degrees of freedom                12          :
          :.................................................:
          :   RF solver                   davidson          :
          :   write xtbopt.log                true          :
          :   linear?                        false          :
          :   energy convergence         0.5000000E-05 Eh   :
          :   grad. convergence          0.1000000E-02 Eh/α :
          :   maximium RF displ.         1.0000000          :
          :   Hlow (freq-cutoff)         0.1000000E-01      :
          :   Hmax (freq-cutoff)         5.0000000          :
          :   S6 in model hess.         20.0000000          :
          ...................................................

generating ANC from model Hessian ...
Using Lindh-Hessian (1995)
 Shifting diagonal of input Hessian by    5.58278012406180     
 Lowest  eigenvalues of input Hessian
    0.010000    0.010256   -0.000000   -0.000000   -0.000000    0.000000
    0.000000    0.000000    5.679190    5.679220    5.709125    5.856594
    5.856668    6.062250    6.613068    6.613419   45.809465  126.472281
 Highest eigenvalues
    5.856668    6.062250    6.613068    6.613419   45.809465  126.472281
 

........................................................................
.............................. CYCLE    1 ..............................
........................................................................
   1    -13.3339994 -0.133340E+02  0.173E-04    4.69       0.0  T
   2    -13.3339994 -0.361702E-10  0.825E-05    4.69     494.8  T
   3    -13.3339994 -0.348344E-11  0.588E-05    4.69     693.9  T
     SCC iter.                  ...        0 min,  0.000 sec
     gradient                   ...        0 min,  0.001 sec
 * total energy  :    -8.7618411 Eh     change        0.1001825E-07 Eh
   gradient norm :    32.8222178 Eh/α   predicted     0.0000000E+00 (-100.00%)
   displ. norm   :     0.9267286 α      lambda       -0.3041729E+02
   maximum displ.:     0.9257937 α      in ANC's #3, #12, #6, ...

........................................................................
.............................. CYCLE    2 ..............................
........................................................................
   1    -12.7306916 -0.127307E+02  0.101E+01    0.08       0.0  T
   2    -13.0621072 -0.331416E+00  0.791E+00    4.84       1.0  T
   3    -13.2582606 -0.196153E+00  0.353E+00    2.68       1.0  T
   4    -13.2851324 -0.268718E-01  0.210E+00    2.24       1.0  T
   5    -13.2739538  0.111786E-01  0.233E+00    1.52       1.0  T
   6    -13.2152116  0.587422E-01  0.415E+00    0.23       1.0  T
   7    -13.2844948 -0.692832E-01  0.142E+00    0.42       1.0  T
   8    -13.2877292 -0.323439E-02  0.991E-01    0.49       1.0  T
   9    -13.2889093 -0.118007E-02  0.128E+00    1.61       1.0  T
  10    -13.2893855 -0.476221E-03  0.100E+00    1.35       1.0  T
  11    -13.2899338 -0.548243E-03  0.968E-01    1.38       1.0  T
  12    -13.2908712 -0.937409E-03  0.734E-01    1.18       1.0  T
  13    -13.2914950 -0.623885E-03  0.552E-01    1.06       1.0  T
  14    -13.2919368 -0.441778E-03  0.390E-01    0.96       1.0  T
  15    -13.2923678 -0.430939E-03  0.131E-01    0.82       1.0  T
  16    -13.2924310 -0.632355E-04  0.785E-03    0.76       5.2  T
  17    -13.2924273  0.370257E-05  0.349E-02    0.75       1.2  T
  18    -13.2924304 -0.306308E-05  0.155E-02    0.76       2.6  T
  19    -13.2924311 -0.775096E-06  0.166E-03    0.76      24.6  T
  20    -13.2924311 -0.306303E-08  0.158E-03    0.76      25.9  T
     SCC iter.                  ...        0 min,  0.002 sec
     gradient                   ...        0 min,  0.000 sec
 * total energy  :    12.3250725 Eh     change        0.2108691E+02 Eh
   gradient norm :    78.3446663 Eh/α   predicted    -0.2827022E+02 (-234.07%)
   displ. norm   :     0.4941456 α      lambda       -0.3869326E+02
   maximum displ.:     0.4938549 α      in ANC's #3, #12, #1, ...

........................................................................
.............................. CYCLE    3 ..............................
........................................................................
   1    -13.3240330 -0.133240E+02  0.174E+00    2.81       0.0  T
   2    -13.3256093 -0.157632E-02  0.666E-01    2.61       1.0  T
   3    -13.3258531 -0.243774E-03  0.460E-01    2.21       1.0  T
   4    -13.3260148 -0.161758E-03  0.176E-01    1.99       1.0  T
   5    -13.3260670 -0.521799E-04  0.936E-02    1.95       1.0  T
   6    -13.3260800 -0.129736E-04  0.734E-02    1.95       1.0  T
   7    -13.3260940 -0.140123E-04  0.362E-03    1.94      11.3  T
   8    -13.3260940 -0.354267E-08  0.974E-04    1.94      41.9  T
   9    -13.3260940 -0.365780E-09  0.717E-05    1.94     569.4  T
     SCC iter.                  ...        0 min,  0.001 sec
     gradient                   ...        0 min,  0.000 sec
 * total energy  :   -11.7352123 Eh     change       -0.2406028E+02 Eh
   gradient norm :    19.1144192 Eh/α   predicted    -0.2407071E+02 (   0.04%)
   displ. norm   :     0.1982577 α      lambda       -0.3084925E+01
   maximum displ.:     0.1568778 α      in ANC's #3, #12, #1, ...

........................................................................
.............................. CYCLE    4 ..............................
........................................................................
   1    -13.3348389 -0.133348E+02  0.635E-01    3.45       0.0  T
   2    -13.3349978 -0.158873E-03  0.383E-01    3.41       1.0  T
   3    -13.3350849 -0.870905E-04  0.222E-01    3.30       1.0  T
   4    -13.3351502 -0.653178E-04  0.142E-01    3.25       1.0  T
   5    -13.3352133 -0.631123E-04  0.667E-02    3.23       1.0  T
   6    -13.3352265 -0.131837E-04  0.411E-03    3.21       9.9  T
   7    -13.3352266 -0.374185E-07  0.136E-03    3.21      30.1  T
   8    -13.3352266 -0.101638E-09  0.550E-05    3.21     742.1  T
     SCC iter.                  ...        0 min,  0.001 sec
     gradient                   ...        0 min,  0.000 sec
 * total energy  :   -13.0564608 Eh     change       -0.1321249E+01 Eh
   gradient norm :     4.0691005 Eh/α   predicted    -0.1603093E+01 (  21.33%)
   displ. norm   :     0.4726672 α      lambda       -0.1905724E+01
   maximum displ.:     0.4622583 α      in ANC's #12, #3, #6, ...

........................................................................
.............................. CYCLE    5 ..............................
........................................................................
   1    -13.3203457 -0.133203E+02  0.559E-01    2.08       0.0  T
   2    -13.3204279 -0.822585E-04  0.396E-01    2.15       1.0  T
   3    -13.3205253 -0.973449E-04  0.174E-01    2.19       1.0  T
   4    -13.3205697 -0.443772E-04  0.134E-01    2.22       1.0  T
   5    -13.3206391 -0.694399E-04  0.395E-02    2.25       1.0  T
   6    -13.3206414 -0.228364E-05  0.309E-03    2.26      13.2  T
   7    -13.3206414 -0.765000E-08  0.132E-03    2.26      30.8  T
     SCC iter.                  ...        0 min,  0.001 sec
     gradient                   ...        0 min,  0.000 sec
 * total energy  :   -10.0868568 Eh     change        0.2969604E+01 Eh
   gradient norm :    18.6019237 Eh/α   predicted    -0.1165745E+01 (-139.26%)
   displ. norm   :     0.3292572 α      lambda       -0.5656417E+01
   maximum displ.:     0.3160429 α      in ANC's #12, #3, #5, ...

........................................................................
.............................. CYCLE    6 ..............................
........................................................................
   1    -13.3300315 -0.133300E+02  0.330E-01    2.84       0.0  T
   2    -13.3300577 -0.262506E-04  0.231E-01    2.81       1.0  T
   3    -13.3300886 -0.308281E-04  0.924E-02    2.79       1.0  T
   4    -13.3301006 -0.120384E-04  0.737E-02    2.77       1.0  T
   5    -13.3301226 -0.219670E-04  0.124E-02    2.75       3.3  T
   6    -13.3301227 -0.123431E-06  0.182E-03    2.75      22.4  T
   7    -13.3301227 -0.846216E-09  0.374E-04    2.75     109.1  T
     SCC iter.                  ...        0 min,  0.001 sec
     gradient                   ...        0 min,  0.000 sec
 * total energy  :   -13.2211408 Eh     change       -0.3134284E+01 Eh
   gradient norm :     1.8602040 Eh/α   predicted    -0.3134815E+01 (   0.02%)
   displ. norm   :     0.0717879 α      lambda       -0.8318440E-01
   maximum displ.:     0.0547849 α      in ANC's #1, #12, #2, ...

........................................................................
.............................. CYCLE    7 ..............................
........................................................................
   1    -13.3306336 -0.133306E+02  0.194E-01    2.90       0.0  T
   2    -13.3306362 -0.259167E-05  0.116E-01    2.89       1.0  T
   3    -13.3306385 -0.233472E-05  0.237E-02    2.88       1.7  T
   4    -13.3306390 -0.528651E-06  0.185E-02    2.88       2.2  T
   5    -13.3306399 -0.809074E-06  0.110E-02    2.88       3.7  T
   6    -13.3306403 -0.434861E-06  0.124E-03    2.87      33.0  T
   7    -13.3306403 -0.184414E-08  0.594E-04    2.87      68.7  T
     SCC iter.                  ...        0 min,  0.001 sec
     gradient                   ...        0 min,  0.000 sec
 * total energy  :   -13.2623780 Eh     change       -0.4123717E-01 Eh
   gradient norm :     0.0396638 Eh/α   predicted    -0.4180654E-01 (   1.38%)
   displ. norm   :     0.6624757 α      lambda       -0.8389713E-02
   maximum displ.:     0.6557332 α      in ANC's #1, #2, #12, ...

........................................................................
.............................. CYCLE    8 ..............................
........................................................................
   1    -13.3031733 -0.133032E+02  0.216E+00    2.31       0.0  T
   2    -13.3034903 -0.316977E-03  0.127E+00    2.26       1.0  T
   3    -13.3035014 -0.111065E-04  0.225E-01    2.36       1.0  T
   4    -13.3036050 -0.103603E-03  0.882E-02    2.33       1.0  T
   5    -13.3036075 -0.250298E-05  0.237E-02    2.33       1.7  T
   6    -13.3036085 -0.972150E-06  0.166E-02    2.34       2.5  T
   7    -13.3036094 -0.880335E-06  0.791E-03    2.34       5.2  T
   8    -13.3036095 -0.162849E-06  0.140E-03    2.34      29.1  T
   9    -13.3036095 -0.232251E-08  0.640E-04    2.34      63.8  T
     SCC iter.                  ...        0 min,  0.001 sec
     gradient                   ...        0 min,  0.000 sec
 * total energy  :   -13.0606580 Eh     change        0.2017200E+00 Eh
   gradient norm :     4.3438122 Eh/α   predicted    -0.6035640E-02 (-102.99%)
   displ. norm   :     0.4430908 α      lambda       -0.5980741E+00
   maximum displ.:     0.4352068 α      in ANC's #1, #2, #5, ...

........................................................................
.............................. CYCLE    9 ..............................
........................................................................
   1    -13.3278910 -0.133279E+02  0.149E+00    3.00       0.0  T
   2    -13.3279818 -0.908348E-04  0.873E-01    2.98       1.0  T
   3    -13.3280306 -0.488066E-04  0.924E-02    2.95       1.0  T
   4    -13.3280350 -0.436655E-05  0.347E-02    2.95       1.2  T
   5    -13.3280365 -0.150650E-05  0.283E-02    2.94       1.4  T
   6    -13.3280391 -0.263557E-05  0.117E-02    2.94       3.5  T
   7    -13.3280396 -0.485613E-06  0.449E-03    2.94       9.1  T
   8    -13.3280396 -0.204996E-07  0.338E-04    2.93     120.8  T
     SCC iter.                  ...        0 min,  0.001 sec
     gradient                   ...        0 min,  0.001 sec
 * total energy  :   -13.2552160 Eh     change       -0.1945581E+00 Eh
   gradient norm :     0.7251726 Eh/α   predicted    -0.3577471E+00 (  83.88%)
   displ. norm   :     0.1569102 α      lambda       -0.1038207E-01
   maximum displ.:     0.1555622 α      in ANC's #2, #12, #1, ...

........................................................................
.............................. CYCLE   10 ..............................
........................................................................
   1    -13.3259062 -0.133259E+02  0.506E-01    2.82       0.0  T
   2    -13.3259180 -0.117979E-04  0.294E-01    2.82       1.0  T
   3    -13.3259236 -0.551456E-05  0.303E-02    2.83       1.3  T
   4    -13.3259240 -0.430306E-06  0.189E-02    2.83       2.2  T
   5    -13.3259243 -0.301094E-06  0.813E-03    2.83       5.0  T
   6    -13.3259245 -0.193138E-06  0.408E-03    2.83      10.0  T
   7    -13.3259245 -0.599231E-07  0.147E-03    2.83      27.8  T
     SCC iter.                  ...        0 min,  0.001 sec
     gradient                   ...        0 min,  0.001 sec
 * total energy  :   -13.2574095 Eh     change       -0.2193419E-02 Eh
   gradient norm :     0.2624096 Eh/α   predicted    -0.5318849E-02 ( 142.49%)
   displ. norm   :     0.7290920 α      lambda       -0.3929621E-01
   maximum displ.:     0.6798181 α      in ANC's #2, #1, #12, ...

........................................................................
.............................. CYCLE   11 ..............................
........................................................................
   1    -13.3047561 -0.133048E+02  0.230E+00    2.20       0.0  T
   2    -13.3051836 -0.427519E-03  0.135E+00    2.15       1.0  T
   3    -13.3051814  0.221466E-05  0.274E-01    2.28       1.0  T
   4    -13.3053424 -0.161043E-03  0.106E-01    2.24       1.0  T
   5    -13.3053490 -0.658536E-05  0.386E-02    2.25       1.1  T
   6    -13.3053524 -0.338458E-05  0.254E-02    2.25       1.6  T
   7    -13.3053546 -0.218349E-05  0.929E-03    2.26       4.4  T
   8    -13.3053548 -0.158946E-06  0.172E-03    2.26      23.7  T
   9    -13.3053548 -0.319669E-08  0.831E-04    2.26      49.1  T
     SCC iter.                  ...        0 min,  0.001 sec
     gradient                   ...        0 min,  0.000 sec
 * total energy  :   -12.9438960 Eh     change        0.3135135E+00 Eh
   gradient norm :     5.6929869 Eh/α   predicted    -0.3009112E-01 (-109.60%)
   displ. norm   :     0.4457061 α      lambda       -0.9230337E+00
   maximum displ.:     0.3839312 α      in ANC's #2, #1, #12, ...

........................................................................
.............................. CYCLE   12 ..............................
........................................................................
   1    -13.3264943 -0.133265E+02  0.148E+00    3.02       0.0  T
   2    -13.3266027 -0.108354E-03  0.865E-01    3.00       1.0  T
   3    -13.3266667 -0.640298E-04  0.112E-01    2.96       1.0  T
   4    -13.3266751 -0.844516E-05  0.581E-02    2.96       1.0  T
   5    -13.3266802 -0.509040E-05  0.425E-02    2.95       1.0  T
   6    -13.3266867 -0.651641E-05  0.127E-02    2.94       3.2  T
   7    -13.3266872 -0.501531E-06  0.474E-03    2.93       8.6  T
   8    -13.3266873 -0.143969E-07  0.733E-04    2.93      55.7  T
     SCC iter.                  ...        0 min,  0.001 sec
     gradient                   ...        0 min,  0.000 sec
 * total energy  :   -13.2556360 Eh     change       -0.3117400E+00 Eh
   gradient norm :     0.7289468 Eh/α   predicted    -0.5531994E+00 (  77.46%)
   displ. norm   :     0.0526949 α      lambda       -0.9669446E-02
   maximum displ.:     0.0369432 α      in ANC's #2, #1, #12, ...

........................................................................
.............................. CYCLE   13 ..............................
........................................................................
   1    -13.3265983 -0.133266E+02  0.173E-01    2.87       0.0  T
   2    -13.3266002 -0.186958E-05  0.101E-01    2.88       1.0  T
   3    -13.3266013 -0.106046E-05  0.144E-02    2.88       2.8  T
   4    -13.3266014 -0.118469E-06  0.957E-03    2.88       4.3  T
   5    -13.3266015 -0.133023E-06  0.557E-03    2.88       7.3  T
   6    -13.3266016 -0.115000E-06  0.134E-03    2.88      30.4  T
     SCC iter.                  ...        0 min,  0.001 sec
     gradient                   ...        0 min,  0.000 sec
 * total energy  :   -13.2620288 Eh     change       -0.6392793E-02 Eh
   gradient norm :     0.1539399 Eh/α   predicted    -0.4848146E-02 ( -24.16%)
   displ. norm   :     0.0365804 α      lambda       -0.1587337E-02
   maximum displ.:     0.0280587 α      in ANC's #2, #1, #12, ...

........................................................................
.............................. CYCLE   14 ..............................
........................................................................
   1    -13.3262883 -0.133263E+02  0.121E-01    2.86       0.0  T
   2    -13.3262892 -0.865104E-06  0.702E-02    2.86       1.0  T
   3    -13.3262896 -0.429010E-06  0.899E-03    2.86       4.5  T
   4    -13.3262897 -0.392706E-07  0.575E-03    2.86       7.1  T
   5    -13.3262897 -0.359059E-07  0.286E-03    2.86      14.3  T
     SCC iter.                  ...        0 min,  0.001 sec
     gradient                   ...        0 min,  0.000 sec
 * total energy  :   -13.2627826 Eh     change       -0.7538645E-03 Eh
   gradient norm :     0.1269097 Eh/α   predicted    -0.7947301E-03 (   5.42%)
   displ. norm   :     0.0055443 α      lambda       -0.2087235E-03
   maximum displ.:     0.0039923 α      in ANC's #2, #6, #4, ...

........................................................................
.............................. CYCLE   15 ..............................
........................................................................
   1    -13.3260803 -0.133261E+02  0.160E-02    2.87       0.0  T
   2    -13.3260803 -0.235224E-07  0.931E-03    2.87       4.4  T
   3    -13.3260803 -0.112023E-07  0.154E-03    2.87      26.5  T
   4    -13.3260803 -0.932404E-09  0.924E-04    2.87      44.2  T
     SCC iter.                  ...        0 min,  0.000 sec
     gradient                   ...        0 min,  0.000 sec
 * total energy  :   -13.2629669 Eh     change       -0.1843132E-03 Eh
   gradient norm :     0.0852683 Eh/α   predicted    -0.1043659E-03 ( -43.38%)
   displ. norm   :     0.0328046 α      lambda       -0.6869357E-03
   maximum displ.:     0.0251288 α      in ANC's #2, #6, #1, ...

........................................................................
.............................. CYCLE   16 ..............................
........................................................................
   1    -13.3248339 -0.133248E+02  0.979E-02    2.88       0.0  T
   2    -13.3248347 -0.751916E-06  0.567E-02    2.88       1.0  T
   3    -13.3248349 -0.264559E-06  0.821E-03    2.88       5.0  T
   4    -13.3248350 -0.445221E-07  0.442E-03    2.88       9.2  T
   5    -13.3248350 -0.279575E-08  0.636E-04    2.88      64.2  T
     SCC iter.                  ...        0 min,  0.001 sec
     gradient                   ...        0 min,  0.001 sec
 * total energy  :   -13.2633553 Eh     change       -0.3883614E-03 Eh
   gradient norm :     0.0127932 Eh/α   predicted    -0.3438396E-03 ( -11.46%)
   displ. norm   :     0.0089375 α      lambda       -0.5620794E-04
   maximum displ.:     0.0061115 α      in ANC's #2, #6, #1, ...

........................................................................
.............................. CYCLE   17 ..............................
........................................................................
   1    -13.3243741 -0.133244E+02  0.231E-02    2.88       0.0  T
   2    -13.3243741 -0.356186E-07  0.133E-02    2.88       3.1  T
   3    -13.3243741 -0.943504E-08  0.194E-03    2.88      21.1  T
   4    -13.3243742 -0.346083E-08  0.930E-04    2.88      43.9  T
     SCC iter.                  ...        0 min,  0.001 sec
     gradient                   ...        0 min,  0.000 sec
 * total energy  :   -13.2634015 Eh     change       -0.4623118E-04 Eh
   gradient norm :     0.0163892 Eh/α   predicted    -0.2810552E-04 ( -39.21%)
   displ. norm   :     0.0211807 α      lambda       -0.1412134E-03
   maximum displ.:     0.0121134 α      in ANC's #2, #6, #9, ...

........................................................................
.............................. CYCLE   18 ..............................
........................................................................
   1    -13.3231394 -0.133231E+02  0.453E-02    2.88       0.0  T
   2    -13.3231396 -0.123350E-06  0.260E-02    2.88       1.6  T
   3    -13.3231396 -0.204242E-07  0.404E-03    2.88      10.1  T
   4    -13.3231396 -0.174089E-07  0.169E-03    2.88      24.2  T
   5    -13.3231396 -0.827269E-09  0.413E-04    2.88      98.8  T
     SCC iter.                  ...        0 min,  0.001 sec
     gradient                   ...        0 min,  0.000 sec
 * total energy  :   -13.2635049 Eh     change       -0.1033629E-03 Eh
   gradient norm :     0.0232027 Eh/α   predicted    -0.7063685E-04 ( -31.66%)
   displ. norm   :     0.0228720 α      lambda       -0.1408289E-03
   maximum displ.:     0.0130319 α      in ANC's #6, #9, #2, ...

........................................................................
.............................. CYCLE   19 ..............................
........................................................................
   1    -13.3217785 -0.133218E+02  0.384E-02    2.88       0.0  T
   2    -13.3217786 -0.747869E-07  0.222E-02    2.88       1.8  T
   3    -13.3217786 -0.123151E-07  0.366E-03    2.88      11.2  T
   4    -13.3217786 -0.130853E-07  0.173E-03    2.88      23.6  T
     SCC iter.                  ...        0 min,  0.001 sec
     gradient                   ...        0 min,  0.000 sec
 * total energy  :   -13.2636067 Eh     change       -0.1018372E-03 Eh
   gradient norm :     0.0214133 Eh/α   predicted    -0.7044976E-04 ( -30.82%)
   displ. norm   :     0.0185380 α      lambda       -0.1140839E-03
   maximum displ.:     0.0105472 α      in ANC's #5, #9, #6, ...

........................................................................
.............................. CYCLE   20 ..............................
........................................................................
   1    -13.3208608 -0.133209E+02  0.249E-02    2.88       0.0  T
   2    -13.3208609 -0.451311E-07  0.150E-02    2.88       2.7  T
   3    -13.3208609 -0.286691E-07  0.267E-03    2.88      15.3  T
   4    -13.3208609 -0.358726E-08  0.150E-03    2.88      27.2  T
     SCC iter.                  ...        0 min,  0.000 sec
     gradient                   ...        0 min,  0.000 sec
 * total energy  :   -13.2636840 Eh     change       -0.7730749E-04 Eh
   gradient norm :     0.0128492 Eh/α   predicted    -0.5705982E-04 ( -26.19%)
   displ. norm   :     0.0085985 α      lambda       -0.5420038E-04
   maximum displ.:     0.0059229 α      in ANC's #5, #9, #4, ...
 * RMSD in coord.:     0.1244237 α      energy gain  -0.4501843E+01 Eh

generating ANC from model Hessian ...
Using Lindh-Hessian (1995)
 Shifting diagonal of input Hessian by   1.607252289714386E-002
 Lowest  eigenvalues of input Hessian
    0.010000    0.010014   -0.000000   -0.000000    0.000000    0.000000
    0.000000    0.000000    0.041599    0.041898    0.089578    0.147110
    0.147891    0.466486    1.147710    1.152857   40.123059  120.478987
 Highest eigenvalues
    0.147891    0.466486    1.147710    1.152857   40.123059  120.478987
 

........................................................................
.............................. CYCLE   21 ..............................
........................................................................
   1    -13.3208408 -0.133208E+02  0.162E-02    2.88       0.0  T
   2    -13.3208408 -0.539916E-07  0.986E-03    2.88       4.1  T
   3    -13.3208409 -0.191856E-07  0.276E-03    2.88      14.8  T
   4    -13.3208409 -0.698988E-08  0.163E-03    2.88      25.0  T
   5    -13.3208409 -0.261143E-08  0.718E-04    2.88      56.9  T
   6    -13.3208409 -0.150509E-08  0.176E-04    2.88     232.5  T
     SCC iter.                  ...        0 min,  0.001 sec
     gradient                   ...        0 min,  0.001 sec
 * total energy  :   -13.2637211 Eh     change       -0.3703337E-04 Eh
   gradient norm :     0.0081768 Eh/α   predicted     0.0000000E+00 (-100.00%)
   displ. norm   :     0.0587252 α      lambda       -0.2694892E-03
   maximum displ.:     0.0376688 α      in ANC's #5, #4, #2, ...

........................................................................
.............................. CYCLE   22 ..............................
........................................................................
   1    -13.3229144 -0.133229E+02  0.116E-01    2.87       0.0  T
   2    -13.3229180 -0.357135E-05  0.654E-02    2.88       1.0  T
   3    -13.3229180 -0.356046E-07  0.241E-02    2.87       1.7  T
   4    -13.3229184 -0.418627E-06  0.432E-03    2.88       9.5  T
   5    -13.3229184 -0.358595E-07  0.225E-03    2.88      18.2  T
   6    -13.3229185 -0.156753E-07  0.839E-04    2.88      48.7  T
     SCC iter.                  ...        0 min,  0.001 sec
     gradient                   ...        0 min,  0.001 sec
 * total energy  :   -13.2638430 Eh     change       -0.1219477E-03 Eh
   gradient norm :     0.0148282 Eh/α   predicted    -0.1352090E-03 (  10.87%)
   displ. norm   :     0.0110251 α      lambda       -0.4697803E-04
   maximum displ.:     0.0068679 α      in ANC's #4, #2, #5, ...

........................................................................
.............................. CYCLE   23 ..............................
........................................................................
   1    -13.3234182 -0.133234E+02  0.149E-02    2.86       0.0  T
   2    -13.3234183 -0.127315E-06  0.925E-03    2.86       4.4  T
   3    -13.3234183 -0.267332E-07  0.530E-03    2.86       7.7  T
   4    -13.3234184 -0.276709E-07  0.259E-03    2.86      15.7  T
   5    -13.3234184 -0.206246E-07  0.127E-03    2.86      32.1  T
     SCC iter.                  ...        0 min,  0.001 sec
     gradient                   ...        0 min,  0.001 sec
 * total energy  :   -13.2637041 Eh     change        0.1389037E-03 Eh
   gradient norm :     0.1431347 Eh/α   predicted    -0.2349200E-04 (-116.91%)
   displ. norm   :     0.0196267 α      lambda       -0.3168752E-03
   maximum displ.:     0.0140339 α      in ANC's #2, #4, #5, ...

........................................................................
.............................. CYCLE   24 ..............................
........................................................................
   1    -13.3235623 -0.133236E+02  0.463E-02    2.88       0.0  T
   2    -13.3235623 -0.311068E-07  0.269E-02    2.88       1.5  T
   3    -13.3235623 -0.243731E-07  0.210E-03    2.88      19.4  T
   4    -13.3235623 -0.633132E-08  0.136E-03    2.88      30.0  T
     SCC iter.                  ...        0 min,  0.001 sec
     gradient                   ...        0 min,  0.000 sec
 * total energy  :   -13.2636956 Eh     change        0.8492722E-05 Eh
   gradient norm :     0.1682452 Eh/α   predicted    -0.1584996E-03 (*******%)
   displ. norm   :     0.0782857 α      lambda       -0.1460943E-02
   maximum displ.:     0.0638979 α      in ANC's #2, #5, #4, ...

........................................................................
.............................. CYCLE   25 ..............................
........................................................................
   1    -13.3221075 -0.133221E+02  0.163E-01    2.93       0.0  T
   2    -13.3221109 -0.336591E-05  0.951E-02    2.92       1.0  T
   3    -13.3221110 -0.107665E-06  0.241E-02    2.92       1.7  T
   4    -13.3221118 -0.774099E-06  0.992E-03    2.92       4.1  T
   5    -13.3221121 -0.309215E-06  0.382E-03    2.92      10.7  T
   6    -13.3221121 -0.422312E-07  0.103E-03    2.92      39.6  T
     SCC iter.                  ...        0 min,  0.001 sec
     gradient                   ...        0 min,  0.000 sec
 * total energy  :   -13.2596118 Eh     change        0.4083878E-02 Eh
   gradient norm :     0.5947314 Eh/α   predicted    -0.7349485E-03 (-118.00%)
   displ. norm   :     0.0462753 α      lambda       -0.8276393E-02
   maximum displ.:     0.0307275 α      in ANC's #2, #5, #4, ...

........................................................................
.............................. CYCLE   26 ..............................
........................................................................
   1    -13.3231865 -0.133232E+02  0.679E-02    2.86       0.0  T
   2    -13.3231886 -0.208205E-05  0.414E-02    2.87       1.0  T
   3    -13.3231889 -0.276197E-06  0.204E-02    2.87       2.0  T
   4    -13.3231892 -0.331887E-06  0.834E-03    2.87       4.9  T
   5    -13.3231895 -0.249898E-06  0.280E-03    2.87      14.6  T
   6    -13.3231895 -0.180902E-07  0.469E-04    2.87      87.1  T
     SCC iter.                  ...        0 min,  0.001 sec
     gradient                   ...        0 min,  0.000 sec
 * total energy  :   -13.2637894 Eh     change       -0.4177620E-02 Eh
   gradient norm :     0.0753230 Eh/α   predicted    -0.4147054E-02 (  -0.73%)
   displ. norm   :     0.1301982 α      lambda       -0.3496551E-03
   maximum displ.:     0.1082906 α      in ANC's #2, #4, #1, ...

........................................................................
.............................. CYCLE   27 ..............................
........................................................................
   1    -13.3228143 -0.133228E+02  0.307E-01    2.88       0.0  T
   2    -13.3228153 -0.967374E-06  0.178E-01    2.88       1.0  T
   3    -13.3228158 -0.540670E-06  0.691E-03    2.88       5.9  T
   4    -13.3228159 -0.430055E-07  0.378E-03    2.88      10.8  T
   5    -13.3228159 -0.186186E-07  0.258E-03    2.88      15.8  T
     SCC iter.                  ...        0 min,  0.001 sec
     gradient                   ...        0 min,  0.000 sec
 * total energy  :   -13.2637007 Eh     change        0.8865161E-04 Eh
   gradient norm :     0.1071898 Eh/α   predicted    -0.1777939E-03 (-300.55%)
   displ. norm   :     0.0799918 α      lambda       -0.3207246E-03
   maximum displ.:     0.0698178 α      in ANC's #2, #4, #1, ...

........................................................................
.............................. CYCLE   28 ..............................
........................................................................
   1    -13.3232651 -0.133233E+02  0.185E-01    2.88       0.0  T
   2    -13.3232654 -0.318134E-06  0.107E-01    2.88       1.0  T
   3    -13.3232656 -0.170445E-06  0.363E-03    2.88      11.2  T
   4    -13.3232656 -0.811329E-08  0.243E-03    2.88      16.8  T
     SCC iter.                  ...        0 min,  0.001 sec
     gradient                   ...        0 min,  0.000 sec
 * total energy  :   -13.2638429 Eh     change       -0.1422264E-03 Eh
   gradient norm :     0.0326893 Eh/α   predicted    -0.1613899E-03 (  13.47%)
   displ. norm   :     0.0094568 α      lambda       -0.2042665E-04
   maximum displ.:     0.0068984 α      in ANC's #2, #4, #3, ...

........................................................................
.............................. CYCLE   29 ..............................
........................................................................
   1    -13.3232964 -0.133233E+02  0.221E-02    2.88       0.0  T
   2    -13.3232964 -0.813398E-08  0.129E-02    2.88       3.2  T
   3    -13.3232965 -0.702916E-08  0.116E-03    2.88      35.2  T
   4    -13.3232965 -0.155451E-08  0.779E-04    2.88      52.4  T
     SCC iter.                  ...        0 min,  0.000 sec
     gradient                   ...        0 min,  0.000 sec
 * total energy  :   -13.2638506 Eh     change       -0.7657247E-05 Eh
   gradient norm :     0.0126076 Eh/α   predicted    -0.1021445E-04 (  33.40%)
   displ. norm   :     0.0042468 α      lambda       -0.2224376E-05
   maximum displ.:     0.0033891 α      in ANC's #4, #2, #1, ...

........................................................................
.............................. CYCLE   30 ..............................
........................................................................
   1    -13.3232653 -0.133233E+02  0.100E-02    2.88       0.0  T
   2    -13.3232653 -0.132227E-08  0.578E-03    2.88       7.1  T
   3    -13.3232653 -0.496463E-09  0.250E-04    2.88     163.0  T
   4    -13.3232653 -0.633591E-10  0.131E-04    2.88     311.1  T
     SCC iter.                  ...        0 min,  0.000 sec
     gradient                   ...        0 min,  0.000 sec
 * total energy  :   -13.2638518 Eh     change       -0.1188361E-05 Eh
   gradient norm :     0.0016000 Eh/α   predicted    -0.1112717E-05 (  -6.37%)
   displ. norm   :     0.0016525 α      lambda       -0.7722376E-07
   maximum displ.:     0.0012090 α      in ANC's #2, #4, #1, ...

........................................................................
.............................. CYCLE   31 ..............................
........................................................................
   1    -13.3232632 -0.133233E+02  0.170E-03    2.88       0.0  T
   2    -13.3232632 -0.800071E-10  0.997E-04    2.88      41.0  T
   3    -13.3232632 -0.400391E-10  0.842E-05    2.88     484.7  T
     SCC iter.                  ...        0 min,  0.000 sec
     gradient                   ...        0 min,  0.000 sec
 * total energy  :   -13.2638518 Eh     change       -0.5562857E-07 Eh
   gradient norm :     0.0004309 Eh/α   predicted    -0.3868279E-07 ( -30.46%)
   displ. norm   :     0.0019880 α      lambda       -0.1822410E-07
   maximum displ.:     0.0019348 α      in ANC's #2, #4, #3, ...

   *** GEOMETRY OPTIMIZATION CONVERGED AFTER 31 ITERATIONS ***

------------------------------------------------------------------------
 total energy gain   :        -4.5020107 Eh    -2825.0544 kcal/mol
 total RMSD          :         0.1303267 a0        0.0690 Å
 total power (kW/mol):      -381.2912084 (step)********** (real)
------------------------------------------------------------------------

 ANCopt (total)                0 d,  0 h,  0 min,  0.064 sec
 optimizer setup                ...        0 min,  0.000 sec (  0.159%)
 model hessian                  ...        0 min,  0.000 sec (  0.537%)
 ANC generation                 ...        0 min,  0.000 sec (  0.370%)
 coordinate transformation      ...        0 min,  0.000 sec (  0.633%)
 single point calculation       ...        0 min,  0.058 sec ( 90.118%)
 optimization log               ...        0 min,  0.001 sec (  2.014%)
 hessian update                 ...        0 min,  0.000 sec (  0.611%)
 rational function              ...        0 min,  0.001 sec (  2.243%)

================
 final structure:
================
6
 xtb: 6.2.3 (830e466)
F        -3.50438673284310   -0.07014784899749    0.03613739959944
Cl        1.72713485475071    0.03535052636677   -0.04048860708447
C        -0.23124981607371   -0.00041566914697    0.00701484242190
H        -0.52508964400242   -0.62287722964517   -0.82225219667212
H        -0.48472211212430   -0.42112164616776    0.96629241917857
H        -0.53735654970719    1.02710186759062   -0.10244385744329
 
 Bond Distances (Angstroems)
 ---------------------------
Cl2-C3=1.9593        C3-Cl2=1.9593        C3-H4=1.0777         C3-H5=1.0777         C3-H6=1.0777         H4-C3=1.0777         
H5-C3=1.0777         H6-C3=1.0777         
 C  H  Rav=1.0777 sigma=0.0000  Rmin=1.0777  Rmax=1.0777     3
 Cl C  Rav=1.9593 sigma=0.0000  Rmin=1.9593  Rmax=1.9593     1
 
 selected bond angles (degree)
 --------------------
H4-C3-Cl2=105.33               H5-C3-Cl2=105.30               H5-C3-H4=113.29                H6-C3-Cl2=105.31               
H6-C3-H4=113.27                H6-C3-H5=113.32                
 
 selected dihedral angles (degree)
 ---------------------------------

 
 CMA Distance (Angstroems)
 ---------------------------
R(CMA):  4.6327
           -------------------------------------------------
          |                Final Singlepoint                |
           -------------------------------------------------

          ...................................................
          :                      SETUP                      :
          :.................................................:
          :  # basis functions                  21          :
          :  # atomic orbitals                  20          :
          :  # shells                           10          :
          :  # electrons                        22          :
          :  max. iterations                   250          :
          :  Hamiltonian                  GFN2-xTB          :
          :  restarted?                      false          :
          :  GBSA solvation                   true          :
          :  PC potential                    false          :
          :  electronic temp.          300.0000000     K    :
          :  accuracy                    1.0000000          :
          :  -> integral cutoff          0.2500000E+02      :
          :  -> integral neglect         0.1000000E-07      :
          :  -> SCF convergence          0.1000000E-05 Eh   :
          :  -> wf. convergence          0.1000000E-03 e    :
          :  Broyden damping             0.4000000          :
          ...................................................

 iter      E             dE          RMSdq      gap      omega  full diag
   1    -13.3232632 -0.133233E+02  0.439E-05    2.88       0.0  T
   2    -13.3232632 -0.111022E-11  0.308E-05    2.88    1325.7  T
   3    -13.3232632 -0.930811E-12  0.204E-05    2.88    2002.0  T

   *** convergence criteria satisfied after 3 iterations ***

         #    Occupation            Energy/Eh            Energy/eV
      -------------------------------------------------------------
         1        2.0000           -1.0515615             -28.6144
       ...           ...                  ...                  ...
         5        2.0000           -0.5046212             -13.7314
         6        2.0000           -0.4835023             -13.1568
         7        2.0000           -0.4201736             -11.4335
         8        2.0000           -0.4201723             -11.4335
         9        2.0000           -0.3352323              -9.1221
        10        2.0000           -0.3346624              -9.1066
        11        2.0000           -0.3346612              -9.1066 (HOMO)
        12                         -0.2289550              -6.2302 (LUMO)
        13                          0.0268299               0.7301
        14                          0.0268500               0.7306
        15                          0.0289418               0.7875
        16                          0.0289580               0.7880
       ...                                ...                  ...
        20                          0.2302544               6.2655
      -------------------------------------------------------------
                  HL-Gap            0.1057062 Eh            2.8764 eV
             Fermi-level           -0.2818081 Eh           -7.6684 eV

 SCC (total)                   0 d,  0 h,  0 min,  0.002 sec
 SCC setup                      ...        0 min,  0.000 sec (  9.622%)
 Dispersion                     ...        0 min,  0.000 sec (  0.735%)
 integral evaluation            ...        0 min,  0.000 sec ( 23.358%)
 zeroth order Hamiltonian       ...        0 min,  0.000 sec (  1.307%)
 iterations                     ...        0 min,  0.000 sec ( 25.253%)
 molecular gradient             ...        0 min,  0.000 sec ( 30.131%)
 printout                       ...        0 min,  0.000 sec (  5.303%)

         :::::::::::::::::::::::::::::::::::::::::::::::::::::
         ::                     SUMMARY                     ::
         :::::::::::::::::::::::::::::::::::::::::::::::::::::
         :: total energy             -13.263851846928 Eh    ::
         :: total w/o Gsasa/hb       -13.261092508973 Eh    ::
         :: gradient norm              0.000430978657 Eh/a0 ::
         :: HOMO-LUMO gap              2.876411414651 eV    ::
         ::.................................................::
         :: SCC energy               -13.320374049990 Eh    ::
         :: -> isotropic ES            0.280174794550 Eh    ::
         :: -> anisotropic ES         -0.000851014881 Eh    ::
         :: -> anisotropic XC          0.004622588172 Eh    ::
         :: -> dispersion             -0.001778685341 Eh    ::
         :: -> Gsolv                  -0.138387431249 Eh    ::
         ::    -> Gborn               -0.135628093294 Eh    ::
         ::    -> Gsasa                0.001031680025 Eh    ::
         ::    -> Ghb                 -0.005648461107 Eh    ::
         ::    -> Gshift               0.001857443127 Eh    ::
         :: repulsion energy           0.056496380522 Eh    ::
         :: add. restraining           0.000026826715 Eh    ::
         :::::::::::::::::::::::::::::::::::::::::::::::::::::

           -------------------------------------------------
          |                Property Printout                |
           -------------------------------------------------

    * Orbital Energies and Occupations

         #    Occupation            Energy/Eh            Energy/eV
      -------------------------------------------------------------
         1        2.0000           -1.0515615             -28.6144
         2        2.0000           -0.6045883             -16.4517
         3        2.0000           -0.5913201             -16.0906
         4        2.0000           -0.5046786             -13.7330
         5        2.0000           -0.5046212             -13.7314
         6        2.0000           -0.4835023             -13.1568
         7        2.0000           -0.4201736             -11.4335
         8        2.0000           -0.4201723             -11.4335
         9        2.0000           -0.3352323              -9.1221
        10        2.0000           -0.3346624              -9.1066
        11        2.0000           -0.3346612              -9.1066 (HOMO)
        12                         -0.2289550              -6.2302 (LUMO)
        13                          0.0268299               0.7301
        14                          0.0268500               0.7306
        15                          0.0289418               0.7875
        16                          0.0289580               0.7880
        17                          0.0681444               1.8543
        18                          0.1464919               3.9862
        19                          0.2300929               6.2611
        20                          0.2302544               6.2655
      -------------------------------------------------------------
                  HL-Gap            0.1057062 Eh            2.8764 eV
             Fermi-level           -0.2818081 Eh           -7.6684 eV

     #   Z        covCN         q      C6AA      α(0)
     1   9 F      0.000    -0.999    24.517     5.767
     2  17 Cl     0.850    -0.250   107.039    15.827
     3   6 C      3.627    -0.028    21.502     6.680
     4   1 H      0.926     0.092     1.858     2.132
     5   1 H      0.926     0.093     1.854     2.129
     6   1 H      0.926     0.092     1.856     2.130

 Mol. C6AA /au·bohr⁶  :        569.880606
 Mol. C8AA /au·bohr⁸  :      15828.639347
 Mol. α(0) /au        :         34.665632


Wiberg/Mayer (AO) data.
largest (>0.10) Wiberg bond orders for each atom
          total WBO             WBO to atom ...
     1  F   0.002
     2  Cl  0.948        C    3 0.937
     3  C   3.902        H    4 0.988    H    6 0.988    H    5 0.988    Cl   2 0.937
     4  H   0.992        C    3 0.988
     5  H   0.991        C    3 0.988
     6  H   0.991        C    3 0.988

molecular dipole:
                 x           y           z       tot (Debye)
 q only:        5.542       0.113      -0.041
   full:        5.391       0.110      -0.041      13.705
molecular quadrupole (traceless):
                xx          xy          yy          xz          yz          zz
 q only:      -46.750      -1.408      23.365       0.780       0.014      23.385
  q+dip:      -48.241      -1.453      24.111       0.823       0.015      24.130
   full:      -47.229      -1.425      23.605       0.786       0.014      23.625

           -------------------------------------------------
          |                Geometry Summary                 |
           -------------------------------------------------

      molecular mass/u    :       69.4858989
   center of mass at/Å    :       -0.1393474      -0.0014599      -0.0089616
  moments of inertia/u·Å² :        0.3271591E+01   0.3410129E+03   0.3410171E+03
rotational constants/cm⁻¹ :        0.5152733E+01   0.4943400E-01   0.4943339E-01

 * 3 selected distances

     #   Z        #   Z                                     value/Å
     3   6 C      4   1 H                                 1.0777217 (max)
     3   6 C      5   1 H                                 1.0777083 (min)
     3   6 C      6   1 H                                 1.0777174

 * 1 distinct bonds (by element types)

   Z      Z             #   av. dist./Å        max./Å        min./Å
   1 H    6 C           3     1.0777158     1.0777217     1.0777083


optimized geometry written to: xtbopt.xyz


           -------------------------------------------------
          | TOTAL ENERGY              -13.263851846928 Eh   |
          | GRADIENT NORM               0.000430978657 Eh/α |
          | HOMO-LUMO GAP               2.876411414651 eV   |
           -------------------------------------------------

------------------------------------------------------------------------
 * finished run on 2020/08/20 at 17:46:27.430     
------------------------------------------------------------------------
 total:
 * wall-time:     0 d,  0 h,  0 min,  0.105 sec
 *  cpu-time:     0 d,  0 h,  0 min,  0.359 sec
 * ratio c/w:     3.423 speedup
 SCF:
 * wall-time:     0 d,  0 h,  0 min,  0.005 sec
 *  cpu-time:     0 d,  0 h,  0 min,  0.018 sec
 * ratio c/w:     3.977 speedup
 ANC optimizer:
 * wall-time:     0 d,  0 h,  0 min,  0.067 sec
 *  cpu-time:     0 d,  0 h,  0 min,  0.265 sec
 * ratio c/w:     3.990 speedup

