      -----------------------------------------------------------      
     |                   =====================                   |     
     |                           x T B                           |     
     |                   =====================                   |     
     |                         S. Grimme                         |     
     |          Mulliken Center for Theoretical Chemistry        |     
     |                    University of Bonn                     |     
      -----------------------------------------------------------      

   * xtb version 6.2.3 (830e466) compiled by 'ehlert@majestix' on 2020-03-16

   xtb is free software: you can redistribute it and/or modify it under
   the terms of the GNU Lesser General Public License as published by
   the Free Software Foundation, either version 3 of the License, or
   (at your option) any later version.
   
   xtb is distributed in the hope that it will be useful,
   but WITHOUT ANY WARRANTY; without even the implied warranty of
   MERCHANTABILITY or FITNESS FOR A PARTICULAR PURPOSE.  See the
   GNU Lesser General Public License for more details.
   
   Cite this work as:
   * S. Grimme, C. Bannwarth, P. Shushkov, J. Chem. Theory Comput., 2017,
     13, 1989-2009. DOI: 10.1021/acs.jctc.7b00118
   * C. Bannwarth, S. Ehlert and S. Grimme., J. Chem. Theory Comput., 2019,
     15, 1652-1671. DOI: 10.1021/acs.jctc.8b01176
   * P. Pracht, E. Caldeweyher, S. Ehlert, S. Grimme, ChemRxiv, 2019, preprint.
     DOI: 10.26434/chemrxiv.8326202.v1
   
   for DFT-D4:
   * E. Caldeweyher, C. Bannwarth and S. Grimme, J. Chem. Phys., 2017,
     147, 034112. DOI: 10.1063/1.4993215
   * E. Caldeweyher, S. Ehlert, A. Hansen, H. Neugebauer, S. Spicher,
     C. Bannwarth and S. Grimme, J. Chem. Phys., 2019, 150, 154122.
     DOI: 10.1063/1.5090222
   
   for sTDA-xTB:
   * S. Grimme and C. Bannwarth, J. Chem. Phys., 2016, 145, 054103.
     DOI: 10.1063/1.4959605
   
   in the mass-spec context:
   * V. Asgeirsson, C. Bauer and S. Grimme, Chem. Sci., 2017, 8, 4879.
     DOI: 10.1039/c7sc00601b
   
   for metadynamics refer to:
   * S. Grimme, J. Chem. Theory Comput., 2019, 155, 2847-2862
     DOI: 10.1021/acs.jctc.9b00143
   
   with help from (in alphabetical order)
   C. Bannwarth, F. Bohle, G. Brandenburg, E. Caldeweyher, M. Checinski,
   S. Dohm, S. Ehlert, S. Ehrlich, F. März, H. Neugebauer, J. Pisarek,
   P. Pracht, P. Shushkov, and S. Spicher.
   
 * started run on 2020/08/20 at 17:46:30.789     

           -------------------------------------------------
          |                Calculation Setup                |
           -------------------------------------------------

          program call               : /u/fd/ball4935/opt/bin/xtb 8_4_xtb.xyz --chrg -1 --grad --gbsa Water
          hostname                   : comp0810
          coordinate file            : 8_4_xtb.xyz
          omp threads                :                     1
          number of atoms            :                     6
          number of electrons        :                    22
          charge                     :                    -1
          spin                       :                   0.0
          first test random number   :      0.52355902618846


molecular fragmentation (1/2 indicates fragments):
121111
# atoms in fragment 1/2:     5     1
 fragment masses (1/2) :       34.03       35.45
CMA distance (Bohr)    :   7.022
constraining FC (au)   :  0.0500
########################################################################
[WARNING] Please study the warnings concerning your input carefully
-2- prog_main: XTBPATH is not set, using XTBHOME instead
-1- prog_main: XTBHOME is not set, using HOME instead
########################################################################
           ------------------------------------------------- 
          |                 G F N 2 - x T B                 |
          | Geometry, Frequencies, Noncovalent interactions |
          |            JCTC 2019 parametrisation            |
           ------------------------------------------------- 
             k(s)              :                1.8500
             k(p)              :                2.2300
             k(d)              :                2.2300
             k(f)              :                2.0000
             kEN (H0ij)        :               -2.0000
             D4 a1             :                0.5200
             D4 a2             :                5.0000
             D4 s6             :                1.0000
             D4 s8             :                2.7000
             D4 s9             :                5.0000
             alphaj            :                2.0000

  Z AO/shell   Hii/eV     exponent
  1     Wed Apr 25 08:07:45 CEST 2018   EN: 2.200 GM2: 0.406  GM3: 0.0800  RAES: 1.40
     1s    -10.707211    1.230000
  6     Wed Apr 25 08:07:45 CEST 2018   EN: 2.550 GM2: 0.538  GM3: 0.1500  RAES: 3.00
     2s    -13.970922    2.096432
     2p    -10.063292    1.800000
  9     Mon Apr 23 13:58:50 CEST 2018   EN: 3.980 GM2: 0.532  GM3: 0.1426  RAES: 2.40
     2s    -23.458179    2.416361
     2p    -15.746583    2.308399
 17     Mon Apr 23 14:09:22 CEST 2018   EN: 3.160 GM2: 0.249  GM3: 0.1495  RAES: 2.50
     3s    -29.278781    2.485265
     3p    -12.673758    2.199650
     3d     -0.240338    2.476089

 Solvent             : Water
 Using internal parameter file: .param_gbsa2_Water
 Gsolv ref. state (COSMO-RS): gsolv [1 M gas/solution]
 temperature (mdtemp)       :    298.150000000000     
 dielectric constant        :    80.2000000000000     
 rho                        :    1.00000000000000     
 mass                       :    18.0000000000000     
 surface tension            :    15.5689454083859     
 probe radius               :   0.975313790000000     
 Gshift (Eh)                :   1.857443126794793E-003
 c1                         :    1.55243817000000     
 soset                      :   0.130326360000000     
 HB correction              :  T
           ------------------------------------------------- 
          |        Self-Consistent Charge Iterations        |
           ------------------------------------------------- 

          ...................................................
          :                      SETUP                      :
          :.................................................:
          :  # basis functions                  21          :
          :  # atomic orbitals                  20          :
          :  # shells                           10          :
          :  # electrons                        22          :
          :  max. iterations                   250          :
          :  Hamiltonian                  GFN2-xTB          :
          :  restarted?                      false          :
          :  GBSA solvation                   true          :
          :  PC potential                    false          :
          :  electronic temp.          300.0000000     K    :
          :  accuracy                    1.0000000          :
          :  -> integral cutoff          0.2500000E+02      :
          :  -> integral neglect         0.1000000E-07      :
          :  -> SCF convergence          0.1000000E-05 Eh   :
          :  -> wf. convergence          0.1000000E-03 e    :
          :  Broyden damping             0.4000000          :
          ...................................................

 iter      E             dE          RMSdq      gap      omega  full diag
   1    -13.3010311 -0.133010E+02  0.547E+00   12.41       0.0  T
   2    -13.3549861 -0.539550E-01  0.275E+00   12.39       1.0  T
   3    -13.3557527 -0.766676E-03  0.145E+00   11.99       1.0  T
   4    -13.3559100 -0.157278E-03  0.164E-01   11.80       1.0  T
   5    -13.3559389 -0.288453E-04  0.746E-02   11.88       1.0  T
   6    -13.3559434 -0.452340E-05  0.561E-02   11.89       1.0  T
   7    -13.3559497 -0.628672E-05  0.152E-02   11.90       2.7  T
   8    -13.3559497  0.357756E-08  0.373E-03   11.90      11.0  T
   9    -13.3559497 -0.500144E-07  0.441E-04   11.90      92.7  T
  10    -13.3559497 -0.631335E-10  0.799E-05   11.90     511.0  T

   *** convergence criteria satisfied after 10 iterations ***

         #    Occupation            Energy/Eh            Energy/eV
      -------------------------------------------------------------
         1        2.0000           -0.9861456             -26.8344
       ...           ...                  ...                  ...
         5        2.0000           -0.5341807             -14.5358
         6        2.0000           -0.5341583             -14.5352
         7        2.0000           -0.4565299             -12.4228
         8        2.0000           -0.4564488             -12.4206
         9        2.0000           -0.3889863             -10.5849
        10        2.0000           -0.3885390             -10.5727
        11        2.0000           -0.3885383             -10.5727 (HOMO)
        12                          0.0487568               1.3267 (LUMO)
        13                          0.1402839               3.8173
        14                          0.1403077               3.8180
        15                          0.1409967               3.8367
        16                          0.1417308               3.8567
       ...                                ...                  ...
        20                          0.2265203               6.1639
      -------------------------------------------------------------
                  HL-Gap            0.4372950 Eh           11.8994 eV
             Fermi-level           -0.1698907 Eh           -4.6230 eV

 SCC (total)                   0 d,  0 h,  0 min,  0.006 sec
 SCC setup                      ...        0 min,  0.000 sec (  4.686%)
 Dispersion                     ...        0 min,  0.000 sec (  0.486%)
 integral evaluation            ...        0 min,  0.001 sec ( 17.938%)
 zeroth order Hamiltonian       ...        0 min,  0.000 sec (  0.663%)
 iterations                     ...        0 min,  0.003 sec ( 54.763%)
 molecular gradient             ...        0 min,  0.001 sec ( 18.829%)
 printout                       ...        0 min,  0.000 sec (  1.877%)

         :::::::::::::::::::::::::::::::::::::::::::::::::::::
         ::                     SUMMARY                     ::
         :::::::::::::::::::::::::::::::::::::::::::::::::::::
         :: total energy             -13.290168964355 Eh    ::
         :: total w/o Gsasa/hb       -13.290577854099 Eh    ::
         :: gradient norm              0.015709700486 Eh/a0 ::
         :: HOMO-LUMO gap             11.899403827809 eV    ::
         ::.................................................::
         :: SCC energy               -13.353757345130 Eh    ::
         :: -> isotropic ES            0.164214980209 Eh    ::
         :: -> anisotropic ES         -0.001181392142 Eh    ::
         :: -> anisotropic XC         -0.002016833804 Eh    ::
         :: -> dispersion             -0.001895826322 Eh    ::
         :: -> Gsolv                  -0.098628543165 Eh    ::
         ::    -> Gborn               -0.099037432909 Eh    ::
         ::    -> Gsasa                0.000334937630 Eh    ::
         ::    -> Ghb                 -0.001783491013 Eh    ::
         ::    -> Gshift               0.001857443127 Eh    ::
         :: repulsion energy           0.063588499255 Eh    ::
         :: add. restraining           0.000000000000 Eh    ::
         :::::::::::::::::::::::::::::::::::::::::::::::::::::

           -------------------------------------------------
          |                Property Printout                |
           -------------------------------------------------

    * Orbital Energies and Occupations

         #    Occupation            Energy/Eh            Energy/eV
      -------------------------------------------------------------
         1        2.0000           -0.9861456             -26.8344
         2        2.0000           -0.8116408             -22.0859
         3        2.0000           -0.6099473             -16.5975
         4        2.0000           -0.5357740             -14.5792
         5        2.0000           -0.5341807             -14.5358
         6        2.0000           -0.5341583             -14.5352
         7        2.0000           -0.4565299             -12.4228
         8        2.0000           -0.4564488             -12.4206
         9        2.0000           -0.3889863             -10.5849
        10        2.0000           -0.3885390             -10.5727
        11        2.0000           -0.3885383             -10.5727 (HOMO)
        12                          0.0487568               1.3267 (LUMO)
        13                          0.1402839               3.8173
        14                          0.1403077               3.8180
        15                          0.1409967               3.8367
        16                          0.1417308               3.8567
        17                          0.1417317               3.8567
        18                          0.1714781               4.6662
        19                          0.2243002               6.1035
        20                          0.2265203               6.1639
      -------------------------------------------------------------
                  HL-Gap            0.4372950 Eh           11.8994 eV
             Fermi-level           -0.1698907 Eh           -4.6230 eV

     #   Z        covCN         q      C6AA      α(0)
     1   9 F      0.782    -0.280    12.097     4.108
     2  17 Cl     0.001    -0.996   126.858    17.141
     3   6 C      3.561     0.080    20.087     6.534
     4   1 H      0.926     0.066     2.132     2.283
     5   1 H      0.926     0.065     2.137     2.286
     6   1 H      0.926     0.066     2.134     2.284

 Mol. C6AA /au·bohr⁶  :        552.296044
 Mol. C8AA /au·bohr⁸  :      15885.034449
 Mol. α(0) /au        :         34.637359


Wiberg/Mayer (AO) data.
largest (>0.10) Wiberg bond orders for each atom
          total WBO             WBO to atom ...
     1  F   0.971        C    3 0.927
     2  Cl  0.007
     3  C   3.876        H    5 0.981    H    6 0.981    H    4 0.981    F    1 0.927
     4  H   0.996        C    3 0.981
     5  H   0.996        C    3 0.981
     6  H   0.996        C    3 0.981

molecular dipole:
                 x           y           z       tot (Debye)
 q only:       -2.780      -0.071       0.025
   full:       -2.606      -0.067       0.022       6.627
molecular quadrupole (traceless):
                xx          xy          yy          xz          yz          zz
 q only:      -18.948      -0.659       9.468       0.330       0.008       9.479
  q+dip:      -21.442      -0.737      10.714       0.385       0.005      10.728
   full:      -20.714      -0.713      10.350       0.372       0.007      10.363


           -------------------------------------------------
          | TOTAL ENERGY              -13.290168964355 Eh   |
          | GRADIENT NORM               0.015709700486 Eh/α |
          | HOMO-LUMO GAP              11.899403827809 eV   |
           -------------------------------------------------

------------------------------------------------------------------------
 * finished run on 2020/08/20 at 17:46:30.843     
------------------------------------------------------------------------
 total:
 * wall-time:     0 d,  0 h,  0 min,  0.053 sec
 *  cpu-time:     0 d,  0 h,  0 min,  0.016 sec
 * ratio c/w:     0.305 speedup
 SCF:
 * wall-time:     0 d,  0 h,  0 min,  0.006 sec
 *  cpu-time:     0 d,  0 h,  0 min,  0.006 sec
 * ratio c/w:     0.998 speedup

