      -----------------------------------------------------------      
     |                   =====================                   |     
     |                           x T B                           |     
     |                   =====================                   |     
     |                         S. Grimme                         |     
     |          Mulliken Center for Theoretical Chemistry        |     
     |                    University of Bonn                     |     
      -----------------------------------------------------------      

   * xtb version 6.2.3 (830e466) compiled by 'ehlert@majestix' on 2020-03-16

   xtb is free software: you can redistribute it and/or modify it under
   the terms of the GNU Lesser General Public License as published by
   the Free Software Foundation, either version 3 of the License, or
   (at your option) any later version.
   
   xtb is distributed in the hope that it will be useful,
   but WITHOUT ANY WARRANTY; without even the implied warranty of
   MERCHANTABILITY or FITNESS FOR A PARTICULAR PURPOSE.  See the
   GNU Lesser General Public License for more details.
   
   Cite this work as:
   * S. Grimme, C. Bannwarth, P. Shushkov, J. Chem. Theory Comput., 2017,
     13, 1989-2009. DOI: 10.1021/acs.jctc.7b00118
   * C. Bannwarth, S. Ehlert and S. Grimme., J. Chem. Theory Comput., 2019,
     15, 1652-1671. DOI: 10.1021/acs.jctc.8b01176
   * P. Pracht, E. Caldeweyher, S. Ehlert, S. Grimme, ChemRxiv, 2019, preprint.
     DOI: 10.26434/chemrxiv.8326202.v1
   
   for DFT-D4:
   * E. Caldeweyher, C. Bannwarth and S. Grimme, J. Chem. Phys., 2017,
     147, 034112. DOI: 10.1063/1.4993215
   * E. Caldeweyher, S. Ehlert, A. Hansen, H. Neugebauer, S. Spicher,
     C. Bannwarth and S. Grimme, J. Chem. Phys., 2019, 150, 154122.
     DOI: 10.1063/1.5090222
   
   for sTDA-xTB:
   * S. Grimme and C. Bannwarth, J. Chem. Phys., 2016, 145, 054103.
     DOI: 10.1063/1.4959605
   
   in the mass-spec context:
   * V. Asgeirsson, C. Bauer and S. Grimme, Chem. Sci., 2017, 8, 4879.
     DOI: 10.1039/c7sc00601b
   
   for metadynamics refer to:
   * S. Grimme, J. Chem. Theory Comput., 2019, 155, 2847-2862
     DOI: 10.1021/acs.jctc.9b00143
   
   with help from (in alphabetical order)
   C. Bannwarth, F. Bohle, G. Brandenburg, E. Caldeweyher, M. Checinski,
   S. Dohm, S. Ehlert, S. Ehrlich, F. März, H. Neugebauer, J. Pisarek,
   P. Pracht, P. Shushkov, and S. Spicher.
   
 * started run on 2020/08/20 at 17:46:31.516     

           -------------------------------------------------
          |                Calculation Setup                |
           -------------------------------------------------

          program call               : /u/fd/ball4935/opt/bin/xtb 8_6_xtb.xyz --chrg -1 --grad --gbsa Water
          hostname                   : comp0810
          coordinate file            : 8_6_xtb.xyz
          omp threads                :                     1
          number of atoms            :                     6
          number of electrons        :                    22
          charge                     :                    -1
          spin                       :                   0.0
          first test random number   :      0.35894957813933


molecular fragmentation (1/2 indicates fragments):
121111
# atoms in fragment 1/2:     5     1
 fragment masses (1/2) :       34.03       35.45
CMA distance (Bohr)    :   7.031
constraining FC (au)   :  0.0500
########################################################################
[WARNING] Please study the warnings concerning your input carefully
-2- prog_main: XTBPATH is not set, using XTBHOME instead
-1- prog_main: XTBHOME is not set, using HOME instead
########################################################################
           ------------------------------------------------- 
          |                 G F N 2 - x T B                 |
          | Geometry, Frequencies, Noncovalent interactions |
          |            JCTC 2019 parametrisation            |
           ------------------------------------------------- 
             k(s)              :                1.8500
             k(p)              :                2.2300
             k(d)              :                2.2300
             k(f)              :                2.0000
             kEN (H0ij)        :               -2.0000
             D4 a1             :                0.5200
             D4 a2             :                5.0000
             D4 s6             :                1.0000
             D4 s8             :                2.7000
             D4 s9             :                5.0000
             alphaj            :                2.0000

  Z AO/shell   Hii/eV     exponent
  1     Wed Apr 25 08:07:45 CEST 2018   EN: 2.200 GM2: 0.406  GM3: 0.0800  RAES: 1.40
     1s    -10.707211    1.230000
  6     Wed Apr 25 08:07:45 CEST 2018   EN: 2.550 GM2: 0.538  GM3: 0.1500  RAES: 3.00
     2s    -13.970922    2.096432
     2p    -10.063292    1.800000
  9     Mon Apr 23 13:58:50 CEST 2018   EN: 3.980 GM2: 0.532  GM3: 0.1426  RAES: 2.40
     2s    -23.458179    2.416361
     2p    -15.746583    2.308399
 17     Mon Apr 23 14:09:22 CEST 2018   EN: 3.160 GM2: 0.249  GM3: 0.1495  RAES: 2.50
     3s    -29.278781    2.485265
     3p    -12.673758    2.199650
     3d     -0.240338    2.476089

 Solvent             : Water
 Using internal parameter file: .param_gbsa2_Water
 Gsolv ref. state (COSMO-RS): gsolv [1 M gas/solution]
 temperature (mdtemp)       :    298.150000000000     
 dielectric constant        :    80.2000000000000     
 rho                        :    1.00000000000000     
 mass                       :    18.0000000000000     
 surface tension            :    15.5689454083859     
 probe radius               :   0.975313790000000     
 Gshift (Eh)                :   1.857443126794793E-003
 c1                         :    1.55243817000000     
 soset                      :   0.130326360000000     
 HB correction              :  T
           ------------------------------------------------- 
          |        Self-Consistent Charge Iterations        |
           ------------------------------------------------- 

          ...................................................
          :                      SETUP                      :
          :.................................................:
          :  # basis functions                  21          :
          :  # atomic orbitals                  20          :
          :  # shells                           10          :
          :  # electrons                        22          :
          :  max. iterations                   250          :
          :  Hamiltonian                  GFN2-xTB          :
          :  restarted?                      false          :
          :  GBSA solvation                   true          :
          :  PC potential                    false          :
          :  electronic temp.          300.0000000     K    :
          :  accuracy                    1.0000000          :
          :  -> integral cutoff          0.2500000E+02      :
          :  -> integral neglect         0.1000000E-07      :
          :  -> SCF convergence          0.1000000E-05 Eh   :
          :  -> wf. convergence          0.1000000E-03 e    :
          :  Broyden damping             0.4000000          :
          ...................................................

 iter      E             dE          RMSdq      gap      omega  full diag
   1    -13.3151579 -0.133152E+02  0.575E+00   11.29       0.0  T
   2    -13.3667925 -0.516346E-01  0.274E+00    9.11       1.0  T
   3    -13.3676238 -0.831303E-03  0.139E+00    8.66       1.0  T
   4    -13.3677929 -0.169089E-03  0.184E-01    8.46       1.0  T
   5    -13.3678261 -0.331950E-04  0.862E-02    8.55       1.0  T
   6    -13.3678341 -0.801455E-05  0.570E-02    8.57       1.0  T
   7    -13.3678407 -0.655673E-05  0.164E-02    8.58       2.5  T
   8    -13.3678407 -0.212961E-07  0.265E-03    8.58      15.4  T
   9    -13.3678407 -0.252904E-07  0.442E-04    8.58      92.3  T
  10    -13.3678407 -0.498570E-10  0.110E-04    8.58     371.7  T

   *** convergence criteria satisfied after 10 iterations ***

         #    Occupation            Energy/Eh            Energy/eV
      -------------------------------------------------------------
         1        2.0000           -0.9857824             -26.8245
       ...           ...                  ...                  ...
         5        2.0000           -0.5268515             -14.3364
         6        2.0000           -0.5251095             -14.2890
         7        2.0000           -0.4594144             -12.5013
         8        2.0000           -0.4591910             -12.4952
         9        2.0000           -0.3888969             -10.5824
        10        2.0000           -0.3881194             -10.5613
        11        2.0000           -0.3881175             -10.5612 (HOMO)
        12                         -0.0729869              -1.9861 (LUMO)
        13                          0.1406582               3.8275
        14                          0.1406651               3.8277
        15                          0.1411262               3.8402
        16                          0.1417716               3.8578
       ...                                ...                  ...
        20                          0.3417647               9.2999
      -------------------------------------------------------------
                  HL-Gap            0.3151306 Eh            8.5751 eV
             Fermi-level           -0.2305522 Eh           -6.2736 eV

 SCC (total)                   0 d,  0 h,  0 min,  0.006 sec
 SCC setup                      ...        0 min,  0.000 sec (  4.967%)
 Dispersion                     ...        0 min,  0.000 sec (  0.502%)
 integral evaluation            ...        0 min,  0.001 sec ( 18.046%)
 zeroth order Hamiltonian       ...        0 min,  0.000 sec (  0.486%)
 iterations                     ...        0 min,  0.003 sec ( 54.110%)
 molecular gradient             ...        0 min,  0.001 sec ( 19.068%)
 printout                       ...        0 min,  0.000 sec (  1.926%)

         :::::::::::::::::::::::::::::::::::::::::::::::::::::
         ::                     SUMMARY                     ::
         :::::::::::::::::::::::::::::::::::::::::::::::::::::
         :: total energy             -13.278622037466 Eh    ::
         :: total w/o Gsasa/hb       -13.278749800213 Eh    ::
         :: gradient norm              0.115598186259 Eh/a0 ::
         :: HOMO-LUMO gap              8.575138962874 eV    ::
         ::.................................................::
         :: SCC energy               -13.365599882435 Eh    ::
         :: -> isotropic ES            0.167532148684 Eh    ::
         :: -> anisotropic ES         -0.001575314383 Eh    ::
         :: -> anisotropic XC         -0.000632593626 Eh    ::
         :: -> dispersion             -0.001840251550 Eh    ::
         :: -> Gsolv                  -0.098055989237 Eh    ::
         ::    -> Gborn               -0.098183751984 Eh    ::
         ::    -> Gsasa                0.000383403447 Eh    ::
         ::    -> Ghb                 -0.002113083827 Eh    ::
         ::    -> Gshift               0.001857443127 Eh    ::
         :: repulsion energy           0.086977998047 Eh    ::
         :: add. restraining           0.000000000000 Eh    ::
         :::::::::::::::::::::::::::::::::::::::::::::::::::::

           -------------------------------------------------
          |                Property Printout                |
           -------------------------------------------------

    * Orbital Energies and Occupations

         #    Occupation            Energy/Eh            Energy/eV
      -------------------------------------------------------------
         1        2.0000           -0.9857824             -26.8245
         2        2.0000           -0.7936553             -21.5965
         3        2.0000           -0.6118164             -16.6484
         4        2.0000           -0.5271654             -14.3449
         5        2.0000           -0.5268515             -14.3364
         6        2.0000           -0.5251095             -14.2890
         7        2.0000           -0.4594144             -12.5013
         8        2.0000           -0.4591910             -12.4952
         9        2.0000           -0.3888969             -10.5824
        10        2.0000           -0.3881194             -10.5613
        11        2.0000           -0.3881175             -10.5612 (HOMO)
        12                         -0.0729869              -1.9861 (LUMO)
        13                          0.1406582               3.8275
        14                          0.1406651               3.8277
        15                          0.1411262               3.8402
        16                          0.1417716               3.8578
        17                          0.1417725               3.8578
        18                          0.2381883               6.4814
        19                          0.3315250               9.0213
        20                          0.3417647               9.2999
      -------------------------------------------------------------
                  HL-Gap            0.3151306 Eh            8.5751 eV
             Fermi-level           -0.2305522 Eh           -6.2736 eV

     #   Z        covCN         q      C6AA      α(0)
     1   9 F      0.773    -0.327    12.630     4.198
     2  17 Cl     0.003    -0.994   126.757    17.134
     3   6 C      3.563     0.058    20.434     6.588
     4   1 H      0.929     0.087     1.909     2.160
     5   1 H      0.929     0.088     1.899     2.155
     6   1 H      0.929     0.087     1.906     2.159

 Mol. C6AA /au·bohr⁶  :        546.023549
 Mol. C8AA /au·bohr⁸  :      15795.008610
 Mol. α(0) /au        :         34.394362


Wiberg/Mayer (AO) data.
largest (>0.10) Wiberg bond orders for each atom
          total WBO             WBO to atom ...
     1  F   0.914        C    3 0.891
     2  Cl  0.012
     3  C   3.856        H    6 0.986    H    4 0.986    H    5 0.986    F    1 0.891
     4  H   0.992        C    3 0.986
     5  H   0.992        C    3 0.986
     6  H   0.992        C    3 0.986

molecular dipole:
                 x           y           z       tot (Debye)
 q only:       -2.633      -0.066       0.030
   full:       -2.458      -0.062       0.028       6.249
molecular quadrupole (traceless):
                xx          xy          yy          xz          yz          zz
 q only:      -20.330      -0.701      10.158       0.352       0.006      10.172
  q+dip:      -22.575      -0.772      11.281       0.390       0.006      11.294
   full:      -21.784      -0.746      10.885       0.377       0.006      10.899


           -------------------------------------------------
          | TOTAL ENERGY              -13.278622037466 Eh   |
          | GRADIENT NORM               0.115598186259 Eh/α |
          | HOMO-LUMO GAP               8.575138962874 eV   |
           -------------------------------------------------

------------------------------------------------------------------------
 * finished run on 2020/08/20 at 17:46:31.581     
------------------------------------------------------------------------
 total:
 * wall-time:     0 d,  0 h,  0 min,  0.065 sec
 *  cpu-time:     0 d,  0 h,  0 min,  0.016 sec
 * ratio c/w:     0.251 speedup
 SCF:
 * wall-time:     0 d,  0 h,  0 min,  0.006 sec
 *  cpu-time:     0 d,  0 h,  0 min,  0.006 sec
 * ratio c/w:     0.998 speedup

