
                                 *****************
                                 * O   R   C   A *
                                 *****************

           --- An Ab Initio, DFT and Semiempirical electronic structure package ---

                  #######################################################
                  #                        -***-                        #
                  #          Department of theory and spectroscopy      #
                  #               Directorship: Frank Neese             #
                  #        Max Planck Institute fuer Kohlenforschung    #
                  #                Kaiser Wilhelm Platz 1               #
                  #                 D-45470 Muelheim/Ruhr               #
                  #                      Germany                        #
                  #                                                     #
                  #                  All rights reserved                #
                  #                        -***-                        #
                  #######################################################


                         Program Version 4.1.1  - RELEASE  -


 With contributions from (in alphabetic order):
   Daniel Aravena         : Magnetic Properties
   Michael Atanasov       : Ab Initio Ligand Field Theory
   Alexander A. Auer      : GIAO ZORA
   Ute Becker             : Parallelization
   Giovanni Bistoni       : ED, Open-shell LED
   Martin Brehm           : Molecular dynamics
   Dmytro Bykov           : SCF Hessian
   Vijay G. Chilkuri      : MRCI spin determinant printing
   Dipayan Datta          : RHF DLPNO-CCSD density
   Achintya Kumar Dutta   : EOM-CC, STEOM-CC
   Dmitry Ganyushin       : Spin-Orbit,Spin-Spin,Magnetic field MRCI
   Miquel Garcia          : C-PCM Hessian
   Yang Guo               : DLPNO-NEVPT2, CIM, IAO-localization
   Andreas Hansen         : Spin unrestricted coupled pair/coupled cluster methods
   Benjamin Helmich-Paris : CASSCF linear response (MC-RPA)
   Lee Huntington         : MR-EOM, pCC
   Robert Izsak           : Overlap fitted RIJCOSX, COSX-SCS-MP3, EOM
   Christian Kollmar      : KDIIS, OOCD, Brueckner-CCSD(T), CCSD density
   Simone Kossmann        : Meta GGA functionals, TD-DFT gradient, OOMP2, MP2 Hessian
   Martin Krupicka        : AUTO-CI
   Lucas Lang             : DCDCAS
   Dagmar Lenk            : GEPOL surface, SMD
   Dimitrios Liakos       : Extrapolation schemes; parallel MDCI
   Dimitrios Manganas     : ROCIS; embedding schemes
   Dimitrios Pantazis     : SARC Basis sets
   Taras Petrenko         : DFT Hessian,TD-DFT gradient, ASA, ECA, R-Raman, ABS, FL, XAS/XES, NRVS
   Peter Pinski           : DLPNO-MP2, DLPNO-MP2 Gradient
   Christoph Reimann      : Effective Core Potentials
   Marius Retegan         : Local ZFS, SOC
   Christoph Riplinger    : Optimizer, TS searches, QM/MM, DLPNO-CCSD(T), (RO)-DLPNO pert. Triples
   Tobias Risthaus        : Range-separated hybrids, TD-DFT gradient, RPA, STAB
   Michael Roemelt        : Restricted open shell CIS
   Masaaki Saitow         : Open-shell DLPNO
   Barbara Sandhoefer     : DKH picture change effects
   Avijit Sen             : IP-ROCIS
   Kantharuban Sivalingam : CASSCF convergence, NEVPT2, FIC-MRCI
   Bernardo de Souza      : ESD, SOC TD-DFT
   Georgi Stoychev        : AutoAux, RI-MP2 NMR
   Willem Van den Heuvel  : Paramagnetic NMR
   Boris Wezisla          : Elementary symmetry handling
   Frank Wennmohs         : Technical directorship


 We gratefully acknowledge several colleagues who have allowed us to
 interface, adapt or use parts of their codes:
   Stefan Grimme, W. Hujo, H. Kruse,             : VdW corrections, initial TS optimization,
                  C. Bannwarth                     DFT functionals, gCP, sTDA/sTD-DF
   Ed Valeev                                     : LibInt (2-el integral package), F12 methods
   Garnet Chan, S. Sharma, J. Yang, R. Olivares  : DMRG
   Ulf Ekstrom                                   : XCFun DFT Library
   Mihaly Kallay                                 : mrcc  (arbitrary order and MRCC methods)
   Andreas Klamt, Michael Diedenhofen            : otool_cosmo (COSMO solvation model)
   Jiri Pittner, Ondrej Demel                    : Mk-CCSD
   Frank Weinhold                                : gennbo (NPA and NBO analysis)
   Christopher J. Cramer and Donald G. Truhlar   : smd solvation model
   Lars Goerigk                                  : TD-DFT with DH, B97 family of functionals
   V. Asgeirsson, H. Jonsson                     : NEB implementation
   FAccTs GmbH                                   : IRC, NEB, NEB-TS, Multilevel


 Your calculation uses the libint2 library for the computation of 2-el integrals
 For citations please refer to: http://libint.valeyev.net

 This ORCA versions uses:
   CBLAS   interface :  Fast vector & matrix operations
   LAPACKE interface :  Fast linear algebra routines
   SCALAPACK package :  Parallel linear algebra routines


Your calculation utilizes the atom-pairwise dispersion correction
with the Becke-Johnson damping scheme (D3BJ)
Cite in your paper:
S.Grimme, S.Ehrlich, L.Goerigk, J Comput Chem, (2011), 32, 1456–1465 
S.Grimme, J.Antony, S.Ehrlich and H.Krieg, J.Chem.Phys., 132, (2010), 154104 
   

----- Orbital basis set information -----
Your calculation utilizes the basis: def2-SVP
   F. Weigend and R. Ahlrichs, Phys. Chem. Chem. Phys. 7, 3297 (2005).

----- AuxJ basis set information -----
Your calculation utilizes the auxiliary basis: def2/J
   F. Weigend, Phys. Chem. Chem. Phys. 8, 1057 (2006).

================================================================================
                                        WARNINGS
                       Please study these warnings very carefully!
================================================================================


WARNING: Geometry Optimization
  ===> : Switching off AutoStart
         For restart on a previous wavefunction, please use MOREAD

INFO   : the flag for use of LIBINT has been found!

================================================================================
                                       INPUT FILE
================================================================================
NAME = get_xtb_ts_guess_forming_bond_TS_orca_opt.inp
|  1> ! OptTS Freq PBE0 RIJCOSX D3BJ def2-SVP def2/J PAL8
|  2> %geom
|  3> Calc_Hess true
|  4> Recalc_Hess 40
|  5> Trust 0.2
|  6> MaxIter 100
|  7> end
|  8> %geom
|  9> modify_internal
| 10> { B 0 6 A } end
| 11> end
| 12> %scf 
| 13> maxiter 250 
| 14> end
| 15> % maxcore 4000
| 16> *xyz 0 1
| 17> C	0.685621848869	0.677068662171	-0.887609765782
| 18> C	1.307411046561	-0.265442575836	-0.024237759617
| 19> C	0.765985420683	-0.364639994596	1.294997554613
| 20> O	0.617233954291	0.833016919602	2.021222129168
| 21> C	-0.853743818423	-0.879150879503	1.118225506387
| 22> C	-1.468615903856	0.084283371703	0.268544925847
| 23> C	-0.962745351084	0.183880657266	-1.052824213191
| 24> H	0.585295617231	1.674335059881	-0.469571951621
| 25> H	1.076852576669	0.710223853726	-1.899214820663
| 26> H	1.707772040444	-1.173771471528	-0.451805118663
| 27> H	1.238866787282	-1.135929055466	1.917758992991
| 28> H	1.463993793043	1.29070938728	2.027524970319
| 29> H	-0.753982475878	-1.875024925251	0.694863877557
| 30> H	-1.239174782482	-0.912364170263	2.131466728047
| 31> H	-1.878358691053	0.970961335514	0.729650992788
| 32> H	-1.421881588696	0.942703540447	-1.677846828033
| 33> H	-0.8705304736	-0.760759715149	-1.581345220148
| 34> *
| 35> 
| 36>                          ****END OF INPUT****
================================================================================

                       *****************************
                       * Geometry Optimization Run *
                       *****************************

Geometry optimization settings:
Update method            Update   .... Bofill
Choice of coordinates    CoordSys .... Z-matrix Internals
Initial Hessian          InHess   .... Almoef's Model

Convergence Tolerances:
Energy Change            TolE     ....  5.0000e-06 Eh
Max. Gradient            TolMAXG  ....  3.0000e-04 Eh/bohr
RMS Gradient             TolRMSG  ....  1.0000e-04 Eh/bohr
Max. Displacement        TolMAXD  ....  4.0000e-03 bohr
RMS Displacement         TolRMSD  ....  2.0000e-03 bohr

------------------------------------------------------------------------------
                        ORCA OPTIMIZATION COORDINATE SETUP
------------------------------------------------------------------------------

The optimization will be done in new redundant internal coordinates
Making redundant internal coordinates   ...  (new redundants) Bond   6,  0 is already included
done
Following TS mode number                ...     0
Evaluating the initial hessian          ...  (Is done on the fly) done
Evaluating the coordinates              ...  done
Calculating the B-matrix                .... done
Calculating the G-matrix                .... done
Diagonalizing the G-matrix              .... done
The first mode is                       ....   48
The number of degrees of freedom        ....   45

    -----------------------------------------------------------------
                    Redundant Internal Coordinates


    -----------------------------------------------------------------
         Definition                    Initial Value    d2E/dq (diagonal element)
    -----------------------------------------------------------------
      1. B(C   1,C   0)                  1.4214         0.000000   
      2. B(C   2,C   1)                  1.4295         0.000000   
      3. B(O   3,C   2)                  1.4085         0.000000   
      4. B(C   4,C   2)                  1.7087         0.000000   
      5. B(C   5,C   4)                  1.4242         0.000000   
      6. B(C   6,C   5)                  1.4184         0.000000   
      7. B(C   6,C   0)                  1.7285         0.000000   
      8. B(H   7,C   0)                  1.0860         0.000000   
      9. B(H   8,C   0)                  1.0851         0.000000   
     10. B(H   9,C   1)                  1.0808         0.000000   
     11. B(H  10,C   2)                  1.0983         0.000000   
     12. B(H  11,O   3)                  0.9626         0.000000   
     13. B(H  12,C   4)                  1.0867         0.000000   
     14. B(H  13,C   4)                  1.0846         0.000000   
     15. B(H  14,C   5)                  1.0801         0.000000   
     16. B(H  15,C   6)                  1.0850         0.000000   
     17. B(H  16,C   6)                  1.0864         0.000000   
     18. A(C   6,C   0,H   8)          105.2742         0.000000   
     19. A(C   1,C   0,H   7)          114.5518         0.000000   
     20. A(H   7,C   0,H   8)          111.3526         0.000000   
     21. A(C   6,C   0,H   7)          102.1642         0.000000   
     22. A(C   1,C   0,C   6)          106.6207         0.000000   
     23. A(C   1,C   0,H   8)          115.3914         0.000000   
     24. A(C   0,C   1,H   9)          118.6214         0.000000   
     25. A(C   0,C   1,C   2)          116.1613         0.000000   
     26. A(C   2,C   1,H   9)          116.5561         0.000000   
     27. A(C   1,C   2,C   4)          106.5270         0.000000   
     28. A(C   4,C   2,H  10)          104.7938         0.000000   
     29. A(C   1,C   2,O   3)          117.1829         0.000000   
     30. A(C   1,C   2,H  10)          114.1384         0.000000   
     31. A(O   3,C   2,C   4)          102.0797         0.000000   
     32. A(O   3,C   2,H  10)          110.5016         0.000000   
     33. A(C   2,O   3,H  11)          108.3478         0.000000   
     34. A(H  12,C   4,H  13)          111.6240         0.000000   
     35. A(C   2,C   4,H  13)          104.4448         0.000000   
     36. A(C   5,C   4,H  12)          115.2866         0.000000   
     37. A(C   2,C   4,H  12)          103.2518         0.000000   
     38. A(C   2,C   4,C   5)          105.5032         0.000000   
     39. A(C   5,C   4,H  13)          115.1292         0.000000   
     40. A(C   4,C   5,C   6)          116.7006         0.000000   
     41. A(C   6,C   5,H  14)          118.3817         0.000000   
     42. A(C   4,C   5,H  14)          117.6722         0.000000   
     43. A(C   5,C   6,H  16)          114.9889         0.000000   
     44. A(C   0,C   6,H  16)          102.3369         0.000000   
     45. A(C   5,C   6,H  15)          115.7745         0.000000   
     46. A(C   0,C   6,H  15)          105.0141         0.000000   
     47. A(H  15,C   6,H  16)          111.3335         0.000000   
     48. A(C   0,C   6,C   5)          105.7303         0.000000   
     49. D(C   2,C   1,C   0,H   7)     51.3655         0.000000   
     50. D(H   9,C   1,C   0,C   6)     85.8161         0.000000   
     51. D(H   9,C   1,C   0,H   8)    -30.6718         0.000000   
     52. D(C   2,C   1,C   0,C   6)    -60.8519         0.000000   
     53. D(H   9,C   1,C   0,H   7)   -161.9664         0.000000   
     54. D(C   2,C   1,C   0,H   8)   -177.3398         0.000000   
     55. D(O   3,C   2,C   1,H   9)    161.2444         0.000000   
     56. D(O   3,C   2,C   1,C   0)    -51.3872         0.000000   
     57. D(C   4,C   2,C   1,C   0)     62.0522         0.000000   
     58. D(H  10,C   2,C   1,C   0)    177.1924         0.000000   
     59. D(H  10,C   2,C   1,H   9)     29.8240         0.000000   
     60. D(C   4,C   2,C   1,H   9)    -85.3162         0.000000   
     61. D(H  11,O   3,C   2,C   4)   -169.2626         0.000000   
     62. D(H  11,O   3,C   2,H  10)     79.7107         0.000000   
     63. D(H  11,O   3,C   2,C   1)    -53.3542         0.000000   
     64. D(H  13,C   4,C   2,H  10)     60.4399         0.000000   
     65. D(H  13,C   4,C   2,O   3)    -54.8351         0.000000   
     66. D(H  12,C   4,C   2,O   3)   -171.6825         0.000000   
     67. D(H  12,C   4,C   2,C   1)     64.8947         0.000000   
     68. D(C   5,C   4,C   2,H  10)   -177.7886         0.000000   
     69. D(H  13,C   4,C   2,C   1)   -178.2578         0.000000   
     70. D(C   5,C   4,C   2,O   3)     66.9365         0.000000   
     71. D(C   5,C   4,C   2,C   1)    -56.4863         0.000000   
     72. D(H  12,C   4,C   2,H  10)    -56.4076         0.000000   
     73. D(H  14,C   5,C   4,H  13)     28.3396         0.000000   
     74. D(H  14,C   5,C   4,H  12)    160.5428         0.000000   
     75. D(H  14,C   5,C   4,C   2)    -86.2452         0.000000   
     76. D(C   6,C   5,C   4,H  13)    178.1709         0.000000   
     77. D(C   6,C   5,C   4,H  12)    -49.6259         0.000000   
     78. D(C   6,C   5,C   4,C   2)     63.5862         0.000000   
     79. D(C   5,C   6,C   0,C   1)     54.6256         0.000000   
     80. D(H  16,C   6,C   5,H  14)   -160.7556         0.000000   
     81. D(H  16,C   6,C   5,C   4)     49.6336         0.000000   
     82. D(H  15,C   6,C   5,C   4)   -178.2404         0.000000   
     83. D(C   0,C   6,C   5,H  14)     87.1477         0.000000   
     84. D(C   0,C   6,C   5,C   4)    -62.4631         0.000000   
     85. D(H  16,C   6,C   0,H   8)     56.9568         0.000000   
     86. D(H  16,C   6,C   0,H   7)    173.3784         0.000000   
     87. D(H  16,C   6,C   0,C   1)    -66.0951         0.000000   
     88. D(H  15,C   6,C   0,H   8)    -59.4165         0.000000   
     89. D(H  15,C   6,C   0,H   7)     57.0050         0.000000   
     90. D(H  15,C   6,C   5,H  14)    -28.6296         0.000000   
     91. D(H  15,C   6,C   0,C   1)    177.5315         0.000000   
     92. D(C   5,C   6,C   0,H   8)    177.6776         0.000000   
     93. D(C   5,C   6,C   0,H   7)    -65.9008         0.000000   
    -----------------------------------------------------------------

Number of atoms                         .... 17
Number of degrees of freedom            .... 93

         *************************************************************
         *                GEOMETRY OPTIMIZATION CYCLE   1            *
         *************************************************************
---------------------------------
CARTESIAN COORDINATES (ANGSTROEM)
---------------------------------
  C      0.685622    0.677069   -0.887610
  C      1.307411   -0.265443   -0.024238
  C      0.765985   -0.364640    1.294998
  O      0.617234    0.833017    2.021222
  C     -0.853744   -0.879151    1.118226
  C     -1.468616    0.084283    0.268545
  C     -0.962745    0.183881   -1.052824
  H      0.585296    1.674335   -0.469572
  H      1.076853    0.710224   -1.899215
  H      1.707772   -1.173771   -0.451805
  H      1.238867   -1.135929    1.917759
  H      1.463994    1.290709    2.027525
  H     -0.753982   -1.875025    0.694864
  H     -1.239175   -0.912364    2.131467
  H     -1.878359    0.970961    0.729651
  H     -1.421882    0.942704   -1.677847
  H     -0.870530   -0.760760   -1.581345

----------------------------
CARTESIAN COORDINATES (A.U.)
----------------------------
  NO LB      ZA    FRAG     MASS         X           Y           Z
   0 C     6.0000    0    12.011    1.295638    1.279474   -1.677339
   1 C     6.0000    0    12.011    2.470649   -0.501614   -0.045803
   2 C     6.0000    0    12.011    1.447503   -0.689070    2.447191
   3 O     8.0000    0    15.999    1.166403    1.574174    3.819556
   4 C     6.0000    0    12.011   -1.613342   -1.661354    2.113140
   5 C     6.0000    0    12.011   -2.775282    0.159272    0.507476
   6 C     6.0000    0    12.011   -1.819325    0.347484   -1.989549
   7 H     1.0000    0     1.008    1.106048    3.164035   -0.887362
   8 H     1.0000    0     1.008    2.034956    1.342129   -3.588996
   9 H     1.0000    0     1.008    3.227221   -2.218107   -0.853788
  10 H     1.0000    0     1.008    2.341119   -2.146595    3.624039
  11 H     1.0000    0     1.008    2.766547    2.439087    3.831467
  12 H     1.0000    0     1.008   -1.424820   -3.543284    1.313102
  13 H     1.0000    0     1.008   -2.341701   -1.724118    4.027888
  14 H     1.0000    0     1.008   -3.549584    1.834851    1.378841
  15 H     1.0000    0     1.008   -2.686967    1.781452   -3.170671
  16 H     1.0000    0     1.008   -1.645064   -1.437628   -2.988309

--------------------------------
INTERNAL COORDINATES (ANGSTROEM)
--------------------------------
 C      0   0   0     0.000000000000     0.00000000     0.00000000
 C      1   0   0     1.421393844494     0.00000000     0.00000000
 C      2   1   0     1.429462713944   116.16129643     0.00000000
 O      3   2   1     1.408513832224   117.18289320   308.61283740
 C      3   2   1     1.708652280523   106.52697588    62.05216934
 C      5   3   2     1.424159515921   105.50323905   303.51370899
 C      6   5   3     1.418393822976   116.70058769    63.58617455
 H      1   2   3     1.085983993816   114.55178933    51.36552945
 H      1   2   3     1.085129271637   115.39135323   182.66020539
 H      2   1   3     1.080816429693   118.62135637   146.66802218
 H      3   2   1     1.098333014811   114.13835285   177.19240108
 H      4   3   2     0.962561346252   108.34781472   306.64575499
 H      5   3   2     1.086716388588   103.25178177    64.89471600
 H      5   3   2     1.084581912079   104.44482735   181.74215911
 H      6   5   3     1.080141550047   117.67218780   273.75484445
 H      7   6   5     1.085021438402   115.77450873   181.75958543
 H      7   6   5     1.086362495496   114.98885459    49.63361731

---------------------------
INTERNAL COORDINATES (A.U.)
---------------------------
 C      0   0   0     0.000000000000     0.00000000     0.00000000
 C      1   0   0     2.686045094535     0.00000000     0.00000000
 C      2   1   0     2.701293048007   116.16129643     0.00000000
 O      3   2   1     2.661705398744   117.18289320   308.61283740
 C      3   2   1     3.228884868289   106.52697588    62.05216934
 C      5   3   2     2.691271456109   105.50323905   303.51370899
 C      6   5   3     2.680375875470   116.70058769    63.58617455
 H      1   2   3     2.052212334134   114.55178933    51.36552945
 H      1   2   3     2.050597143295   115.39135323   182.66020539
 H      2   1   3     2.042447053162   118.62135637   146.66802218
 H      3   2   1     2.075548601838   114.13835285   177.19240108
 H      4   3   2     1.818977331515   108.34781472   306.64575499
 H      5   3   2     2.053596359676   103.25178177    64.89471600
 H      5   3   2     2.049562783635   104.44482735   181.74215911
 H      6   5   3     2.041171715458   117.67218780   273.75484445
 H      7   6   5     2.050393368013   115.77450873   181.75958543
 H      7   6   5     2.052927598651   114.98885459    49.63361731

---------------------
BASIS SET INFORMATION
---------------------
There are 3 groups of distinct atoms

 Group   1 Type C   : 7s4p1d contracted to 3s2p1d pattern {511/31/1}
 Group   2 Type O   : 7s4p1d contracted to 3s2p1d pattern {511/31/1}
 Group   3 Type H   : 4s1p contracted to 2s1p pattern {31/1}

Atom   0C    basis set group =>   1
Atom   1C    basis set group =>   1
Atom   2C    basis set group =>   1
Atom   3O    basis set group =>   2
Atom   4C    basis set group =>   1
Atom   5C    basis set group =>   1
Atom   6C    basis set group =>   1
Atom   7H    basis set group =>   3
Atom   8H    basis set group =>   3
Atom   9H    basis set group =>   3
Atom  10H    basis set group =>   3
Atom  11H    basis set group =>   3
Atom  12H    basis set group =>   3
Atom  13H    basis set group =>   3
Atom  14H    basis set group =>   3
Atom  15H    basis set group =>   3
Atom  16H    basis set group =>   3
-------------------------------
AUXILIARY BASIS SET INFORMATION
-------------------------------
There are 3 groups of distinct atoms

 Group   1 Type C   : 12s5p4d2f1g contracted to 6s4p3d1f1g pattern {711111/2111/211/2/1}
 Group   2 Type O   : 12s5p4d2f1g contracted to 6s4p3d1f1g pattern {711111/2111/211/2/1}
 Group   3 Type H   : 5s2p1d contracted to 3s1p1d pattern {311/2/1}

Atom   0C    basis set group =>   1
Atom   1C    basis set group =>   1
Atom   2C    basis set group =>   1
Atom   3O    basis set group =>   2
Atom   4C    basis set group =>   1
Atom   5C    basis set group =>   1
Atom   6C    basis set group =>   1
Atom   7H    basis set group =>   3
Atom   8H    basis set group =>   3
Atom   9H    basis set group =>   3
Atom  10H    basis set group =>   3
Atom  11H    basis set group =>   3
Atom  12H    basis set group =>   3
Atom  13H    basis set group =>   3
Atom  14H    basis set group =>   3
Atom  15H    basis set group =>   3
Atom  16H    basis set group =>   3


           ************************************************************
           *        Program running with 8 parallel MPI-processes     *
           *              working on a common directory               *
           ************************************************************
------------------------------------------------------------------------------
                           ORCA GTO INTEGRAL CALCULATION
                           -- RI-GTO INTEGRALS CHOSEN --
------------------------------------------------------------------------------

                         BASIS SET STATISTICS AND STARTUP INFO

Gaussian basis set:
 # of primitive gaussian shells          ...  134
 # of primitive gaussian functions       ...  238
 # of contracted shells                  ...   72
 # of contracted basis functions         ...  148
 Highest angular momentum                ...    2
 Maximum contraction depth               ...    5
Auxiliary gaussian basis set:
 # of primitive gaussian shells          ...  248
 # of primitive gaussian functions       ...  650
 # of contracted shells                  ...  155
 # of contracted aux-basis functions     ...  453
 Highest angular momentum                ...    4
 Maximum contraction depth               ...    7
Ratio of auxiliary to basis functions    ...  3.06
Integral package used                  ... LIBINT
 One Electron integrals                  ... done
 Ordering auxiliary basis shells         ... done
 Integral threshhold             Thresh  ...  2.500e-11
 Primitive cut-off               TCut    ...  2.500e-12
 Pre-screening matrix                    ... done
 Shell pair data                         ... 
 Ordering of the shell pairs             ... done (   0.000 sec) 2594 of 2628 pairs
 Determination of significant pairs      ... done (   0.000 sec)
 Creation of shell pair data             ... done (   0.001 sec)
 Storage of shell pair data              ... done (   0.001 sec)
 Shell pair data done in (   0.002 sec)
 Computing two index integrals           ... done
 Cholesky decomposition of the V-matrix  ... done


Timings:
 Total evaluation time                   ...   0.212 sec (  0.004 min)
 One electron matrix time                ...   0.020 sec (  0.000 min) =  9.5%
 Schwartz matrix evaluation time         ...   0.160 sec (  0.003 min) = 75.6%
 Two index repulsion integral time       ...   0.009 sec (  0.000 min) =  4.1%
 Cholesky decomposition of V             ...   0.005 sec (  0.000 min) =  2.1%
 Three index repulsion integral time     ...   0.000 sec (  0.000 min) =  0.0%



           ************************************************************
           *        Program running with 8 parallel MPI-processes     *
           *              working on a common directory               *
           ************************************************************
-------------------------------------------------------------------------------
                                 ORCA SCF
-------------------------------------------------------------------------------

------------
SCF SETTINGS
------------
Hamiltonian:
 Density Functional     Method          .... DFT(GTOs)
 Exchange Functional    Exchange        .... PBE
   PBE kappa parameter   XKappa         ....  0.804000
   PBE mue parameter    XMuePBE         ....  0.219520
 Correlation Functional Correlation     .... PBE
   PBE beta parameter  CBetaPBE         ....  0.066725
 LDA part of GGA corr.  LDAOpt          .... PW91-LDA
 Gradients option       PostSCFGGA      .... off
 Hybrid DFT is turned on
   Fraction HF Exchange ScalHFX         ....  0.250000
   Scaling of DF-GGA-X  ScalDFX         ....  0.750000
   Scaling of DF-GGA-C  ScalDFC         ....  1.000000
   Scaling of DF-LDA-C  ScalLDAC        ....  1.000000
   Perturbative correction              ....  0.000000
   Density functional embedding theory  .... OFF
   NL short-range parameter             ....  6.900000
 RI-approximation to the Coulomb term is turned on
   Number of auxiliary basis functions  .... 453
   RIJ-COSX (HFX calculated with COS-X)).... on


General Settings:
 Integral files         IntName         .... get_xtb_ts_guess_forming_bond_TS_orca_opt
 Hartree-Fock type      HFTyp           .... RHF
 Total Charge           Charge          ....    0
 Multiplicity           Mult            ....    1
 Number of Electrons    NEL             ....   54
 Basis Dimension        Dim             ....  148
 Nuclear Repulsion      ENuc            ....    315.4886622331 Eh

Convergence Acceleration:
 DIIS                   CNVDIIS         .... on
   Start iteration      DIISMaxIt       ....    12
   Startup error        DIISStart       ....  0.200000
   # of expansion vecs  DIISMaxEq       ....     5
   Bias factor          DIISBfac        ....   1.050
   Max. coefficient     DIISMaxC        ....  10.000
 Newton-Raphson         CNVNR           .... off
 SOSCF                  CNVSOSCF        .... on
   Start iteration      SOSCFMaxIt      ....   150
   Startup grad/error   SOSCFStart      ....  0.003300
 Level Shifting         CNVShift        .... on
   Level shift para.    LevelShift      ....    0.2500
   Turn off err/grad.   ShiftErr        ....    0.0010
 Zerner damping         CNVZerner       .... off
 Static damping         CNVDamp         .... on
   Fraction old density DampFac         ....    0.7000
   Max. Damping (<1)    DampMax         ....    0.9800
   Min. Damping (>=0)   DampMin         ....    0.0000
   Turn off err/grad.   DampErr         ....    0.1000
 Fernandez-Rico         CNVRico         .... off

SCF Procedure:
 Maximum # iterations   MaxIter         ....   250
 SCF integral mode      SCFMode         .... Direct
   Integral package                     .... LIBINT
 Reset frequency        DirectResetFreq ....    20
 Integral Threshold     Thresh          ....  2.500e-11 Eh
 Primitive CutOff       TCut            ....  2.500e-12 Eh

Convergence Tolerance:
 Convergence Check Mode ConvCheckMode   .... Total+1el-Energy
 Convergence forced     ConvForced      .... 0
 Energy Change          TolE            ....  1.000e-08 Eh
 1-El. energy change                    ....  1.000e-05 Eh
 Orbital Gradient       TolG            ....  1.000e-05
 Orbital Rotation angle TolX            ....  1.000e-05
 DIIS Error             TolErr          ....  5.000e-07


Diagonalization of the overlap matrix:
Smallest eigenvalue                        ... 1.141e-03
Time for diagonalization                   ...    0.004 sec
Threshold for overlap eigenvalues          ... 1.000e-08
Number of eigenvalues below threshold      ... 0
Time for construction of square roots      ...    0.002 sec
Total time needed                          ...    0.007 sec

-------------------
DFT GRID GENERATION
-------------------

General Integration Accuracy     IntAcc      ...  4.340
Radial Grid Type                 RadialGrid  ... Gauss-Chebyshev
Angular Grid (max. acc.)         AngularGrid ... Lebedev-110
Angular grid pruning method      GridPruning ... 3 (G Style)
Weight generation scheme         WeightScheme... Becke
Basis function cutoff            BFCut       ...    1.0000e-11
Integration weight cutoff        WCut        ...    1.0000e-14
Grids for H and He will be reduced by one unit

# of grid points (after initial pruning)     ...  19592 (   0.0 sec)
# of grid points (after weights+screening)   ...  17984 (   0.0 sec)
nearest neighbour list constructed           ...    0.0 sec
Grid point re-assignment to atoms done       ...    0.0 sec
Grid point division into batches done        ...    0.0 sec
Reduced shell lists constructed in    0.0 sec

Total number of grid points                  ...    17984
Total number of batches                      ...      290
Average number of points per batch           ...       62
Average number of grid points per atom       ...     1058
Average number of shells per batch           ...    64.74 (89.91%)
Average number of basis functions per batch  ...   135.74 (91.71%)
Average number of large shells per batch     ...    56.00 (86.50%)
Average number of large basis fcns per batch ...   114.32 (84.22%)
Maximum spatial batch extension              ...   8.30,  3.23,  3.27 au
Average spatial batch extension              ...   0.25,  0.21,  0.22 au

Time for grid setup =    0.046 sec

------------------------------
INITIAL GUESS: MODEL POTENTIAL
------------------------------
Loading Hartree-Fock densities                     ... done
Calculating cut-offs                               ... done
Setting up the integral package                    ... done
Initializing the effective Hamiltonian             ... done
Starting the Coulomb interaction                   ... done (   0.0 sec)
Reading the grid                                   ... done
Mapping shells                                     ... done
Starting the XC term evaluation                    ... done (   0.0 sec)
  promolecular density results
     # of electrons  =     54.003215124
     EX              =    -41.787661951
     EC              =     -1.782453847
     EX+EC           =    -43.570115798
Transforming the Hamiltonian                       ... done (   0.0 sec)
Diagonalizing the Hamiltonian                      ... done (   0.0 sec)
Back transforming the eigenvectors                 ... done (   0.0 sec)
Now organizing SCF variables                       ... done
                      ------------------
                      INITIAL GUESS DONE (   0.2 sec)
                      ------------------
--------------------
COSX GRID GENERATION
--------------------

General Integration Accuracy     IntAcc      ...  3.340
Radial Grid Type                 RadialGrid  ... Gauss-Chebyshev
Angular Grid (max. acc.)         AngularGrid ... Lebedev-50
Angular grid pruning method      GridPruning ... 3 (G Style)
Weight generation scheme         WeightScheme... Becke
Basis function cutoff            BFCut       ...    1.0000e-11
Integration weight cutoff        WCut        ...    1.0000e-14
Grids for H and He will be reduced by one unit

# of grid points (after initial pruning)     ...   7260 (   0.0 sec)
# of grid points (after weights+screening)   ...   6705 (   0.0 sec)
nearest neighbour list constructed           ...    0.0 sec
Grid point re-assignment to atoms done       ...    0.0 sec
Grid point division into batches done        ...    0.0 sec
Reduced shell lists constructed in    0.0 sec

Total number of grid points                  ...     6705
Total number of batches                      ...      115
Average number of points per batch           ...       58
Average number of grid points per atom       ...      394
Average number of shells per batch           ...    63.12 (87.67%)
Average number of basis functions per batch  ...   132.88 (89.78%)
Average number of large shells per batch     ...    54.50 (86.34%)
Average number of large basis fcns per batch ...   111.75 (84.10%)
Maximum spatial batch extension              ...   9.62,  4.06,  3.69 au
Average spatial batch extension              ...   0.33,  0.29,  0.26 au

Overlap Fitting                  UseSFitting ... on
Constructing numerical overlap ... done (      0.0 sec)
Inverting numerical overlap    ... done (      0.0 sec)
Obtaining analytic overlap     ... done (      0.0 sec)
Final contraction and storage  ... done (      0.0 sec)


General Integration Accuracy     IntAcc      ...  3.670
Radial Grid Type                 RadialGrid  ... Gauss-Chebyshev
Angular Grid (max. acc.)         AngularGrid ... Lebedev-50
Angular grid pruning method      GridPruning ... 3 (G Style)
Weight generation scheme         WeightScheme... Becke
Basis function cutoff            BFCut       ...    1.0000e-11
Integration weight cutoff        WCut        ...    1.0000e-14
Grids for H and He will be reduced by one unit

# of grid points (after initial pruning)     ...   9326 (   0.0 sec)
# of grid points (after weights+screening)   ...   8602 (   0.0 sec)
nearest neighbour list constructed           ...    0.0 sec
Grid point re-assignment to atoms done       ...    0.0 sec
Grid point division into batches done        ...    0.0 sec
Reduced shell lists constructed in    0.0 sec

Total number of grid points                  ...     8602
Total number of batches                      ...      144
Average number of points per batch           ...       59
Average number of grid points per atom       ...      506
Average number of shells per batch           ...    63.74 (88.52%)
Average number of basis functions per batch  ...   133.95 (90.50%)
Average number of large shells per batch     ...    55.26 (86.71%)
Average number of large basis fcns per batch ...   113.05 (84.40%)
Maximum spatial batch extension              ...   6.94,  4.00,  3.55 au
Average spatial batch extension              ...   0.26,  0.25,  0.26 au

Overlap Fitting                  UseSFitting ... on
Constructing numerical overlap ... done (      0.0 sec)
Inverting numerical overlap    ... done (      0.0 sec)
Obtaining analytic overlap     ... done (      0.0 sec)
Final contraction and storage  ... done (      0.0 sec)


General Integration Accuracy     IntAcc      ...  4.010
Radial Grid Type                 RadialGrid  ... Gauss-Chebyshev
Angular Grid (max. acc.)         AngularGrid ... Lebedev-110
Angular grid pruning method      GridPruning ... 3 (G Style)
Weight generation scheme         WeightScheme... Becke
Basis function cutoff            BFCut       ...    1.0000e-11
Integration weight cutoff        WCut        ...    1.0000e-14
Grids for H and He will be reduced by one unit

# of grid points (after initial pruning)     ...  16910 (   0.0 sec)
# of grid points (after weights+screening)   ...  15561 (   0.0 sec)
nearest neighbour list constructed           ...    0.0 sec
Grid point re-assignment to atoms done       ...    0.0 sec
Grid point division into batches done        ...    0.0 sec
Reduced shell lists constructed in    0.0 sec

Total number of grid points                  ...    15561
Total number of batches                      ...      254
Average number of points per batch           ...       61
Average number of grid points per atom       ...      915
Average number of shells per batch           ...    64.48 (89.56%)
Average number of basis functions per batch  ...   135.33 (91.44%)
Average number of large shells per batch     ...    55.36 (85.86%)
Average number of large basis fcns per batch ...   112.76 (83.32%)
Maximum spatial batch extension              ...   7.29,  3.48,  3.50 au
Average spatial batch extension              ...   0.24,  0.20,  0.22 au

Overlap Fitting                  UseSFitting ... on
Constructing numerical overlap ... done (      0.0 sec)
Inverting numerical overlap    ... done (      0.0 sec)
Obtaining analytic overlap     ... done (      0.0 sec)
Final contraction and storage  ... done (      0.0 sec)

Time for X-Grid setup             =    0.131 sec
--------------
SCF ITERATIONS
--------------
ITER       Energy         Delta-E        Max-DP      RMS-DP      [F,P]     Damp
               ***  Starting incremental Fock matrix formation  ***
  0   -308.9943959718   0.000000000000 0.06376328  0.00252354  0.2231201 0.7000
  1   -309.0772732129  -0.082877241039 0.03935181  0.00178196  0.1015596 0.7000
                               ***Turning on DIIS***
  2   -309.1121676679  -0.034894455092 0.06563621  0.00302803  0.0321868 0.0000
  3   -309.1643175985  -0.052149930598 0.02614647  0.00124443  0.0503700 0.0000
  4   -309.1768011120  -0.012483513471 0.00678023  0.00027639  0.0070060 0.0000
  5   -309.1771874160  -0.000386303944 0.00277652  0.00010693  0.0045380 0.0000
                      *** Initiating the SOSCF procedure ***
                           *** Shutting down DIIS ***
                      *** Re-Reading the Fockian *** 
                      *** Removing any level shift *** 
ITER      Energy       Delta-E        Grad      Rot      Max-DP    RMS-DP
  6   -309.17722597  -0.0000385515  0.000140  0.000140  0.001162  0.000054
               *** Restarting incremental Fock matrix formation ***
  7   -309.17722820  -0.0000022298  0.000236  0.001657  0.001004  0.000027
  8   -309.17722565   0.0000025496  0.000707  0.001296  0.000767  0.000020
  9   -309.17722867  -0.0000030234  0.000025  0.000072  0.000180  0.000006
 10   -309.17722860   0.0000000721  0.000036  0.000050  0.000112  0.000003
                  ***Gradient check signals convergence***
              ***Rediagonalizing the Fockian in SOSCF/NRSCF***

               *****************************************************
               *                     SUCCESS                       *
               *           SCF CONVERGED AFTER  11 CYCLES          *
               *****************************************************

Setting up the final grid:

General Integration Accuracy     IntAcc      ...  4.670
Radial Grid Type                 RadialGrid  ... Gauss-Chebyshev
Angular Grid (max. acc.)         AngularGrid ... Lebedev-302
Angular grid pruning method      GridPruning ... 3 (G Style)
Weight generation scheme         WeightScheme... Becke
Basis function cutoff            BFCut       ...    1.0000e-11
Integration weight cutoff        WCut        ...    1.0000e-14
Grids for H and He will be reduced by one unit

# of grid points (after initial pruning)     ...  77424 (   0.0 sec)
# of grid points (after weights+screening)   ...  69737 (   0.0 sec)
nearest neighbour list constructed           ...    0.0 sec
Grid point re-assignment to atoms done       ...    0.0 sec
Grid point division into batches done        ...    0.2 sec
Reduced shell lists constructed in    0.2 sec

Total number of grid points                  ...    69737
Total number of batches                      ...     1097
Average number of points per batch           ...       63
Average number of grid points per atom       ...     4102
Average number of shells per batch           ...    64.60 (89.73%)
Average number of basis functions per batch  ...   134.94 (91.17%)
Average number of large shells per batch     ...    54.02 (83.62%)
Average number of large basis fcns per batch ...   109.24 (80.96%)
Maximum spatial batch extension              ...   5.46,  3.07,  3.33 au
Average spatial batch extension              ...   0.14,  0.14,  0.14 au

Final grid set up in    0.3 sec
Final integration                            ... done (   0.1 sec)
Change in XC energy                          ...     0.000759327
Integrated number of electrons               ...    54.000055337
Previous integrated no of electrons          ...    54.005118812
Old exchange energy                            =    -10.696429583 Eh
New exchange energy                            =    -10.696856265 Eh
Exchange energy change after final integration =     -0.000426682 Eh
Total energy after final integration           =   -309.176896048 Eh
Final COS-X integration done in                =     0.422 sec

----------------
TOTAL SCF ENERGY
----------------

Total Energy       :         -309.17689605 Eh           -8413.13106 eV

Components:
Nuclear Repulsion  :          315.48866223 Eh            8584.88295 eV
Electronic Energy  :         -624.66555828 Eh          -16998.01400 eV
One Electron Energy:        -1043.52758614 Eh          -28395.82923 eV
Two Electron Energy:          418.86202786 Eh           11397.81523 eV

Virial components:
Potential Energy   :         -615.43394797 Eh          -16746.80912 eV
Kinetic Energy     :          306.25705192 Eh            8333.67806 eV
Virial Ratio       :            2.00953397


DFT components:
N(Alpha)           :       27.000027668436 electrons
N(Beta)            :       27.000027668436 electrons
N(Total)           :       54.000055336872 electrons
E(X)               :      -31.988615738629 Eh       
E(C)               :       -1.796108936589 Eh       
E(XC)              :      -33.784724675218 Eh       
DFET-embed. en.    :        0.000000000000 Eh       

---------------
SCF CONVERGENCE
---------------

  Last Energy change         ...   -9.3680e-08  Tolerance :   1.0000e-08
  Last MAX-Density change    ...    2.6645e-15  Tolerance :   1.0000e-07
  Last RMS-Density change    ...    4.4814e-17  Tolerance :   5.0000e-09
  Last Orbital Gradient      ...    2.2326e-06  Tolerance :   1.0000e-05
  Last Orbital Rotation      ...    7.7284e-06  Tolerance :   1.0000e-05

             **** THE GBW FILE WAS UPDATED (get_xtb_ts_guess_forming_bond_TS_orca_opt.gbw) ****
             **** DENSITY FILE WAS UPDATED (get_xtb_ts_guess_forming_bond_TS_orca_opt.scfp.tmp) ****
             **** ENERGY FILE WAS UPDATED (get_xtb_ts_guess_forming_bond_TS_orca_opt.en.tmp) ****
----------------
ORBITAL ENERGIES
----------------

  NO   OCC          E(Eh)            E(eV) 
   0   2.0000     -19.202297      -522.5211 
   1   2.0000     -10.287358      -279.9333 
   2   2.0000     -10.241062      -278.6735 
   3   2.0000     -10.240402      -278.6555 
   4   2.0000     -10.233553      -278.4691 
   5   2.0000     -10.224115      -278.2123 
   6   2.0000     -10.212571      -277.8982 
   7   2.0000      -1.037543       -28.2330 
   8   2.0000      -0.847221       -23.0541 
   9   2.0000      -0.761234       -20.7142 
  10   2.0000      -0.740998       -20.1636 
  11   2.0000      -0.636665       -17.3245 
  12   2.0000      -0.593977       -16.1629 
  13   2.0000      -0.567703       -15.4480 
  14   2.0000      -0.509403       -13.8616 
  15   2.0000      -0.498926       -13.5765 
  16   2.0000      -0.467298       -12.7158 
  17   2.0000      -0.437176       -11.8962 
  18   2.0000      -0.425434       -11.5767 
  19   2.0000      -0.410547       -11.1715 
  20   2.0000      -0.386167       -10.5081 
  21   2.0000      -0.371877       -10.1193 
  22   2.0000      -0.356881        -9.7112 
  23   2.0000      -0.352438        -9.5903 
  24   2.0000      -0.320733        -8.7276 
  25   2.0000      -0.283790        -7.7223 
  26   2.0000      -0.192185        -5.2296 
  27   0.0000      -0.049846        -1.3564 
  28   0.0000       0.070917         1.9298 
  29   0.0000       0.086611         2.3568 
  30   0.0000       0.102005         2.7757 
  31   0.0000       0.110737         3.0133 
  32   0.0000       0.126597         3.4449 
  33   0.0000       0.131014         3.5651 
  34   0.0000       0.155660         4.2357 
  35   0.0000       0.162908         4.4330 
  36   0.0000       0.170370         4.6360 
  37   0.0000       0.174020         4.7353 
  38   0.0000       0.185062         5.0358 
  39   0.0000       0.207164         5.6372 
  40   0.0000       0.239844         6.5265 
  41   0.0000       0.284617         7.7448 
  42   0.0000       0.301504         8.2043 
  43   0.0000       0.325437         8.8556 
  44   0.0000       0.332021         9.0348 
  45   0.0000       0.428449        11.6587 
  46   0.0000       0.439210        11.9515 
  47   0.0000       0.453639        12.3442 
  48   0.0000       0.482674        13.1342 
  49   0.0000       0.503767        13.7082 
  50   0.0000       0.524662        14.2768 
  51   0.0000       0.531016        14.4497 
  52   0.0000       0.539744        14.6872 
  53   0.0000       0.558363        15.1938 
  54   0.0000       0.583462        15.8768 
  55   0.0000       0.616078        16.7643 
  56   0.0000       0.635508        17.2930 
  57   0.0000       0.651410        17.7258 
  58   0.0000       0.668113        18.1803 
  59   0.0000       0.674702        18.3596 
  60   0.0000       0.683564        18.6007 
  61   0.0000       0.690642        18.7933 
  62   0.0000       0.696140        18.9429 
  63   0.0000       0.705339        19.1932 
  64   0.0000       0.712531        19.3890 
  65   0.0000       0.728043        19.8111 
  66   0.0000       0.735969        20.0267 
  67   0.0000       0.740645        20.1540 
  68   0.0000       0.760064        20.6824 
  69   0.0000       0.765985        20.8435 
  70   0.0000       0.781558        21.2673 
  71   0.0000       0.790447        21.5091 
  72   0.0000       0.883476        24.0406 
  73   0.0000       0.920135        25.0381 
  74   0.0000       0.943338        25.6695 
  75   0.0000       1.002706        27.2850 
  76   0.0000       1.027169        27.9507 
  77   0.0000       1.050680        28.5905 
  78   0.0000       1.097073        29.8529 
  79   0.0000       1.160774        31.5863 
  80   0.0000       1.200477        32.6667 
  81   0.0000       1.240007        33.7423 
  82   0.0000       1.277159        34.7533 
  83   0.0000       1.318128        35.8681 
  84   0.0000       1.343944        36.5706 
  85   0.0000       1.349853        36.7314 
  86   0.0000       1.377149        37.4741 
  87   0.0000       1.438967        39.1563 
  88   0.0000       1.492699        40.6184 
  89   0.0000       1.515340        41.2345 
  90   0.0000       1.569517        42.7087 
  91   0.0000       1.626799        44.2675 
  92   0.0000       1.641594        44.6700 
  93   0.0000       1.655675        45.0532 
  94   0.0000       1.694737        46.1161 
  95   0.0000       1.714468        46.6530 
  96   0.0000       1.746452        47.5234 
  97   0.0000       1.755671        47.7742 
  98   0.0000       1.784882        48.5691 
  99   0.0000       1.807492        49.1844 
 100   0.0000       1.839020        50.0423 
 101   0.0000       1.844708        50.1971 
 102   0.0000       1.850021        50.3416 
 103   0.0000       1.861288        50.6482 
 104   0.0000       1.883615        51.2558 
 105   0.0000       1.901287        51.7367 
 106   0.0000       1.919926        52.2438 
 107   0.0000       1.935324        52.6628 
 108   0.0000       1.966505        53.5113 
 109   0.0000       1.976704        53.7888 
 110   0.0000       1.988996        54.1233 
 111   0.0000       2.028779        55.2059 
 112   0.0000       2.037085        55.4319 
 113   0.0000       2.058749        56.0214 
 114   0.0000       2.074328        56.4453 
 115   0.0000       2.109739        57.4089 
 116   0.0000       2.152340        58.5682 
 117   0.0000       2.216439        60.3124 
 118   0.0000       2.218005        60.3550 
 119   0.0000       2.254328        61.3434 
 120   0.0000       2.271297        61.8051 
 121   0.0000       2.283590        62.1397 
 122   0.0000       2.306124        62.7528 
 123   0.0000       2.375755        64.6476 
 124   0.0000       2.395924        65.1964 
 125   0.0000       2.437579        66.3299 
 126   0.0000       2.455995        66.8310 
 127   0.0000       2.552657        69.4613 
 128   0.0000       2.582918        70.2848 
 129   0.0000       2.627135        71.4880 
 130   0.0000       2.663875        72.4877 
 131   0.0000       2.734617        74.4127 
 132   0.0000       2.739929        74.5573 
 133   0.0000       2.819940        76.7345 
 134   0.0000       2.859779        77.8185 
 135   0.0000       2.885855        78.5281 
 136   0.0000       2.899943        78.9115 
 137   0.0000       2.939851        79.9974 
 138   0.0000       2.979213        81.0685 
 139   0.0000       3.006691        81.8162 
 140   0.0000       3.024055        82.2887 
 141   0.0000       3.074250        83.6546 
 142   0.0000       3.103874        84.4607 
 143   0.0000       3.135146        85.3117 
 144   0.0000       3.212101        87.4057 
 145   0.0000       3.251575        88.4799 
 146   0.0000       3.446212        93.7762 
 147   0.0000       3.797520       103.3358 

                    ********************************
                    * MULLIKEN POPULATION ANALYSIS *
                    ********************************

-----------------------
MULLIKEN ATOMIC CHARGES
-----------------------
   0 C :   -0.028879
   1 C :   -0.111891
   2 C :    0.035914
   3 O :   -0.312395
   4 C :    0.009142
   5 C :   -0.083085
   6 C :   -0.057407
   7 H :    0.044834
   8 H :    0.047783
   9 H :    0.019418
  10 H :    0.031998
  11 H :    0.173521
  12 H :    0.037827
  13 H :    0.053776
  14 H :    0.040985
  15 H :    0.052481
  16 H :    0.045978
Sum of atomic charges:   -0.0000000

--------------------------------
MULLIKEN REDUCED ORBITAL CHARGES
--------------------------------
  0 C s       :     3.046296  s :     3.046296
      pz      :     0.986621  p :     2.947175
      px      :     0.916323
      py      :     1.044231
      dz2     :     0.007970  d :     0.035408
      dxz     :     0.005557
      dyz     :     0.006349
      dx2y2   :     0.010620
      dxy     :     0.004911
  1 C s       :     3.143610  s :     3.143610
      pz      :     0.944744  p :     2.935637
      px      :     1.020513
      py      :     0.970381
      dz2     :     0.008641  d :     0.032644
      dxz     :     0.007890
      dyz     :     0.007798
      dx2y2   :     0.004659
      dxy     :     0.003656
  2 C s       :     3.090764  s :     3.090764
      pz      :     0.961829  p :     2.799725
      px      :     0.993849
      py      :     0.844047
      dz2     :     0.015154  d :     0.073598
      dxz     :     0.010069
      dyz     :     0.022237
      dx2y2   :     0.014658
      dxy     :     0.011480
  3 O s       :     3.726003  s :     3.726003
      pz      :     1.763600  p :     4.573515
      px      :     1.444538
      py      :     1.365377
      dz2     :     0.002156  d :     0.012877
      dxz     :     0.001319
      dyz     :     0.002775
      dx2y2   :     0.003535
      dxy     :     0.003092
  4 C s       :     3.025815  s :     3.025815
      pz      :     0.996746  p :     2.930852
      px      :     0.932259
      py      :     1.001847
      dz2     :     0.007813  d :     0.034192
      dxz     :     0.005068
      dyz     :     0.006283
      dx2y2   :     0.010440
      dxy     :     0.004588
  5 C s       :     3.141742  s :     3.141742
      pz      :     0.967225  p :     2.906097
      px      :     0.961708
      py      :     0.977163
      dz2     :     0.008683  d :     0.035246
      dxz     :     0.007873
      dyz     :     0.010310
      dx2y2   :     0.004392
      dxy     :     0.003986
  6 C s       :     3.045209  s :     3.045209
      pz      :     1.031413  p :     2.977440
      px      :     0.942451
      py      :     1.003576
      dz2     :     0.007478  d :     0.034758
      dxz     :     0.006858
      dyz     :     0.010552
      dx2y2   :     0.006302
      dxy     :     0.003569
  7 H s       :     0.931577  s :     0.931577
      pz      :     0.006479  p :     0.023590
      px      :     0.004133
      py      :     0.012978
  8 H s       :     0.929070  s :     0.929070
      pz      :     0.013338  p :     0.023147
      px      :     0.005478
      py      :     0.004332
  9 H s       :     0.956221  s :     0.956221
      pz      :     0.005310  p :     0.024361
      px      :     0.007351
      py      :     0.011700
 10 H s       :     0.947607  s :     0.947607
      pz      :     0.006592  p :     0.020395
      px      :     0.005896
      py      :     0.007906
 11 H s       :     0.756150  s :     0.756150
      pz      :     0.017921  p :     0.070329
      px      :     0.031303
      py      :     0.021104
 12 H s       :     0.939074  s :     0.939074
      pz      :     0.005898  p :     0.023099
      px      :     0.004177
      py      :     0.013024
 13 H s       :     0.922902  s :     0.922902
      pz      :     0.013660  p :     0.023322
      px      :     0.005419
      py      :     0.004243
 14 H s       :     0.934857  s :     0.934857
      pz      :     0.005814  p :     0.024158
      px      :     0.006710
      py      :     0.011634
 15 H s       :     0.924340  s :     0.924340
      pz      :     0.007570  p :     0.023179
      px      :     0.006166
      py      :     0.009442
 16 H s       :     0.930758  s :     0.930758
      pz      :     0.006700  p :     0.023264
      px      :     0.004206
      py      :     0.012357


                     *******************************
                     * LOEWDIN POPULATION ANALYSIS *
                     *******************************

----------------------
LOEWDIN ATOMIC CHARGES
----------------------
   0 C :   -0.019905
   1 C :   -0.125251
   2 C :    0.060347
   3 O :   -0.136663
   4 C :   -0.033723
   5 C :   -0.048650
   6 C :   -0.027055
   7 H :    0.028733
   8 H :    0.034069
   9 H :    0.018512
  10 H :    0.016885
  11 H :    0.076060
  12 H :    0.026798
  13 H :    0.038605
  14 H :    0.024168
  15 H :    0.035247
  16 H :    0.031826

-------------------------------
LOEWDIN REDUCED ORBITAL CHARGES
-------------------------------
  0 C s       :     2.860033  s :     2.860033
      pz      :     1.060467  p :     3.071968
      px      :     0.942235
      py      :     1.069267
      dz2     :     0.020070  d :     0.087904
      dxz     :     0.013324
      dyz     :     0.016962
      dx2y2   :     0.026655
      dxy     :     0.010893
  1 C s       :     2.884157  s :     2.884157
      pz      :     1.046000  p :     3.155741
      px      :     1.057994
      py      :     1.051746
      dz2     :     0.022943  d :     0.085353
      dxz     :     0.020994
      dyz     :     0.022443
      dx2y2   :     0.009143
      dxy     :     0.009830
  2 C s       :     2.859668  s :     2.859668
      pz      :     1.034195  p :     2.915889
      px      :     0.977617
      py      :     0.904077
      dz2     :     0.035752  d :     0.164097
      dxz     :     0.022112
      dyz     :     0.049047
      dx2y2   :     0.033369
      dxy     :     0.023817
  3 O s       :     3.444525  s :     3.444525
      pz      :     1.739893  p :     4.667571
      px      :     1.515946
      py      :     1.411732
      dz2     :     0.003951  d :     0.024567
      dxz     :     0.001242
      dyz     :     0.005441
      dx2y2   :     0.007052
      dxy     :     0.006881
  4 C s       :     2.860340  s :     2.860340
      pz      :     1.063203  p :     3.086434
      px      :     0.967081
      py      :     1.056150
      dz2     :     0.019907  d :     0.086949
      dxz     :     0.012423
      dyz     :     0.016949
      dx2y2   :     0.026716
      dxy     :     0.010954
  5 C s       :     2.877731  s :     2.877731
      pz      :     1.045889  p :     3.082623
      px      :     0.995649
      py      :     1.041085
      dz2     :     0.022274  d :     0.088296
      dxz     :     0.020432
      dyz     :     0.026604
      dx2y2   :     0.008433
      dxy     :     0.010552
  6 C s       :     2.859521  s :     2.859521
      pz      :     1.065986  p :     3.080975
      px      :     0.957226
      py      :     1.057763
      dz2     :     0.020029  d :     0.086559
      dxz     :     0.015657
      dyz     :     0.026778
      dx2y2   :     0.015989
      dxy     :     0.008106
  7 H s       :     0.900548  s :     0.900548
      pz      :     0.018879  p :     0.070720
      px      :     0.013720
      py      :     0.038120
  8 H s       :     0.896549  s :     0.896549
      pz      :     0.038189  p :     0.069382
      px      :     0.017642
      py      :     0.013551
  9 H s       :     0.905708  s :     0.905708
      pz      :     0.017627  p :     0.075781
      px      :     0.023529
      py      :     0.034624
 10 H s       :     0.915614  s :     0.915614
      pz      :     0.020759  p :     0.067501
      px      :     0.019586
      py      :     0.027156
 11 H s       :     0.739992  s :     0.739992
      pz      :     0.047618  p :     0.183949
      px      :     0.087016
      py      :     0.049315
 12 H s       :     0.904163  s :     0.904163
      pz      :     0.017531  p :     0.069040
      px      :     0.014061
      py      :     0.037447
 13 H s       :     0.891004  s :     0.891004
      pz      :     0.039197  p :     0.070392
      px      :     0.018519
      py      :     0.012676
 14 H s       :     0.901300  s :     0.901300
      pz      :     0.018441  p :     0.074532
      px      :     0.021129
      py      :     0.034962
 15 H s       :     0.895319  s :     0.895319
      pz      :     0.022281  p :     0.069435
      px      :     0.019735
      py      :     0.027419
 16 H s       :     0.898730  s :     0.898730
      pz      :     0.019282  p :     0.069444
      px      :     0.014077
      py      :     0.036085


                      *****************************
                      * MAYER POPULATION ANALYSIS *
                      *****************************

  NA   - Mulliken gross atomic population
  ZA   - Total nuclear charge
  QA   - Mulliken gross atomic charge
  VA   - Mayer's total valence
  BVA  - Mayer's bonded valence
  FA   - Mayer's free valence

  ATOM       NA         ZA         QA         VA         BVA        FA
  0 C      6.0289     6.0000    -0.0289     3.9883     3.9883    -0.0000
  1 C      6.1119     6.0000    -0.1119     3.9398     3.9398    -0.0000
  2 C      5.9641     6.0000     0.0359     4.0913     4.0913    -0.0000
  3 O      8.3124     8.0000    -0.3124     2.0484     2.0484    -0.0000
  4 C      5.9909     6.0000     0.0091     3.9547     3.9547     0.0000
  5 C      6.0831     6.0000    -0.0831     4.0346     4.0346     0.0000
  6 C      6.0574     6.0000    -0.0574     4.0323     4.0323    -0.0000
  7 H      0.9552     1.0000     0.0448     0.9955     0.9955    -0.0000
  8 H      0.9522     1.0000     0.0478     0.9751     0.9751    -0.0000
  9 H      0.9806     1.0000     0.0194     0.9905     0.9905    -0.0000
 10 H      0.9680     1.0000     0.0320     0.9764     0.9764     0.0000
 11 H      0.8265     1.0000     0.1735     1.0210     1.0210     0.0000
 12 H      0.9622     1.0000     0.0378     0.9784     0.9784     0.0000
 13 H      0.9462     1.0000     0.0538     0.9850     0.9850    -0.0000
 14 H      0.9590     1.0000     0.0410     0.9936     0.9936     0.0000
 15 H      0.9475     1.0000     0.0525     0.9746     0.9746    -0.0000
 16 H      0.9540     1.0000     0.0460     0.9769     0.9769    -0.0000

  Mayer bond orders larger than 0.1
B(  0-C ,  1-C ) :   1.3283 B(  0-C ,  6-C ) :   0.7651 B(  0-C ,  7-H ) :   0.9325 
B(  0-C ,  8-H ) :   0.9398 B(  1-C ,  2-C ) :   1.3018 B(  1-C ,  5-C ) :   0.2794 
B(  1-C ,  9-H ) :   0.9590 B(  2-C ,  3-O ) :   1.0004 B(  2-C ,  4-C ) :   0.7798 
B(  2-C , 10-H ) :   0.9344 B(  3-O , 11-H ) :   0.9714 B(  4-C ,  5-C ) :   1.3029 
B(  4-C , 12-H ) :   0.9384 B(  4-C , 13-H ) :   0.9290 B(  5-C ,  6-C ) :   1.3669 
B(  5-C , 14-H ) :   0.9605 B(  6-C , 15-H ) :   0.9379 B(  6-C , 16-H ) :   0.9329 


-------
TIMINGS
-------

Total SCF time: 0 days 0 hours 0 min 5 sec 

Total time                  ....       5.472 sec
Sum of individual times     ....       5.341 sec  ( 97.6%)

Fock matrix formation       ....       4.752 sec  ( 86.8%)
  Split-RI-J                ....       1.508 sec  ( 31.7% of F)
  Chain of spheres X        ....       2.871 sec  ( 60.4% of F)
  XC integration            ....       0.350 sec  (  7.4% of F)
    Basis function eval.    ....       0.124 sec  ( 35.5% of XC)
    Density eval.           ....       0.061 sec  ( 17.6% of XC)
    XC-Functional eval.     ....       0.022 sec  (  6.2% of XC)
    XC-Potential eval.      ....       0.097 sec  ( 27.7% of XC)
Diagonalization             ....       0.014 sec  (  0.3%)
Density matrix formation    ....       0.003 sec  (  0.1%)
Population analysis         ....       0.004 sec  (  0.1%)
Initial guess               ....       0.114 sec  (  2.1%)
Orbital Transformation      ....       0.000 sec  (  0.0%)
Orbital Orthonormalization  ....       0.000 sec  (  0.0%)
DIIS solution               ....       0.006 sec  (  0.1%)
SOSCF solution              ....       0.007 sec  (  0.1%)
Grid generation             ....       0.442 sec  (  8.1%)


-------------------------------------------------------------------------------
                          DFT DISPERSION CORRECTION                            
                                                                               
                              DFTD3 V3.1  Rev 1                                
                          USING Becke-Johnson damping                          
-------------------------------------------------------------------------------
The PBE0 functional is recognized
Active option DFTDOPT                   ...         4   

molecular C6(AA) [au] = 2287.972028 


            DFT-D V3
 parameters
 s6 scaling factor         :     1.0000 
 a1 scaling factor         :     0.4145 
 s8 scaling factor         :     1.2177 
 a2 scaling factor         :     4.8593 
 ad hoc parameters k1-k3   :    16.0000     1.3333    -4.0000 

 Edisp/kcal,au: -8.604022594664  -0.013711381314 
 E6   /kcal   :  -5.503754936 
 E8   /kcal   :  -3.100267658 
 % E8         :  36.032769839 

-------------------------   ----------------
Dispersion correction           -0.013711381
-------------------------   ----------------


-------------------------   --------------------
FINAL SINGLE POINT ENERGY      -309.190607429421
-------------------------   --------------------



           ************************************************************
           *        Program running with 8 parallel MPI-processes     *
           *              working on a common directory               *
           ************************************************************
------------------------------------------------------------------------------
                         ORCA SCF GRADIENT CALCULATION
------------------------------------------------------------------------------

Gradient of the Kohn-Sham DFT energy:
Kohn-Sham wavefunction type      ... RKS
Hartree-Fock exchange scaling    ...    0.250
Number of operators              ...    1
Number of atoms                  ...   17
Basis set dimensions             ...  148
Integral neglect threshold       ... 2.5e-11
Integral primitive cutoff        ... 2.5e-12

Nuclear repulsion gradient       ... done
One Electron Gradient            ... done
Pre-screening matrix             ... done
RI-J gradient                    ... done
COSX-gradient                    ... done
Exchange-correlation gradient    ... done
Dispersion correction            ... done

------------------
CARTESIAN GRADIENT
------------------

   1   C   :   -0.008209335    0.003074691   -0.005077070
   2   C   :    0.003757261   -0.005258920   -0.006050856
   3   C   :   -0.010488377   -0.007081377   -0.001892853
   4   O   :    0.005979603   -0.004067005    0.000641195
   5   C   :    0.003562639   -0.002589639    0.005319304
   6   C   :   -0.004052148    0.004752791    0.002148379
   7   C   :    0.008247968    0.000992990   -0.006820215
   8   H   :    0.001016782   -0.006897945   -0.001734210
   9   H   :   -0.002518579   -0.000719166    0.008489726
  10   H   :   -0.005050496    0.008057384    0.003896522
  11   H   :   -0.000001915    0.005257744   -0.000801498
  12   H   :   -0.001359135    0.002596883    0.001920855
  13   H   :   -0.000185043    0.007321754    0.001926388
  14   H   :    0.002281161    0.000764420   -0.008867710
  15   H   :    0.004774990   -0.008055788   -0.004361412
  16   H   :    0.003441050   -0.005760284    0.005668925
  17   H   :   -0.000784957    0.005916116    0.004909612

Difference to translation invariance:
           :    0.0004114701   -0.0016953526   -0.0006849167

Norm of the cartesian gradient     ...    0.0355866968
RMS gradient                       ...    0.0049831343
MAX gradient                       ...    0.0104883775

-------
TIMINGS
-------

Total SCF gradient time            ...        1.524 sec

One electron gradient       ....       0.016 sec  (  1.0%)
Prescreening matrices       ....       0.022 sec  (  1.4%)
RI-J Coulomb gradient       ....       0.236 sec  ( 15.5%)
COSX gradient               ....       0.561 sec  ( 36.8%)
XC gradient                 ....       0.353 sec  ( 23.2%)


           ************************************************************
           *        Program running with 8 parallel MPI-processes     *
           *              working on a common directory               *
           ************************************************************

-------------------------------------------------------------------------------
                               ORCA SCF HESSIAN
-------------------------------------------------------------------------------

Hessian of the Kohn-Sham DFT energy:
Kohn-Sham wavefunction type                      ... RKS
Hartree-Fock exchange scaling                    ...    0.250
Number of operators                              ...    1
Number of atoms                                  ...   17
Basis set dimensions                             ...  148
Integral neglect threshold                       ... 2.5e-11
Integral primitive cutoff                        ... 2.5e-12

Setting up DFT Hessian calculations              ... 
Electron density on the grid                     ... found on disk
Electron density on the final grid               ... found on disk
Building xc-kernel on the grid                   ... done   (      0.0 sec)
Building xc-kernel on the final grid             ... done   (      0.0 sec)
                                                     done   (      0.1 sec)

Nuclear repulsion Hessian                        ... done   (      0.0 sec)

----------------------------------------------
Forming right-hand sides of CP-SCF equations     ...
----------------------------------------------
One electron integral derivatives                ... done   (      0.1 sec)
Transforming the overlap derivative matrices     ... done   (      0.0 sec)
Making the Q(x) pseudodensities                  ... done   (      0.0 sec)
Adding the E*S(x)*S(y) terms to the Hessian      ... done   (      0.0 sec)
Calculating energy weighted overlap derivatives  ... done   (      0.0 sec)
Two electron integral derivatives (RI)           ... done   (      3.0 sec)
Exchange-correlation integral derivatives        ... done   (      5.9 sec)
tr(F(y)Q(x)) contribution to the Hessian         ... done   (      0.0 sec)
Response fock operator R(S(x)) (RIJCOSX)         ... done   (      2.8 sec)
XC Response fock operator R(S(x))                ... done   (      1.7 sec)
tr(F(y)S(x)) contribution to the Hessian         ... done   (      0.0 sec)
Transforming and finalizing RHSs                 ... done   (      0.0 sec)

----------------------------------------------
Solving the CP-SCF equations (RIJCOSX)           ...
----------------------------------------------
     CP-SCF ITERATION   0: 
     CP-SCF ITERATION   1:      0.006882758219
     CP-SCF ITERATION   2:      0.000614323695
     CP-SCF ITERATION   3:      0.000092087986
     CP-SCF ITERATION   4:      0.000010733224
     CP-SCF ITERATION   5:      0.000000334727
     CP-SCF ITERATION   6:      0.000000047736
     CP-SCF ITERATION   7:      0.000000009455

                                                 ... done   (     14.8 sec)
Forming perturbed density Hessian contributions  ... done   (      0.0 sec)
2nd integral derivative contribs (RI)            ... done   (      8.5 sec)
Exchange-correlation Hessian                     ... done   (      4.2 sec)
Dispersion correction in the Hessian             ... done   (      1.4 sec)
Dipol derivatives                                ... done   (      0.3 sec)

Total SCF Hessian time: 0 days 0 hours 0 min 43 sec 

Writing the Hessian file to the disk             ... done


Maximum memory used throughout the entire calculation: 130.3 MB

-----------------------
VIBRATIONAL FREQUENCIES
-----------------------

Scaling factor for frequencies =  1.000000000  (already applied!)

   0:         0.00 cm**-1
   1:         0.00 cm**-1
   2:         0.00 cm**-1
   3:         0.00 cm**-1
   4:         0.00 cm**-1
   5:         0.00 cm**-1
   6:      -185.96 cm**-1 ***imaginary mode***
   7:       106.18 cm**-1
   8:       211.23 cm**-1
   9:       238.20 cm**-1
  10:       293.28 cm**-1
  11:       376.48 cm**-1
  12:       431.04 cm**-1
  13:       481.48 cm**-1
  14:       511.70 cm**-1
  15:       534.48 cm**-1
  16:       653.98 cm**-1
  17:       709.45 cm**-1
  18:       753.75 cm**-1
  19:       847.99 cm**-1
  20:       912.41 cm**-1
  21:       948.39 cm**-1
  22:       964.99 cm**-1
  23:       997.00 cm**-1
  24:      1018.70 cm**-1
  25:      1031.78 cm**-1
  26:      1070.04 cm**-1
  27:      1148.26 cm**-1
  28:      1172.86 cm**-1
  29:      1194.96 cm**-1
  30:      1207.85 cm**-1
  31:      1224.06 cm**-1
  32:      1250.73 cm**-1
  33:      1255.85 cm**-1
  34:      1304.84 cm**-1
  35:      1372.01 cm**-1
  36:      1400.09 cm**-1
  37:      1446.95 cm**-1
  38:      1479.19 cm**-1
  39:      1494.94 cm**-1
  40:      1555.36 cm**-1
  41:      3117.50 cm**-1
  42:      3209.77 cm**-1
  43:      3212.32 cm**-1
  44:      3218.30 cm**-1
  45:      3298.73 cm**-1
  46:      3301.78 cm**-1
  47:      3306.00 cm**-1
  48:      3321.69 cm**-1
  49:      3333.99 cm**-1
  50:      3885.24 cm**-1


------------
NORMAL MODES
------------

These modes are the Cartesian displacements weighted by the diagonal matrix
M(i,i)=1/sqrt(m[i]) where m[i] is the mass of the displaced atom
Thus, these vectors are normalized but *not* orthogonal

                  0          1          2          3          4          5    
      0       0.000000   0.000000   0.000000   0.000000   0.000000   0.000000
      1       0.000000   0.000000   0.000000   0.000000   0.000000   0.000000
      2       0.000000   0.000000   0.000000   0.000000   0.000000   0.000000
      3       0.000000   0.000000   0.000000   0.000000   0.000000   0.000000
      4       0.000000   0.000000   0.000000   0.000000   0.000000   0.000000
      5       0.000000   0.000000   0.000000   0.000000   0.000000   0.000000
      6       0.000000   0.000000   0.000000   0.000000   0.000000   0.000000
      7       0.000000   0.000000   0.000000   0.000000   0.000000   0.000000
      8       0.000000   0.000000   0.000000   0.000000   0.000000   0.000000
      9       0.000000   0.000000   0.000000   0.000000   0.000000   0.000000
     10       0.000000   0.000000   0.000000   0.000000   0.000000   0.000000
     11       0.000000   0.000000   0.000000   0.000000   0.000000   0.000000
     12       0.000000   0.000000   0.000000   0.000000   0.000000   0.000000
     13       0.000000   0.000000   0.000000   0.000000   0.000000   0.000000
     14       0.000000   0.000000   0.000000   0.000000   0.000000   0.000000
     15       0.000000   0.000000   0.000000   0.000000   0.000000   0.000000
     16       0.000000   0.000000   0.000000   0.000000   0.000000   0.000000
     17       0.000000   0.000000   0.000000   0.000000   0.000000   0.000000
     18       0.000000   0.000000   0.000000   0.000000   0.000000   0.000000
     19       0.000000   0.000000   0.000000   0.000000   0.000000   0.000000
     20       0.000000   0.000000   0.000000   0.000000   0.000000   0.000000
     21       0.000000   0.000000   0.000000   0.000000   0.000000   0.000000
     22       0.000000   0.000000   0.000000   0.000000   0.000000   0.000000
     23       0.000000   0.000000   0.000000   0.000000   0.000000   0.000000
     24       0.000000   0.000000   0.000000   0.000000   0.000000   0.000000
     25       0.000000   0.000000   0.000000   0.000000   0.000000   0.000000
     26       0.000000   0.000000   0.000000   0.000000   0.000000   0.000000
     27       0.000000   0.000000   0.000000   0.000000   0.000000   0.000000
     28       0.000000   0.000000   0.000000   0.000000   0.000000   0.000000
     29       0.000000   0.000000   0.000000   0.000000   0.000000   0.000000
     30       0.000000   0.000000   0.000000   0.000000   0.000000   0.000000
     31       0.000000   0.000000   0.000000   0.000000   0.000000   0.000000
     32       0.000000   0.000000   0.000000   0.000000   0.000000   0.000000
     33       0.000000   0.000000   0.000000   0.000000   0.000000   0.000000
     34       0.000000   0.000000   0.000000   0.000000   0.000000   0.000000
     35       0.000000   0.000000   0.000000   0.000000   0.000000   0.000000
     36       0.000000   0.000000   0.000000   0.000000   0.000000   0.000000
     37       0.000000   0.000000   0.000000   0.000000   0.000000   0.000000
     38       0.000000   0.000000   0.000000   0.000000   0.000000   0.000000
     39       0.000000   0.000000   0.000000   0.000000   0.000000   0.000000
     40       0.000000   0.000000   0.000000   0.000000   0.000000   0.000000
     41       0.000000   0.000000   0.000000   0.000000   0.000000   0.000000
     42       0.000000   0.000000   0.000000   0.000000   0.000000   0.000000
     43       0.000000   0.000000   0.000000   0.000000   0.000000   0.000000
     44       0.000000   0.000000   0.000000   0.000000   0.000000   0.000000
     45       0.000000   0.000000   0.000000   0.000000   0.000000   0.000000
     46       0.000000   0.000000   0.000000   0.000000   0.000000   0.000000
     47       0.000000   0.000000   0.000000   0.000000   0.000000   0.000000
     48       0.000000   0.000000   0.000000   0.000000   0.000000   0.000000
     49       0.000000   0.000000   0.000000   0.000000   0.000000   0.000000
     50       0.000000   0.000000   0.000000   0.000000   0.000000   0.000000
                  6          7          8          9         10         11    
      0      -0.435336  -0.061135   0.003188   0.028898  -0.020464   0.049564
      1      -0.071695   0.097429  -0.103596   0.020927  -0.054600   0.019172
      2      -0.072270   0.025261  -0.170558   0.059874  -0.021288  -0.089644
      3      -0.015083  -0.029269   0.010568  -0.020617  -0.053011  -0.009853
      4      -0.008387   0.082236   0.078862  -0.032112  -0.025072   0.014983
      5       0.037310  -0.020530   0.026103   0.028860   0.032141  -0.047156
      6       0.375445  -0.006841  -0.003820  -0.024976   0.022842  -0.019680
      7       0.110029  -0.018054   0.036517  -0.003907   0.076039  -0.021476
      8      -0.011329  -0.013065   0.023589   0.025428   0.070357  -0.043650
      9       0.015630   0.147571  -0.022585   0.073749   0.126971  -0.063225
     10      -0.014010  -0.098305  -0.071890   0.022551   0.067889  -0.053217
     11       0.025232   0.152848   0.196013  -0.009640   0.090118   0.007962
     12      -0.411363  -0.051748   0.044699  -0.014184   0.030606  -0.003459
     13      -0.092187   0.133286   0.002097  -0.035708  -0.009952   0.029621
     14      -0.048054   0.051331  -0.054811  -0.012146  -0.050469   0.172827
     15       0.020248  -0.036366   0.033377  -0.033735  -0.074430   0.020888
     16      -0.024420   0.006298   0.061880  -0.055253  -0.108204  -0.107601
     17       0.052282  -0.112573   0.019190  -0.026175  -0.088920  -0.019007
     18       0.464999   0.011916  -0.064786  -0.005161  -0.051686   0.059191
     19       0.098148  -0.178911   0.014499   0.042550   0.072141   0.091832
     20       0.009256  -0.100896  -0.016167  -0.003475  -0.072534  -0.002078
     21       0.111126  -0.226110   0.041032   0.020046   0.068875   0.131672
     22       0.021504   0.052001   0.038041   0.009323  -0.026623   0.062070
     23      -0.118110   0.091329  -0.493672   0.084616  -0.064857  -0.167754
     24      -0.126102  -0.023877   0.011091   0.037061  -0.012852   0.052373
     25      -0.043030   0.228426  -0.415765   0.058880  -0.150516  -0.087383
     26       0.036570   0.044060  -0.179778   0.065027  -0.021109  -0.093027
     27      -0.142654  -0.023967   0.190230  -0.088022  -0.245763   0.055095
     28      -0.058477   0.118882   0.099656  -0.050408  -0.135091   0.036200
     29       0.023762  -0.093887   0.152107   0.006926   0.078735  -0.030357
     30       0.062250  -0.031316   0.036717  -0.056753  -0.025198   0.061347
     31      -0.026403  -0.124899  -0.006048  -0.003141   0.034651  -0.007146
     32       0.035173  -0.127096  -0.057868   0.049787   0.055674  -0.085415
     33      -0.142629   0.105028  -0.215776  -0.126800   0.286579  -0.099325
     34       0.282330  -0.019052   0.290050   0.401990  -0.232891   0.013956
     35      -0.059151  -0.121810  -0.342661  -0.830315   0.479715  -0.003305
     36       0.018899  -0.141126   0.045852   0.045287   0.228747  -0.093511
     37      -0.025918   0.045005   0.045306  -0.034452   0.003110  -0.129950
     38      -0.066486   0.235061  -0.155987  -0.001684  -0.034008   0.526019
     39      -0.109693  -0.044296   0.045871  -0.069278  -0.082127   0.005445
     40      -0.026480   0.355218  -0.104897  -0.061550  -0.090824   0.428316
     41       0.057271   0.061865  -0.057790  -0.032562  -0.095115   0.191045
     42       0.032431  -0.081620   0.151538  -0.145745  -0.367878  -0.266291
     43      -0.005132   0.074872   0.087412  -0.112390  -0.243717  -0.204354
     44       0.027389  -0.282154   0.075108  -0.015915  -0.089245  -0.089874
     45       0.140878  -0.019621  -0.043026   0.005001  -0.064637  -0.044107
     46      -0.055304  -0.359973   0.041362   0.095329   0.184058   0.198109
     47       0.041363  -0.296514   0.001476   0.052803   0.070589   0.198723
     48      -0.079587   0.211364  -0.181826   0.040081  -0.059631   0.049165
     49       0.022380  -0.267262  -0.009576   0.095165   0.171902   0.218717
[...]
      3       0.017077  -0.062165   0.005461   0.018496   0.003739   0.000974
      4      -0.023234   0.028494   0.000506  -0.083212  -0.099057  -0.006660
      5      -0.012388   0.100386  -0.001235   0.174593   0.229935   0.000485
      6       0.005403   0.042679  -0.003907  -0.007403   0.055738  -0.028781
      7       0.046356  -0.063363  -0.002416   0.002097   0.017965   0.058286
      8       0.059276  -0.158482   0.003853  -0.087718  -0.138889  -0.055071
      9      -0.010842   0.003638   0.000023   0.004730  -0.005729  -0.000453
     10      -0.003156   0.011923  -0.000352   0.000096   0.002185   0.000743
     11      -0.008886   0.020708  -0.000376   0.008503   0.013453   0.001130
     12      -0.005239   0.014789  -0.028145   0.004469   0.057399  -0.000701
     13       0.031216   0.019489   0.087252   0.068343  -0.125591  -0.005538
     14       0.005535  -0.004675  -0.050479  -0.058023   0.132736   0.002813
     15       0.000321  -0.008030   0.049589   0.008331  -0.018587   0.000320
     16       0.049450  -0.000509  -0.033064  -0.058642   0.154233  -0.000364
     17      -0.103337   0.010964  -0.020886   0.103073  -0.280913  -0.000343
     18      -0.005640  -0.005556  -0.017662  -0.017454  -0.036751  -0.000185
     19      -0.025952   0.000504   0.005800   0.011039  -0.042204   0.000289
     20      -0.013951  -0.023798   0.108982  -0.073011   0.172581   0.000105
     21       0.089618   0.144538   0.011604  -0.150500   0.016323  -0.000413
     22       0.065745   0.117592   0.007525  -0.129139  -0.042112  -0.001951
     23      -0.135558  -0.430585  -0.010498   0.435817   0.241585   0.000916
     24       0.040641  -0.158184   0.027504  -0.023089   0.045940   0.002199
     25       0.139861   0.593175   0.020202  -0.388198  -0.107185   0.000715
     26       0.021064  -0.034824   0.008292  -0.109088  -0.085623  -0.007402
     27       0.026937  -0.066104  -0.004110  -0.015970  -0.021927  -0.033824
     28      -0.002207   0.115858  -0.005555   0.110636   0.122071   0.076024
     29      -0.058818  -0.053200   0.003292  -0.295917  -0.279757   0.029212
     30       0.025451  -0.091832   0.027792   0.085750  -0.074361   0.366864
     31      -0.202271   0.333891   0.012319   0.124656   0.096897  -0.696135
     32      -0.234544   0.356011   0.001250  -0.025669  -0.001666   0.598201
     33       0.034980  -0.004797  -0.000702  -0.015362   0.021441   0.003500
     34      -0.079845   0.026052  -0.000080   0.036371  -0.036058   0.003259
     35      -0.047307   0.037789   0.001755   0.015719  -0.026192  -0.000165
     36      -0.144418  -0.027171  -0.121142  -0.101226   0.033176  -0.013066
     37      -0.144942  -0.056781  -0.140356  -0.110214   0.075536   0.055298
     38       0.303097   0.136390   0.398317   0.291008  -0.339417   0.026836
     39       0.146001  -0.047418   0.120123  -0.015856  -0.054363   0.018057
     40      -0.443903  -0.151635  -0.474734  -0.257159   0.188366   0.002067
     41       0.038184  -0.035593  -0.035445  -0.088288   0.130534  -0.058311
     42       0.007782   0.006388   0.019471  -0.003764   0.011137  -0.002534
     43      -0.184167   0.025461  -0.057606   0.105724  -0.199531   0.005458
     44       0.316885  -0.021630  -0.031438  -0.201245   0.377628   0.003681
     45      -0.050572  -0.025733   0.078205   0.057490   0.032488   0.001890
     46       0.228999   0.066100  -0.332354   0.207233  -0.208531  -0.002822
     47       0.383200   0.080799  -0.418319   0.135465  -0.074992   0.002294
     48       0.143952   0.057249  -0.182110   0.140787  -0.057359   0.000304
     49      -0.170801  -0.056213   0.272457  -0.150900   0.227183  -0.001829
     50       0.273359   0.081806  -0.363989   0.220002  -0.252078  -0.001287
                 42         43         44         45         46         47    
      0       0.003006   0.000119  -0.010199   0.008029  -0.000492   0.006820
      1       0.012295   0.000667  -0.054341  -0.020781  -0.000064  -0.012444
      2      -0.010742  -0.000502   0.036227  -0.018178   0.003206  -0.019835
      3      -0.000031  -0.000695  -0.000062  -0.034407  -0.003376   0.004428
      4       0.000166   0.002143  -0.001207   0.067703   0.007237  -0.008359
      5       0.000788   0.000445  -0.004404   0.031408   0.003328  -0.003699
      6      -0.000099   0.002350   0.000968  -0.001310   0.000096   0.000232
      7       0.000093  -0.004646  -0.000936   0.005542   0.001369  -0.000551
      8      -0.000053   0.004829   0.000174  -0.007840  -0.001476   0.000668
      9       0.000036   0.000251  -0.000218  -0.000029   0.000080   0.000053
     10      -0.000026   0.000090   0.000150  -0.000277  -0.000081   0.000106
     11       0.000041  -0.000109  -0.000112  -0.000075   0.000108   0.000059
     12      -0.000533  -0.003931  -0.000413   0.000787   0.009455   0.013798
     13      -0.002400  -0.063299  -0.001088   0.000836  -0.016216  -0.021862
     14       0.000572   0.025653   0.000775  -0.001104  -0.023957  -0.038604
     15       0.000781  -0.001426   0.000319   0.002404  -0.026722  -0.013948
     16       0.002625   0.001263   0.000736  -0.003984   0.051952   0.026315
     17      -0.003252  -0.004149  -0.001050  -0.002164   0.028902   0.015377
     18       0.011890  -0.000182   0.002234  -0.001913   0.017161  -0.022291
     19       0.013230  -0.000247   0.005793   0.006900  -0.051727   0.069129
     20       0.064208  -0.002748   0.015671  -0.000736   0.001204  -0.008364
     21       0.017124   0.001294  -0.082166  -0.026799   0.000386  -0.020917
     22      -0.142250  -0.006588   0.621339   0.223423  -0.002177   0.149568
     23      -0.059938  -0.002899   0.256672   0.088156   0.000268   0.057556
     24      -0.057922  -0.002922   0.223957  -0.055656   0.010418  -0.061294
     25       0.003477   0.000068  -0.013994   0.000422  -0.000291  -0.000599
     26       0.175284   0.008132  -0.651390   0.152465  -0.032487   0.176264
     27       0.006692   0.008767  -0.022424   0.373091   0.036633  -0.044788
     28      -0.011300  -0.020655   0.047001  -0.790400  -0.079614   0.094632
     29      -0.005268  -0.009090   0.022131  -0.356672  -0.036158   0.042483
     30       0.000462  -0.032697  -0.005903   0.028079   0.004646  -0.002344
     31      -0.000054   0.057530   0.007481  -0.057442  -0.011378   0.004122
     32      -0.000215  -0.050726  -0.005172   0.052873   0.009965  -0.003585
     33      -0.000142  -0.000498   0.002696   0.001335   0.000584   0.000602
     34      -0.000387   0.000103   0.001155   0.000789  -0.000188   0.000599
     35       0.000028   0.000138   0.000017  -0.001146  -0.000180   0.000724
     36      -0.002570  -0.124768  -0.001456  -0.000451  -0.033201  -0.045217
     37       0.026788   0.681346   0.011981  -0.008384   0.190603   0.272585
     38       0.014365   0.327601   0.006080  -0.003368   0.086509   0.126624
     39       0.006214   0.197118   0.005365  -0.006269  -0.072175  -0.114288
     40      -0.000761   0.023599   0.000459  -0.001787  -0.013304  -0.021973
     41      -0.018813  -0.598738  -0.015858   0.017009   0.213496   0.340209
     42       0.010520  -0.011180   0.000569  -0.023704   0.296000   0.147921
     43      -0.022891   0.024792  -0.003059   0.048569  -0.610478  -0.304673
     44      -0.011454   0.015093  -0.001476   0.027414  -0.342791  -0.173083
     45      -0.239416   0.010893  -0.054530   0.022131  -0.162625   0.225434
     46       0.469393  -0.020304   0.102527  -0.043563   0.306151  -0.429699
     47      -0.332472   0.016333  -0.071861   0.032004  -0.227991   0.322227
     48       0.079557  -0.005128   0.022566   0.003396  -0.035735   0.044643
     49      -0.631517   0.022692  -0.169073  -0.037090   0.310729  -0.388585
     50      -0.376068   0.015525  -0.102069  -0.024036   0.194124  -0.241474
                  48         49         50    
      0      -0.021819  -0.007186   0.000172
      1       0.046923   0.016704  -0.000258
      2       0.068207   0.023405   0.000045
      3      -0.009438  -0.003884  -0.000091
      4       0.018105   0.007673  -0.000472
      5       0.007785   0.003380  -0.000192
      6      -0.000301   0.000411   0.001478
      7       0.001484   0.000768  -0.000278
      8      -0.001732  -0.000373  -0.000754
      9       0.000127  -0.000038   0.053285
     10      -0.000173  -0.000387   0.032142
     11       0.000125  -0.000056   0.001210
     12       0.010633  -0.019594   0.000149
     13      -0.015724   0.029497  -0.000098
     14      -0.032476   0.062207   0.000199
     15       0.004467  -0.019281  -0.000097
     16      -0.008314   0.036002   0.000380
     17      -0.004353   0.020192  -0.000191
     18      -0.003780  -0.008584  -0.000096
     19       0.013393   0.029738   0.000100
     20       0.000257  -0.004918   0.000094
     21       0.067396   0.022479  -0.000975
     22      -0.568761  -0.203553   0.002530
     23      -0.220714  -0.078625   0.002420
     24       0.199615   0.067131   0.000255
     25       0.000293  -0.000187  -0.000278
     26      -0.579984  -0.196233  -0.000764
     27       0.096627   0.043833  -0.000215
     28      -0.205145  -0.090476  -0.000706
     29      -0.090942  -0.040085  -0.001352
     30       0.006386   0.000689   0.002529
     31      -0.011034  -0.002791  -0.005282
     32       0.011311   0.001292   0.000493
     33      -0.001706   0.000539  -0.865313
     34      -0.000279  -0.000878  -0.497190
     35      -0.000428  -0.001380  -0.010333
     36      -0.036304   0.069622   0.000359
     37       0.210495  -0.403280  -0.000473
     38       0.097373  -0.183937   0.000101
     39      -0.093300   0.175621  -0.000364
     40      -0.018842   0.035319  -0.000298
     41       0.283512  -0.539015  -0.000136
     42      -0.043855   0.200614  -0.000259
     43       0.091109  -0.411929  -0.000556
     44       0.049975  -0.230775  -0.000273
     45       0.037825   0.093888  -0.000249
     46      -0.071501  -0.183777  -0.000054
     47       0.052740   0.137541   0.000144
     48       0.006447   0.018692   0.000444
     49      -0.089286  -0.166737  -0.000393
     50      -0.053897  -0.105851   0.000008


-----------
IR SPECTRUM
-----------

 Mode    freq (cm**-1)   T**2         TX         TY         TZ
-------------------------------------------------------------------
   7:       165.63    8.076840  (  0.821246  -0.491065   2.676051)
   8:       216.31   81.825169  (  2.460126  -2.767704   8.253046)
   9:       265.45    4.228922  ( -1.016805   0.764534  -1.615710)
  10:       299.24   27.323443  (  2.954939  -1.248194   4.127201)
  11:       343.82    6.444678  (  1.520265   1.728704   1.070074)
  12:       417.05    1.033739  (  0.739008   0.692043  -0.093178)
  13:       457.24    4.635245  ( -0.554402  -2.063386  -0.265177)
  14:       529.60   12.185430  ( -2.822542  -1.773214  -1.036533)
  15:       549.31    8.596177  (  1.734773   2.360935  -0.112797)
  16:       675.25    3.080206  (  0.081159   0.280541   1.730582)
  17:       768.72    4.753031  ( -1.593133   0.769702   1.273780)
  18:       799.92  272.880821  (-16.481001  -1.036003  -0.429110)
  19:       878.39    3.389238  ( -0.153489  -1.764005   0.503949)
  20:       919.50   31.012210  (  0.695570   0.020948   5.525211)
  21:       969.06    0.314897  ( -0.450296  -0.286016  -0.174142)
  22:       984.35    1.169299  ( -0.283935   0.855475  -0.597363)
  23:      1011.58   18.855020  (  0.804408   4.226588   0.586434)
  24:      1029.47    3.599183  (  0.576239   1.671564   0.687755)
  25:      1042.64    9.317992  (  1.029308   2.346177   1.659509)
  26:      1072.10    3.338245  (  1.064892   1.190784   0.886727)
  27:      1124.05   10.336037  ( -0.983235  -2.076951  -2.248457)
  28:      1161.59    5.062084  ( -0.184661   1.779213   1.364692)
  29:      1179.86   20.444568  ( -0.316955   3.596700   2.721737)
  30:      1212.65   14.940677  (  0.643816   2.903633   2.468825)
  31:      1234.41   19.947444  ( -0.434797  -2.952075  -3.323198)
  32:      1260.70   15.855601  (  0.757465  -3.227536  -2.205643)
  33:      1267.98   10.617257  ( -0.063189  -2.325460  -2.281556)
  34:      1296.40   23.535573  ( -1.736173   3.816392   2.440580)
  35:      1388.77    6.844813  ( -0.002398   2.549628   0.586689)
  36:      1413.67    3.532906  (  0.370523   0.748871   1.683689)
  37:      1475.04   14.067522  ( -0.942093  -1.359715  -3.366178)
  38:      1499.14    5.103869  (  0.922588  -1.886651  -0.832616)
  39:      1517.92    4.709009  ( -0.539265  -1.555314  -1.413931)
  40:      1589.27    8.627743  ( -0.372093  -0.705036  -2.827051)
  41:      3088.53   30.651167  ( -2.468928   4.258602  -2.533747)
  42:      3119.89   11.697375  (  1.941194   0.863916   2.680072)
  43:      3124.87   14.928336  ( -1.094112  -3.474038   1.289308)
  44:      3128.92   16.406669  ( -0.866218  -2.365280   3.172032)
  45:      3189.07    5.883087  ( -1.087632   2.162647  -0.151994)
  46:      3191.58    0.630086  ( -0.534887  -0.511211   0.287483)
  47:      3206.98    2.238121  ( -0.368428   0.991408  -1.058060)
  48:      3213.85    2.465452  ( -0.383877   1.246659   0.874032)
  49:      3215.95   14.005540  ( -0.771789   3.207597   1.766693)
  50:      3871.33   42.412761  ( -4.796346  -4.173670  -1.410074)

The first frequency considered to be a vibration is 7
The total number of vibrations considered is 44


--------------------------
THERMOCHEMISTRY AT 298.15K
--------------------------

Temperature         ... 298.15 K
Pressure            ... 1.00 atm
Total Mass          ... 98.14 AMU

Throughout the following assumptions are being made:
  (1) The electronic state is orbitally nondegenerate
  (2) There are no thermally accessible electronically excited states
  (3) Hindered rotations indicated by low frequency modes are not
      treated as such but are treated as vibrations and this may
      cause some error
  (4) All equations used are the standard statistical mechanics
      equations for an ideal gas
  (5) All vibrations are strictly harmonic

freq.     165.63  E(vib)   ...       0.39 
freq.     216.31  E(vib)   ...       0.34 
freq.     265.45  E(vib)   ...       0.29 
freq.     299.24  E(vib)   ...       0.26 
freq.     343.82  E(vib)   ...       0.23 
freq.     417.05  E(vib)   ...       0.18 
freq.     457.24  E(vib)   ...       0.16 
freq.     529.60  E(vib)   ...       0.13 
freq.     549.31  E(vib)   ...       0.12 
freq.     675.25  E(vib)   ...       0.08 
freq.     768.72  E(vib)   ...       0.06 
freq.     799.92  E(vib)   ...       0.05 
freq.     878.39  E(vib)   ...       0.04 
freq.     919.50  E(vib)   ...       0.03 
freq.     969.06  E(vib)   ...       0.03 
freq.     984.35  E(vib)   ...       0.02 
freq.    1011.58  E(vib)   ...       0.02 
freq.    1029.47  E(vib)   ...       0.02 
freq.    1042.64  E(vib)   ...       0.02 
freq.    1072.10  E(vib)   ...       0.02 
freq.    1124.05  E(vib)   ...       0.01 
freq.    1161.59  E(vib)   ...       0.01 
freq.    1179.86  E(vib)   ...       0.01 
freq.    1212.65  E(vib)   ...       0.01 
freq.    1234.41  E(vib)   ...       0.01 
freq.    1260.70  E(vib)   ...       0.01 
freq.    1267.98  E(vib)   ...       0.01 
freq.    1296.40  E(vib)   ...       0.01 
freq.    1388.77  E(vib)   ...       0.00 
freq.    1413.67  E(vib)   ...       0.00 
freq.    1475.04  E(vib)   ...       0.00 
freq.    1499.14  E(vib)   ...       0.00 
freq.    1517.92  E(vib)   ...       0.00 
freq.    1589.27  E(vib)   ...       0.00 
freq.    3088.53  E(vib)   ...       0.00 
freq.    3119.89  E(vib)   ...       0.00 
freq.    3124.87  E(vib)   ...       0.00 
freq.    3128.92  E(vib)   ...       0.00 
freq.    3189.07  E(vib)   ...       0.00 
freq.    3191.58  E(vib)   ...       0.00 
freq.    3206.98  E(vib)   ...       0.00 
freq.    3213.85  E(vib)   ...       0.00 
freq.    3215.95  E(vib)   ...       0.00 
freq.    3871.33  E(vib)   ...       0.00 

------------
INNER ENERGY
------------

The inner energy is: U= E(el) + E(ZPE) + E(vib) + E(rot) + E(trans)
    E(el)   - is the total energy from the electronic structure calculation
              = E(kin-el) + E(nuc-el) + E(el-el) + E(nuc-nuc)
    E(ZPE)  - the the zero temperature vibrational energy from the frequency calculation
    E(vib)  - the the finite temperature correction to E(ZPE) due to population
              of excited vibrational states
    E(rot)  - is the rotational thermal energy
    E(trans)- is the translational thermal energy

Summary of contributions to the inner energy U:
Electronic energy                ...   -309.19347227 Eh
Zero point energy                ...      0.14663891 Eh      92.02 kcal/mol
Thermal vibrational correction   ...      0.00411813 Eh       2.58 kcal/mol
Thermal rotational correction    ...      0.00141627 Eh       0.89 kcal/mol
Thermal translational correction ...      0.00141627 Eh       0.89 kcal/mol
-----------------------------------------------------------------------
Total thermal energy                   -309.03988269 Eh


Summary of corrections to the electronic energy:
(perhaps to be used in another calculation)
Total thermal correction                  0.00695067 Eh       4.36 kcal/mol
Non-thermal (ZPE) correction              0.14663891 Eh      92.02 kcal/mol
-----------------------------------------------------------------------
Total correction                          0.15358959 Eh      96.38 kcal/mol


--------
ENTHALPY
--------

The enthalpy is H = U + kB*T
                kB is Boltzmann's constant
Total free energy                 ...   -309.03988269 Eh 
Thermal Enthalpy correction       ...      0.00094421 Eh       0.59 kcal/mol
-----------------------------------------------------------------------
Total Enthalpy                    ...   -309.03893848 Eh


Note: Rotational entropy computed according to Herzberg 
Infrared and Raman Spectra, Chapter V,1, Van Nostrand Reinhold, 1945 
Point Group:  C1, Symmetry Number:   1  
Rotational constants in cm-1:     0.119673     0.094189     0.071238 

Vibrational entropy computed according to the QRRHO of S. Grimme
Chem.Eur.J. 2012 18 9955


-------
ENTROPY
-------

The entropy contributions are T*S = T*(S(el)+S(vib)+S(rot)+S(trans))
     S(el)   - electronic entropy
     S(vib)  - vibrational entropy
     S(rot)  - rotational entropy
     S(trans)- translational entropy
The entropies will be listed as mutliplied by the temperature to get
units of energy

Electronic entropy                ...      0.00000000 Eh      0.00 kcal/mol
Vibrational entropy               ...      0.00642145 Eh      4.03 kcal/mol
Rotational entropy                ...      0.01287548 Eh      8.08 kcal/mol
Translational entropy             ...      0.01884472 Eh     11.83 kcal/mol
-----------------------------------------------------------------------
Final entropy term                ...      0.03814165 Eh     23.93 kcal/mol


-------------------
GIBBS FREE ENTHALPY
-------------------

The Gibbs free enthalpy is G = H - T*S

Total enthalpy                    ...   -309.03893848 Eh 
Total entropy correction          ...     -0.03814165 Eh    -23.93 kcal/mol
-----------------------------------------------------------------------
Final Gibbs free enthalpy         ...   -309.07708013 Eh

For completeness - the Gibbs free enthalpy minus the electronic energy
G-E(el)                           ...      0.11639214 Eh     73.04 kcal/mol


Timings for individual modules:

Sum of individual times         ...      157.371 sec (=   2.623 min)
GTO integral calculation        ...        7.061 sec (=   0.118 min)   4.5 %
SCF iterations                  ...       48.657 sec (=   0.811 min)  30.9 %
SCF Gradient evaluation         ...       15.852 sec (=   0.264 min)  10.1 %
Geometry relaxation             ...        0.699 sec (=   0.012 min)   0.4 %
Analytical frequency calculation...       85.102 sec (=   1.418 min)  54.1 %
                             ****ORCA TERMINATED NORMALLY****
TOTAL RUN TIME: 0 days 0 hours 2 minutes 40 seconds 230 msec
