      -----------------------------------------------------------      
     |                   =====================                   |     
     |                           x T B                           |     
     |                   =====================                   |     
     |                         S. Grimme                         |     
     |          Mulliken Center for Theoretical Chemistry        |     
     |                    University of Bonn                     |     
      -----------------------------------------------------------      

   * xtb version 6.2.3 (830e466) compiled by 'ehlert@majestix' on 2020-03-16

   xtb is free software: you can redistribute it and/or modify it under
   the terms of the GNU Lesser General Public License as published by
   the Free Software Foundation, either version 3 of the License, or
   (at your option) any later version.
   
   xtb is distributed in the hope that it will be useful,
   but WITHOUT ANY WARRANTY; without even the implied warranty of
   MERCHANTABILITY or FITNESS FOR A PARTICULAR PURPOSE.  See the
   GNU Lesser General Public License for more details.
   
   Cite this work as:
   * S. Grimme, C. Bannwarth, P. Shushkov, J. Chem. Theory Comput., 2017,
     13, 1989-2009. DOI: 10.1021/acs.jctc.7b00118
   * C. Bannwarth, S. Ehlert and S. Grimme., J. Chem. Theory Comput., 2019,
     15, 1652-1671. DOI: 10.1021/acs.jctc.8b01176
   * P. Pracht, E. Caldeweyher, S. Ehlert, S. Grimme, ChemRxiv, 2019, preprint.
     DOI: 10.26434/chemrxiv.8326202.v1
   
   for DFT-D4:
   * E. Caldeweyher, C. Bannwarth and S. Grimme, J. Chem. Phys., 2017,
     147, 034112. DOI: 10.1063/1.4993215
   * E. Caldeweyher, S. Ehlert, A. Hansen, H. Neugebauer, S. Spicher,
     C. Bannwarth and S. Grimme, J. Chem. Phys., 2019, 150, 154122.
     DOI: 10.1063/1.5090222
   
   for sTDA-xTB:
   * S. Grimme and C. Bannwarth, J. Chem. Phys., 2016, 145, 054103.
     DOI: 10.1063/1.4959605
   
   in the mass-spec context:
   * V. Asgeirsson, C. Bauer and S. Grimme, Chem. Sci., 2017, 8, 4879.
     DOI: 10.1039/c7sc00601b
   
   for metadynamics refer to:
   * S. Grimme, J. Chem. Theory Comput., 2019, 155, 2847-2862
     DOI: 10.1021/acs.jctc.9b00143
   
   with help from (in alphabetical order)
   C. Bannwarth, F. Bohle, G. Brandenburg, E. Caldeweyher, M. Checinski,
   S. Dohm, S. Ehlert, S. Ehrlich, F. März, H. Neugebauer, J. Pisarek,
   P. Pracht, P. Shushkov, and S. Spicher.
   
 * started run on 2020/08/20 at 17:46:29.128     

           -------------------------------------------------
          |                Calculation Setup                |
           -------------------------------------------------

          program call               : /u/fd/ball4935/opt/bin/xtb 11_0_xtb.xyz --chrg -1 --grad --gbsa Water
          hostname                   : comp0810
          coordinate file            : 11_0_xtb.xyz
          omp threads                :                     1
          number of atoms            :                     6
          number of electrons        :                    22
          charge                     :                    -1
          spin                       :                   0.0
          first test random number   :      0.34912335298745


molecular fragmentation (1/2 indicates fragments):
121111
# atoms in fragment 1/2:     5     1
 fragment masses (1/2) :       34.03       35.45
CMA distance (Bohr)    :   9.044
constraining FC (au)   :  0.0500
########################################################################
[WARNING] Please study the warnings concerning your input carefully
-2- prog_main: XTBPATH is not set, using XTBHOME instead
-1- prog_main: XTBHOME is not set, using HOME instead
########################################################################
           ------------------------------------------------- 
          |                 G F N 2 - x T B                 |
          | Geometry, Frequencies, Noncovalent interactions |
          |            JCTC 2019 parametrisation            |
           ------------------------------------------------- 
             k(s)              :                1.8500
             k(p)              :                2.2300
             k(d)              :                2.2300
             k(f)              :                2.0000
             kEN (H0ij)        :               -2.0000
             D4 a1             :                0.5200
             D4 a2             :                5.0000
             D4 s6             :                1.0000
             D4 s8             :                2.7000
             D4 s9             :                5.0000
             alphaj            :                2.0000

  Z AO/shell   Hii/eV     exponent
  1     Wed Apr 25 08:07:45 CEST 2018   EN: 2.200 GM2: 0.406  GM3: 0.0800  RAES: 1.40
     1s    -10.707211    1.230000
  6     Wed Apr 25 08:07:45 CEST 2018   EN: 2.550 GM2: 0.538  GM3: 0.1500  RAES: 3.00
     2s    -13.970922    2.096432
     2p    -10.063292    1.800000
  9     Mon Apr 23 13:58:50 CEST 2018   EN: 3.980 GM2: 0.532  GM3: 0.1426  RAES: 2.40
     2s    -23.458179    2.416361
     2p    -15.746583    2.308399
 17     Mon Apr 23 14:09:22 CEST 2018   EN: 3.160 GM2: 0.249  GM3: 0.1495  RAES: 2.50
     3s    -29.278781    2.485265
     3p    -12.673758    2.199650
     3d     -0.240338    2.476089

 Solvent             : Water
 Using internal parameter file: .param_gbsa2_Water
 Gsolv ref. state (COSMO-RS): gsolv [1 M gas/solution]
 temperature (mdtemp)       :    298.150000000000     
 dielectric constant        :    80.2000000000000     
 rho                        :    1.00000000000000     
 mass                       :    18.0000000000000     
 surface tension            :    15.5689454083859     
 probe radius               :   0.975313790000000     
 Gshift (Eh)                :   1.857443126794793E-003
 c1                         :    1.55243817000000     
 soset                      :   0.130326360000000     
 HB correction              :  T
           ------------------------------------------------- 
          |        Self-Consistent Charge Iterations        |
           ------------------------------------------------- 

          ...................................................
          :                      SETUP                      :
          :.................................................:
          :  # basis functions                  21          :
          :  # atomic orbitals                  20          :
          :  # shells                           10          :
          :  # electrons                        22          :
          :  max. iterations                   250          :
          :  Hamiltonian                  GFN2-xTB          :
          :  restarted?                      false          :
          :  GBSA solvation                   true          :
          :  PC potential                    false          :
          :  electronic temp.          300.0000000     K    :
          :  accuracy                    1.0000000          :
          :  -> integral cutoff          0.2500000E+02      :
          :  -> integral neglect         0.1000000E-07      :
          :  -> SCF convergence          0.1000000E-05 Eh   :
          :  -> wf. convergence          0.1000000E-03 e    :
          :  Broyden damping             0.4000000          :
          ...................................................

 iter      E             dE          RMSdq      gap      omega  full diag
   1    -13.2451856 -0.132452E+02  0.632E+00    7.49       0.0  T
   2    -13.3229414 -0.777558E-01  0.270E+00    4.91       1.0  T
   3    -13.3260076 -0.306624E-02  0.174E+00    4.86       1.0  T
   4    -13.3265733 -0.565722E-03  0.266E-01    4.51       1.0  T
   5    -13.3266420 -0.686748E-04  0.136E-01    4.68       1.0  T
   6    -13.3266678 -0.257836E-04  0.945E-02    4.66       1.0  T
   7    -13.3266954 -0.276163E-04  0.201E-02    4.68       2.0  T
   8    -13.3266951  0.267637E-06  0.174E-02    4.68       2.4  T
   9    -13.3266959 -0.804296E-06  0.115E-03    4.68      35.5  T
  10    -13.3266959 -0.251697E-08  0.141E-04    4.68     290.1  T
  11    -13.3266959 -0.353335E-10  0.448E-06    4.68    9105.6  T

   *** convergence criteria satisfied after 11 iterations ***

         #    Occupation            Energy/Eh            Energy/eV
      -------------------------------------------------------------
         1        2.0000           -0.9862767             -26.8380
       ...           ...                  ...                  ...
         5        2.0000           -0.5174452             -14.0804
         6        2.0000           -0.5117005             -13.9241
         7        2.0000           -0.4606607             -12.5352
         8        2.0000           -0.4606482             -12.5349
         9        2.0000           -0.3901927             -10.6177
        10        2.0000           -0.3893124             -10.5937
        11        2.0000           -0.3893117             -10.5937 (HOMO)
        12                         -0.2172776              -5.9124 (LUMO)
        13                          0.1204765               3.2783
        14                          0.1419281               3.8621
        15                          0.1420018               3.8641
        16                          0.1420026               3.8641
       ...                                ...                  ...
        20                          0.2309417               6.2842
      -------------------------------------------------------------
                  HL-Gap            0.1720340 Eh            4.6813 eV
             Fermi-level           -0.3032946 Eh           -8.2531 eV

 SCC (total)                   0 d,  0 h,  0 min,  0.006 sec
 SCC setup                      ...        0 min,  0.000 sec (  5.399%)
 Dispersion                     ...        0 min,  0.000 sec (  0.472%)
 integral evaluation            ...        0 min,  0.001 sec ( 17.031%)
 zeroth order Hamiltonian       ...        0 min,  0.000 sec (  0.800%)
 iterations                     ...        0 min,  0.003 sec ( 55.921%)
 molecular gradient             ...        0 min,  0.001 sec ( 17.589%)
 printout                       ...        0 min,  0.000 sec (  1.978%)

         :::::::::::::::::::::::::::::::::::::::::::::::::::::
         ::                     SUMMARY                     ::
         :::::::::::::::::::::::::::::::::::::::::::::::::::::
         :: total energy             -13.268209020349 Eh    ::
         :: total w/o Gsasa/hb       -13.267389856572 Eh    ::
         :: gradient norm              0.096015633195 Eh/a0 ::
         :: HOMO-LUMO gap              4.681284619862 eV    ::
         ::.................................................::
         :: SCC energy               -13.324536628794 Eh    ::
         :: -> isotropic ES            0.178461922402 Eh    ::
         :: -> anisotropic ES         -0.002346669802 Eh    ::
         :: -> anisotropic XC          0.003627933144 Eh    ::
         :: -> dispersion             -0.001396186280 Eh    ::
         :: -> Gsolv                  -0.104209685423 Eh    ::
         ::    -> Gborn               -0.103390521646 Eh    ::
         ::    -> Gsasa                0.000301858493 Eh    ::
         ::    -> Ghb                 -0.002978465397 Eh    ::
         ::    -> Gshift               0.001857443127 Eh    ::
         :: repulsion energy           0.056328509201 Eh    ::
         :: add. restraining           0.000000000000 Eh    ::
         :::::::::::::::::::::::::::::::::::::::::::::::::::::

           -------------------------------------------------
          |                Property Printout                |
           -------------------------------------------------

    * Orbital Energies and Occupations

         #    Occupation            Energy/Eh            Energy/eV
      -------------------------------------------------------------
         1        2.0000           -0.9862767             -26.8380
         2        2.0000           -0.7718152             -21.0022
         3        2.0000           -0.6090994             -16.5744
         4        2.0000           -0.5174582             -14.0808
         5        2.0000           -0.5174452             -14.0804
         6        2.0000           -0.5117005             -13.9241
         7        2.0000           -0.4606607             -12.5352
         8        2.0000           -0.4606482             -12.5349
         9        2.0000           -0.3901927             -10.6177
        10        2.0000           -0.3893124             -10.5937
        11        2.0000           -0.3893117             -10.5937 (HOMO)
        12                         -0.2172776              -5.9124 (LUMO)
        13                          0.1204765               3.2783
        14                          0.1419281               3.8621
        15                          0.1420018               3.8641
        16                          0.1420026               3.8641
        17                          0.1424973               3.8775
        18                          0.1424973               3.8775
        19                          0.2305763               6.2743
        20                          0.2309417               6.2842
      -------------------------------------------------------------
                  HL-Gap            0.1720340 Eh            4.6813 eV
             Fermi-level           -0.3032946 Eh           -8.2531 eV

     #   Z        covCN         q      C6AA      α(0)
     1   9 F      0.685    -0.363    13.084     4.270
     2  17 Cl     0.000    -1.000   127.005    17.151
     3   6 C      3.463     0.022    22.404     7.122
     4   1 H      0.926     0.114     1.664     2.017
     5   1 H      0.926     0.113     1.667     2.019
     6   1 H      0.926     0.114     1.666     2.018

 Mol. C6AA /au·bohr⁶  :        546.887667
 Mol. C8AA /au·bohr⁸  :      15932.400296
 Mol. α(0) /au        :         34.598892


Wiberg/Mayer (AO) data.
largest (>0.10) Wiberg bond orders for each atom
          total WBO             WBO to atom ...
     1  F   0.876        C    3 0.865
     2  Cl  0.000
     3  C   3.814        H    5 0.983    H    6 0.983    H    4 0.983    F    1 0.865
     4  H   0.987        C    3 0.983
     5  H   0.987        C    3 0.983
     6  H   0.987        C    3 0.983

molecular dipole:
                 x           y           z       tot (Debye)
 q only:       -4.005      -0.104       0.018
   full:       -3.827      -0.100       0.016       9.730
molecular quadrupole (traceless):
                xx          xy          yy          xz          yz          zz
 q only:      -37.405      -1.307      18.691       0.560       0.014      18.715
  q+dip:      -39.025      -1.353      19.501       0.609       0.014      19.524
   full:      -38.269      -1.330      19.123       0.587       0.014      19.147


           -------------------------------------------------
          | TOTAL ENERGY              -13.268209020349 Eh   |
          | GRADIENT NORM               0.096015633195 Eh/α |
          | HOMO-LUMO GAP               4.681284619862 eV   |
           -------------------------------------------------

------------------------------------------------------------------------
 * finished run on 2020/08/20 at 17:46:29.187     
------------------------------------------------------------------------
 total:
 * wall-time:     0 d,  0 h,  0 min,  0.058 sec
 *  cpu-time:     0 d,  0 h,  0 min,  0.018 sec
 * ratio c/w:     0.305 speedup
 SCF:
 * wall-time:     0 d,  0 h,  0 min,  0.006 sec
 *  cpu-time:     0 d,  0 h,  0 min,  0.006 sec
 * ratio c/w:     0.997 speedup

