      -----------------------------------------------------------      
     |                   =====================                   |     
     |                           x T B                           |     
     |                   =====================                   |     
     |                         S. Grimme                         |     
     |          Mulliken Center for Theoretical Chemistry        |     
     |                    University of Bonn                     |     
      -----------------------------------------------------------      

   * xtb version 6.2.3 (830e466) compiled by 'ehlert@majestix' on 2020-03-16

   xtb is free software: you can redistribute it and/or modify it under
   the terms of the GNU Lesser General Public License as published by
   the Free Software Foundation, either version 3 of the License, or
   (at your option) any later version.
   
   xtb is distributed in the hope that it will be useful,
   but WITHOUT ANY WARRANTY; without even the implied warranty of
   MERCHANTABILITY or FITNESS FOR A PARTICULAR PURPOSE.  See the
   GNU Lesser General Public License for more details.
   
   Cite this work as:
   * S. Grimme, C. Bannwarth, P. Shushkov, J. Chem. Theory Comput., 2017,
     13, 1989-2009. DOI: 10.1021/acs.jctc.7b00118
   * C. Bannwarth, S. Ehlert and S. Grimme., J. Chem. Theory Comput., 2019,
     15, 1652-1671. DOI: 10.1021/acs.jctc.8b01176
   * P. Pracht, E. Caldeweyher, S. Ehlert, S. Grimme, ChemRxiv, 2019, preprint.
     DOI: 10.26434/chemrxiv.8326202.v1
   
   for DFT-D4:
   * E. Caldeweyher, C. Bannwarth and S. Grimme, J. Chem. Phys., 2017,
     147, 034112. DOI: 10.1063/1.4993215
   * E. Caldeweyher, S. Ehlert, A. Hansen, H. Neugebauer, S. Spicher,
     C. Bannwarth and S. Grimme, J. Chem. Phys., 2019, 150, 154122.
     DOI: 10.1063/1.5090222
   
   for sTDA-xTB:
   * S. Grimme and C. Bannwarth, J. Chem. Phys., 2016, 145, 054103.
     DOI: 10.1063/1.4959605
   
   in the mass-spec context:
   * V. Asgeirsson, C. Bauer and S. Grimme, Chem. Sci., 2017, 8, 4879.
     DOI: 10.1039/c7sc00601b
   
   for metadynamics refer to:
   * S. Grimme, J. Chem. Theory Comput., 2019, 155, 2847-2862
     DOI: 10.1021/acs.jctc.9b00143
   
   with help from (in alphabetical order)
   C. Bannwarth, F. Bohle, G. Brandenburg, E. Caldeweyher, M. Checinski,
   S. Dohm, S. Ehlert, S. Ehrlich, F. März, H. Neugebauer, J. Pisarek,
   P. Pracht, P. Shushkov, and S. Spicher.
   
 * started run on 2020/08/20 at 17:46:31.299     

           -------------------------------------------------
          |                Calculation Setup                |
           -------------------------------------------------

          program call               : /u/fd/ball4935/opt/bin/xtb 11_5_xtb.xyz --chrg -1 --grad --gbsa Water
          hostname                   : comp0810
          coordinate file            : 11_5_xtb.xyz
          omp threads                :                     1
          number of atoms            :                     6
          number of electrons        :                    22
          charge                     :                    -1
          spin                       :                   0.0
          first test random number   :      0.20158751035805


molecular fragmentation (1/2 indicates fragments):
121111
# atoms in fragment 1/2:     5     1
 fragment masses (1/2) :       34.03       35.45
CMA distance (Bohr)    :   7.720
constraining FC (au)   :  0.0500
########################################################################
[WARNING] Please study the warnings concerning your input carefully
-2- prog_main: XTBPATH is not set, using XTBHOME instead
-1- prog_main: XTBHOME is not set, using HOME instead
########################################################################
           ------------------------------------------------- 
          |                 G F N 2 - x T B                 |
          | Geometry, Frequencies, Noncovalent interactions |
          |            JCTC 2019 parametrisation            |
           ------------------------------------------------- 
             k(s)              :                1.8500
             k(p)              :                2.2300
             k(d)              :                2.2300
             k(f)              :                2.0000
             kEN (H0ij)        :               -2.0000
             D4 a1             :                0.5200
             D4 a2             :                5.0000
             D4 s6             :                1.0000
             D4 s8             :                2.7000
             D4 s9             :                5.0000
             alphaj            :                2.0000

  Z AO/shell   Hii/eV     exponent
  1     Wed Apr 25 08:07:45 CEST 2018   EN: 2.200 GM2: 0.406  GM3: 0.0800  RAES: 1.40
     1s    -10.707211    1.230000
  6     Wed Apr 25 08:07:45 CEST 2018   EN: 2.550 GM2: 0.538  GM3: 0.1500  RAES: 3.00
     2s    -13.970922    2.096432
     2p    -10.063292    1.800000
  9     Mon Apr 23 13:58:50 CEST 2018   EN: 3.980 GM2: 0.532  GM3: 0.1426  RAES: 2.40
     2s    -23.458179    2.416361
     2p    -15.746583    2.308399
 17     Mon Apr 23 14:09:22 CEST 2018   EN: 3.160 GM2: 0.249  GM3: 0.1495  RAES: 2.50
     3s    -29.278781    2.485265
     3p    -12.673758    2.199650
     3d     -0.240338    2.476089

 Solvent             : Water
 Using internal parameter file: .param_gbsa2_Water
 Gsolv ref. state (COSMO-RS): gsolv [1 M gas/solution]
 temperature (mdtemp)       :    298.150000000000     
 dielectric constant        :    80.2000000000000     
 rho                        :    1.00000000000000     
 mass                       :    18.0000000000000     
 surface tension            :    15.5689454083859     
 probe radius               :   0.975313790000000     
 Gshift (Eh)                :   1.857443126794793E-003
 c1                         :    1.55243817000000     
 soset                      :   0.130326360000000     
 HB correction              :  T
           ------------------------------------------------- 
          |        Self-Consistent Charge Iterations        |
           ------------------------------------------------- 

          ...................................................
          :                      SETUP                      :
          :.................................................:
          :  # basis functions                  21          :
          :  # atomic orbitals                  20          :
          :  # shells                           10          :
          :  # electrons                        22          :
          :  max. iterations                   250          :
          :  Hamiltonian                  GFN2-xTB          :
          :  restarted?                      false          :
          :  GBSA solvation                   true          :
          :  PC potential                    false          :
          :  electronic temp.          300.0000000     K    :
          :  accuracy                    1.0000000          :
          :  -> integral cutoff          0.2500000E+02      :
          :  -> integral neglect         0.1000000E-07      :
          :  -> SCF convergence          0.1000000E-05 Eh   :
          :  -> wf. convergence          0.1000000E-03 e    :
          :  Broyden damping             0.4000000          :
          ...................................................

 iter      E             dE          RMSdq      gap      omega  full diag
   1    -13.3138776 -0.133139E+02  0.564E+00   12.47       0.0  T
   2    -13.3659263 -0.520487E-01  0.281E+00   11.51       1.0  T
   3    -13.3667426 -0.816298E-03  0.142E+00   10.99       1.0  T
   4    -13.3669025 -0.159864E-03  0.168E-01   10.78       1.0  T
   5    -13.3669300 -0.275256E-04  0.782E-02   10.86       1.0  T
   6    -13.3669354 -0.534944E-05  0.578E-02   10.88       1.0  T
   7    -13.3669418 -0.645934E-05  0.145E-02   10.88       2.8  T
   8    -13.3669418  0.595494E-07  0.555E-03   10.89       7.4  T
   9    -13.3669419 -0.115737E-06  0.437E-04   10.88      93.3  T
  10    -13.3669419 -0.126635E-09  0.584E-05   10.88     698.7  T

   *** convergence criteria satisfied after 10 iterations ***

         #    Occupation            Energy/Eh            Energy/eV
      -------------------------------------------------------------
         1        2.0000           -0.9856496             -26.8209
       ...           ...                  ...                  ...
         5        2.0000           -0.5370386             -14.6136
         6        2.0000           -0.5350721             -14.5601
         7        2.0000           -0.4601496             -12.5213
         8        2.0000           -0.4600836             -12.5195
         9        2.0000           -0.3895592             -10.6004
        10        2.0000           -0.3886379             -10.5754
        11        2.0000           -0.3886375             -10.5754 (HOMO)
        12                          0.0113326               0.3084 (LUMO)
        13                          0.1419104               3.8616
        14                          0.1422142               3.8698
        15                          0.1422187               3.8700
        16                          0.1428817               3.8880
       ...                                ...                  ...
        20                          0.2877479               7.8300
      -------------------------------------------------------------
                  HL-Gap            0.3999701 Eh           10.8837 eV
             Fermi-level           -0.1886525 Eh           -5.1335 eV

 SCC (total)                   0 d,  0 h,  0 min,  0.006 sec
 SCC setup                      ...        0 min,  0.000 sec (  5.094%)
 Dispersion                     ...        0 min,  0.000 sec (  0.533%)
 integral evaluation            ...        0 min,  0.001 sec ( 17.805%)
 zeroth order Hamiltonian       ...        0 min,  0.000 sec (  0.548%)
 iterations                     ...        0 min,  0.004 sec ( 54.798%)
 molecular gradient             ...        0 min,  0.001 sec ( 18.565%)
 printout                       ...        0 min,  0.000 sec (  1.893%)

         :::::::::::::::::::::::::::::::::::::::::::::::::::::
         ::                     SUMMARY                     ::
         :::::::::::::::::::::::::::::::::::::::::::::::::::::
         :: total energy             -13.288056339274 Eh    ::
         :: total w/o Gsasa/hb       -13.288156337146 Eh    ::
         :: gradient norm              0.064920811606 Eh/a0 ::
         :: HOMO-LUMO gap             10.883741406879 eV    ::
         ::.................................................::
         :: SCC energy               -13.364795875909 Eh    ::
         :: -> isotropic ES            0.167729664770 Eh    ::
         :: -> anisotropic ES         -0.001074273283 Eh    ::
         :: -> anisotropic XC         -0.002078556557 Eh    ::
         :: -> dispersion             -0.001726100633 Eh    ::
         :: -> Gsolv                  -0.100862213104 Eh    ::
         ::    -> Gborn               -0.100962210976 Eh    ::
         ::    -> Gsasa                0.000288583317 Eh    ::
         ::    -> Ghb                 -0.002046028572 Eh    ::
         ::    -> Gshift               0.001857443127 Eh    ::
         :: repulsion energy           0.076739761182 Eh    ::
         :: add. restraining           0.000000000000 Eh    ::
         :::::::::::::::::::::::::::::::::::::::::::::::::::::

           -------------------------------------------------
          |                Property Printout                |
           -------------------------------------------------

    * Orbital Energies and Occupations

         #    Occupation            Energy/Eh            Energy/eV
      -------------------------------------------------------------
         1        2.0000           -0.9856496             -26.8209
         2        2.0000           -0.8098379             -22.0368
         3        2.0000           -0.6151739             -16.7397
         4        2.0000           -0.5371012             -14.6153
         5        2.0000           -0.5370386             -14.6136
         6        2.0000           -0.5350721             -14.5601
         7        2.0000           -0.4601496             -12.5213
         8        2.0000           -0.4600836             -12.5195
         9        2.0000           -0.3895592             -10.6004
        10        2.0000           -0.3886379             -10.5754
        11        2.0000           -0.3886375             -10.5754 (HOMO)
        12                          0.0113326               0.3084 (LUMO)
        13                          0.1419104               3.8616
        14                          0.1422142               3.8698
        15                          0.1422187               3.8700
        16                          0.1428817               3.8880
        17                          0.1428819               3.8880
        18                          0.2006850               5.4609
        19                          0.2861105               7.7855
        20                          0.2877479               7.8300
      -------------------------------------------------------------
                  HL-Gap            0.3999701 Eh           10.8837 eV
             Fermi-level           -0.1886525 Eh           -5.1335 eV

     #   Z        covCN         q      C6AA      α(0)
     1   9 F      0.781    -0.294    12.256     4.135
     2  17 Cl     0.000    -0.999   126.977    17.149
     3   6 C      3.566     0.062    20.344     6.569
     4   1 H      0.928     0.077     2.007     2.215
     5   1 H      0.928     0.077     2.010     2.217
     6   1 H      0.928     0.077     2.010     2.217

 Mol. C6AA /au·bohr⁶  :        548.827499
 Mol. C8AA /au·bohr⁸  :      15841.517252
 Mol. α(0) /au        :         34.503671


Wiberg/Mayer (AO) data.
largest (>0.10) Wiberg bond orders for each atom
          total WBO             WBO to atom ...
     1  F   0.949        C    3 0.919
     2  Cl  0.002
     3  C   3.872        H    5 0.984    H    6 0.984    H    4 0.984    F    1 0.919
     4  H   0.994        C    3 0.984
     5  H   0.994        C    3 0.984
     6  H   0.994        C    3 0.984

molecular dipole:
                 x           y           z       tot (Debye)
 q only:       -3.387      -0.089       0.020
   full:       -3.219      -0.086       0.018       8.185
molecular quadrupole (traceless):
                xx          xy          yy          xz          yz          zz
 q only:      -24.434      -0.865      12.209       0.372       0.009      12.226
  q+dip:      -26.750      -0.932      13.366       0.430       0.011      13.384
   full:      -25.974      -0.910      12.978       0.410       0.010      12.996


           -------------------------------------------------
          | TOTAL ENERGY              -13.288056339274 Eh   |
          | GRADIENT NORM               0.064920811606 Eh/α |
          | HOMO-LUMO GAP              10.883741406879 eV   |
           -------------------------------------------------

------------------------------------------------------------------------
 * finished run on 2020/08/20 at 17:46:31.363     
------------------------------------------------------------------------
 total:
 * wall-time:     0 d,  0 h,  0 min,  0.063 sec
 *  cpu-time:     0 d,  0 h,  0 min,  0.018 sec
 * ratio c/w:     0.287 speedup
 SCF:
 * wall-time:     0 d,  0 h,  0 min,  0.007 sec
 *  cpu-time:     0 d,  0 h,  0 min,  0.007 sec
 * ratio c/w:     0.997 speedup

