      -----------------------------------------------------------      
     |                   =====================                   |     
     |                           x T B                           |     
     |                   =====================                   |     
     |                         S. Grimme                         |     
     |          Mulliken Center for Theoretical Chemistry        |     
     |                    University of Bonn                     |     
      -----------------------------------------------------------      

   * xtb version 6.2.3 (830e466) compiled by 'ehlert@majestix' on 2020-03-16

   xtb is free software: you can redistribute it and/or modify it under
   the terms of the GNU Lesser General Public License as published by
   the Free Software Foundation, either version 3 of the License, or
   (at your option) any later version.
   
   xtb is distributed in the hope that it will be useful,
   but WITHOUT ANY WARRANTY; without even the implied warranty of
   MERCHANTABILITY or FITNESS FOR A PARTICULAR PURPOSE.  See the
   GNU Lesser General Public License for more details.
   
   Cite this work as:
   * S. Grimme, C. Bannwarth, P. Shushkov, J. Chem. Theory Comput., 2017,
     13, 1989-2009. DOI: 10.1021/acs.jctc.7b00118
   * C. Bannwarth, S. Ehlert and S. Grimme., J. Chem. Theory Comput., 2019,
     15, 1652-1671. DOI: 10.1021/acs.jctc.8b01176
   * P. Pracht, E. Caldeweyher, S. Ehlert, S. Grimme, ChemRxiv, 2019, preprint.
     DOI: 10.26434/chemrxiv.8326202.v1
   
   for DFT-D4:
   * E. Caldeweyher, C. Bannwarth and S. Grimme, J. Chem. Phys., 2017,
     147, 034112. DOI: 10.1063/1.4993215
   * E. Caldeweyher, S. Ehlert, A. Hansen, H. Neugebauer, S. Spicher,
     C. Bannwarth and S. Grimme, J. Chem. Phys., 2019, 150, 154122.
     DOI: 10.1063/1.5090222
   
   for sTDA-xTB:
   * S. Grimme and C. Bannwarth, J. Chem. Phys., 2016, 145, 054103.
     DOI: 10.1063/1.4959605
   
   in the mass-spec context:
   * V. Asgeirsson, C. Bauer and S. Grimme, Chem. Sci., 2017, 8, 4879.
     DOI: 10.1039/c7sc00601b
   
   for metadynamics refer to:
   * S. Grimme, J. Chem. Theory Comput., 2019, 155, 2847-2862
     DOI: 10.1021/acs.jctc.9b00143
   
   with help from (in alphabetical order)
   C. Bannwarth, F. Bohle, G. Brandenburg, E. Caldeweyher, M. Checinski,
   S. Dohm, S. Ehlert, S. Ehrlich, F. März, H. Neugebauer, J. Pisarek,
   P. Pracht, P. Shushkov, and S. Spicher.
   
 * started run on 2020/08/20 at 17:46:31.926     

           -------------------------------------------------
          |                Calculation Setup                |
           -------------------------------------------------

          program call               : /u/fd/ball4935/opt/bin/xtb 11_7_xtb.xyz --chrg -1 --grad --gbsa Water
          hostname                   : comp0810
          coordinate file            : 11_7_xtb.xyz
          omp threads                :                     1
          number of atoms            :                     6
          number of electrons        :                    22
          charge                     :                    -1
          spin                       :                   0.0
          first test random number   :      0.15732914366432


molecular fragmentation (1/2 indicates fragments):
121111
# atoms in fragment 1/2:     5     1
 fragment masses (1/2) :       34.03       35.45
CMA distance (Bohr)    :   7.720
constraining FC (au)   :  0.0500
########################################################################
[WARNING] Please study the warnings concerning your input carefully
-2- prog_main: XTBPATH is not set, using XTBHOME instead
-1- prog_main: XTBHOME is not set, using HOME instead
########################################################################
           ------------------------------------------------- 
          |                 G F N 2 - x T B                 |
          | Geometry, Frequencies, Noncovalent interactions |
          |            JCTC 2019 parametrisation            |
           ------------------------------------------------- 
             k(s)              :                1.8500
             k(p)              :                2.2300
             k(d)              :                2.2300
             k(f)              :                2.0000
             kEN (H0ij)        :               -2.0000
             D4 a1             :                0.5200
             D4 a2             :                5.0000
             D4 s6             :                1.0000
             D4 s8             :                2.7000
             D4 s9             :                5.0000
             alphaj            :                2.0000

  Z AO/shell   Hii/eV     exponent
  1     Wed Apr 25 08:07:45 CEST 2018   EN: 2.200 GM2: 0.406  GM3: 0.0800  RAES: 1.40
     1s    -10.707211    1.230000
  6     Wed Apr 25 08:07:45 CEST 2018   EN: 2.550 GM2: 0.538  GM3: 0.1500  RAES: 3.00
     2s    -13.970922    2.096432
     2p    -10.063292    1.800000
  9     Mon Apr 23 13:58:50 CEST 2018   EN: 3.980 GM2: 0.532  GM3: 0.1426  RAES: 2.40
     2s    -23.458179    2.416361
     2p    -15.746583    2.308399
 17     Mon Apr 23 14:09:22 CEST 2018   EN: 3.160 GM2: 0.249  GM3: 0.1495  RAES: 2.50
     3s    -29.278781    2.485265
     3p    -12.673758    2.199650
     3d     -0.240338    2.476089

 Solvent             : Water
 Using internal parameter file: .param_gbsa2_Water
 Gsolv ref. state (COSMO-RS): gsolv [1 M gas/solution]
 temperature (mdtemp)       :    298.150000000000     
 dielectric constant        :    80.2000000000000     
 rho                        :    1.00000000000000     
 mass                       :    18.0000000000000     
 surface tension            :    15.5689454083859     
 probe radius               :   0.975313790000000     
 Gshift (Eh)                :   1.857443126794793E-003
 c1                         :    1.55243817000000     
 soset                      :   0.130326360000000     
 HB correction              :  T
           ------------------------------------------------- 
          |        Self-Consistent Charge Iterations        |
           ------------------------------------------------- 

          ...................................................
          :                      SETUP                      :
          :.................................................:
          :  # basis functions                  21          :
          :  # atomic orbitals                  20          :
          :  # shells                           10          :
          :  # electrons                        22          :
          :  max. iterations                   250          :
          :  Hamiltonian                  GFN2-xTB          :
          :  restarted?                      false          :
          :  GBSA solvation                   true          :
          :  PC potential                    false          :
          :  electronic temp.          300.0000000     K    :
          :  accuracy                    1.0000000          :
          :  -> integral cutoff          0.2500000E+02      :
          :  -> integral neglect         0.1000000E-07      :
          :  -> SCF convergence          0.1000000E-05 Eh   :
          :  -> wf. convergence          0.1000000E-03 e    :
          :  Broyden damping             0.4000000          :
          ...................................................

 iter      E             dE          RMSdq      gap      omega  full diag
   1    -13.2933290 -0.132933E+02  0.563E+00   12.50       0.0  T
   2    -13.3516668 -0.583378E-01  0.282E+00   11.68       1.0  T
   3    -13.3524281 -0.761335E-03  0.151E+00   11.28       1.0  T
   4    -13.3525942 -0.166109E-03  0.170E-01   11.06       1.0  T
   5    -13.3526234 -0.291498E-04  0.743E-02   11.14       1.0  T
   6    -13.3526276 -0.419624E-05  0.556E-02   11.15       1.0  T
   7    -13.3526336 -0.598733E-05  0.146E-02   11.16       2.8  T
   8    -13.3526336 -0.236680E-07  0.209E-03   11.16      19.5  T
   9    -13.3526336 -0.121495E-07  0.426E-04   11.16      95.8  T
  10    -13.3526336 -0.251461E-10  0.922E-05   11.16     442.7  T

   *** convergence criteria satisfied after 10 iterations ***

         #    Occupation            Energy/Eh            Energy/eV
      -------------------------------------------------------------
         1        2.0000           -0.9856532             -26.8210
       ...           ...                  ...                  ...
         5        2.0000           -0.5355003             -14.5717
         6        2.0000           -0.5346499             -14.5486
         7        2.0000           -0.4589438             -12.4885
         8        2.0000           -0.4589271             -12.4880
         9        2.0000           -0.3894908             -10.5986
        10        2.0000           -0.3886114             -10.5747
        11        2.0000           -0.3886110             -10.5746 (HOMO)
        12                          0.0215140               0.5854 (LUMO)
        13                          0.1339756               3.6457
        14                          0.1421797               3.8689
        15                          0.1421868               3.8691
        16                          0.1429008               3.8885
       ...                                ...                  ...
        20                          0.2155915               5.8665
      -------------------------------------------------------------
                  HL-Gap            0.4101250 Eh           11.1601 eV
             Fermi-level           -0.1835485 Eh           -4.9946 eV

 SCC (total)                   0 d,  0 h,  0 min,  0.006 sec
 SCC setup                      ...        0 min,  0.000 sec (  4.859%)
 Dispersion                     ...        0 min,  0.000 sec (  0.645%)
 integral evaluation            ...        0 min,  0.001 sec ( 18.406%)
 zeroth order Hamiltonian       ...        0 min,  0.000 sec (  0.665%)
 iterations                     ...        0 min,  0.003 sec ( 54.200%)
 molecular gradient             ...        0 min,  0.001 sec ( 18.588%)
 printout                       ...        0 min,  0.000 sec (  1.709%)

         :::::::::::::::::::::::::::::::::::::::::::::::::::::
         ::                     SUMMARY                     ::
         :::::::::::::::::::::::::::::::::::::::::::::::::::::
         :: total energy             -13.291640280176 Eh    ::
         :: total w/o Gsasa/hb       -13.291796499100 Eh    ::
         :: gradient norm              0.018055163087 Eh/a0 ::
         :: HOMO-LUMO gap             11.160069486400 eV    ::
         ::.................................................::
         :: SCC energy               -13.350499186017 Eh    ::
         :: -> isotropic ES            0.167117353691 Eh    ::
         :: -> anisotropic ES         -0.000839006274 Eh    ::
         :: -> anisotropic XC         -0.001393424307 Eh    ::
         :: -> dispersion             -0.001739839537 Eh    ::
         :: -> Gsolv                  -0.100889250389 Eh    ::
         ::    -> Gborn               -0.101045469313 Eh    ::
         ::    -> Gsasa                0.000276972545 Eh    ::
         ::    -> Ghb                 -0.001978196747 Eh    ::
         ::    -> Gshift               0.001857443127 Eh    ::
         :: repulsion energy           0.058859103439 Eh    ::
         :: add. restraining           0.000000000000 Eh    ::
         :::::::::::::::::::::::::::::::::::::::::::::::::::::

           -------------------------------------------------
          |                Property Printout                |
           -------------------------------------------------

    * Orbital Energies and Occupations

         #    Occupation            Energy/Eh            Energy/eV
      -------------------------------------------------------------
         1        2.0000           -0.9856532             -26.8210
         2        2.0000           -0.8110094             -22.0687
         3        2.0000           -0.6107887             -16.6204
         4        2.0000           -0.5355130             -14.5720
         5        2.0000           -0.5355003             -14.5717
         6        2.0000           -0.5346499             -14.5486
         7        2.0000           -0.4589438             -12.4885
         8        2.0000           -0.4589271             -12.4880
         9        2.0000           -0.3894908             -10.5986
        10        2.0000           -0.3886114             -10.5747
        11        2.0000           -0.3886110             -10.5746 (HOMO)
        12                          0.0215140               0.5854 (LUMO)
        13                          0.1339756               3.6457
        14                          0.1421797               3.8689
        15                          0.1421868               3.8691
        16                          0.1429008               3.8885
        17                          0.1429009               3.8885
        18                          0.1443523               3.9280
        19                          0.2151062               5.8533
        20                          0.2155915               5.8665
      -------------------------------------------------------------
                  HL-Gap            0.4101250 Eh           11.1601 eV
             Fermi-level           -0.1835485 Eh           -4.9946 eV

     #   Z        covCN         q      C6AA      α(0)
     1   9 F      0.782    -0.286    12.164     4.120
     2  17 Cl     0.000    -0.999   126.976    17.149
     3   6 C      3.557     0.069    20.309     6.577
     4   1 H      0.925     0.072     2.062     2.246
     5   1 H      0.925     0.072     2.063     2.246
     6   1 H      0.925     0.072     2.063     2.246

 Mol. C6AA /au·bohr⁶  :        550.661483
 Mol. C8AA /au·bohr⁸  :      15871.839818
 Mol. α(0) /au        :         34.583884


Wiberg/Mayer (AO) data.
largest (>0.10) Wiberg bond orders for each atom
          total WBO             WBO to atom ...
     1  F   0.961        C    3 0.925
     2  Cl  0.002
     3  C   3.873        H    5 0.983    H    6 0.983    H    4 0.983    F    1 0.925
     4  H   0.995        C    3 0.983
     5  H   0.995        C    3 0.983
     6  H   0.995        C    3 0.983

molecular dipole:
                 x           y           z       tot (Debye)
 q only:       -3.385      -0.088       0.022
   full:       -3.219      -0.084       0.019       8.184
molecular quadrupole (traceless):
                xx          xy          yy          xz          yz          zz
 q only:      -24.141      -0.852      12.062       0.367       0.009      12.078
  q+dip:      -26.559      -0.925      13.272       0.426       0.011      13.288
   full:      -25.785      -0.901      12.884       0.406       0.010      12.900


           -------------------------------------------------
          | TOTAL ENERGY              -13.291640280176 Eh   |
          | GRADIENT NORM               0.018055163087 Eh/α |
          | HOMO-LUMO GAP              11.160069486400 eV   |
           -------------------------------------------------

------------------------------------------------------------------------
 * finished run on 2020/08/20 at 17:46:31.983     
------------------------------------------------------------------------
 total:
 * wall-time:     0 d,  0 h,  0 min,  0.057 sec
 *  cpu-time:     0 d,  0 h,  0 min,  0.017 sec
 * ratio c/w:     0.302 speedup
 SCF:
 * wall-time:     0 d,  0 h,  0 min,  0.006 sec
 *  cpu-time:     0 d,  0 h,  0 min,  0.006 sec
 * ratio c/w:     0.998 speedup

