
                                 *****************
                                 * O   R   C   A *
                                 *****************

           --- An Ab Initio, DFT and Semiempirical electronic structure package ---

                  #######################################################
                  #                        -***-                        #
                  #          Department of theory and spectroscopy      #
                  #               Directorship: Frank Neese             #
                  #        Max Planck Institute fuer Kohlenforschung    #
                  #                Kaiser Wilhelm Platz 1               #
                  #                 D-45470 Muelheim/Ruhr               #
                  #                      Germany                        #
                  #                                                     #
                  #                  All rights reserved                #
                  #                        -***-                        #
                  #######################################################


                         Program Version 4.2.1 -  RELEASE  -


 With contributions from (in alphabetic order):
   Daniel Aravena         : Magnetic Suceptibility
   Michael Atanasov       : Ab Initio Ligand Field Theory (pilot matlab implementation)
   Alexander A. Auer      : GIAO ZORA, VPT2
   Ute Becker             : Parallelization
   Giovanni Bistoni       : ED, misc. LED, open-shell LED, HFLD
   Martin Brehm           : Molecular dynamics
   Dmytro Bykov           : SCF Hessian
   Vijay G. Chilkuri      : MRCI spin determinant printing, contributions to CSF-ICE
   Dipayan Datta          : RHF DLPNO-CCSD density
   Achintya Kumar Dutta   : EOM-CC, STEOM-CC
   Dmitry Ganyushin       : Spin-Orbit,Spin-Spin,Magnetic field MRCI
   Miquel Garcia          : C-PCM Hessian, Gaussian charge scheme
   Yang Guo               : DLPNO-NEVPT2, CIM, IAO-localization
   Andreas Hansen         : Spin unrestricted coupled pair/coupled cluster methods
   Benjamin Helmich-Paris : CASSCF linear response (MC-RPA)
   Lee Huntington         : MR-EOM, pCC
   Robert Izsak           : Overlap fitted RIJCOSX, COSX-SCS-MP3, EOM
   Christian Kollmar      : KDIIS, OOCD, Brueckner-CCSD(T), CCSD density
   Simone Kossmann        : Meta GGA functionals, TD-DFT gradient, OOMP2, MP2 Hessian
   Martin Krupicka        : AUTO-CI
   Lucas Lang             : DCDCAS
   Dagmar Lenk            : GEPOL surface, SMD
   Dimitrios Liakos       : Extrapolation schemes; Compound Job, initial MDCI parallelization
   Dimitrios Manganas     : Further ROCIS development; embedding schemes
   Dimitrios Pantazis     : SARC Basis sets
   Taras Petrenko         : DFT Hessian,TD-DFT gradient, ASA, ECA, R-Raman, ABS, FL, XAS/XES, NRVS
   Peter Pinski           : DLPNO-MP2, DLPNO-MP2 Gradient
   Christoph Reimann      : Effective Core Potentials
   Marius Retegan         : Local ZFS, SOC
   Christoph Riplinger    : Optimizer, TS searches, QM/MM, DLPNO-CCSD(T), (RO)-DLPNO pert. Triples
   Tobias Risthaus        : Range-separated hybrids, TD-DFT gradient, RPA, STAB
   Michael Roemelt        : Original ROCIS implementation
   Masaaki Saitow         : Open-shell DLPNO-CCSD energy and density
   Barbara Sandhoefer     : DKH picture change effects
   Avijit Sen             : IP-ROCIS
   Kantharuban Sivalingam : CASSCF convergence, NEVPT2, FIC-MRCI
   Bernardo de Souza      : ESD, SOC TD-DFT
   Georgi Stoychev        : AutoAux, RI-MP2 NMR
   Willem Van den Heuvel  : Paramagnetic NMR
   Boris Wezisla          : Elementary symmetry handling
   Frank Wennmohs         : Technical directorship


 We gratefully acknowledge several colleagues who have allowed us to
 interface, adapt or use parts of their codes:
   Stefan Grimme, W. Hujo, H. Kruse,             : VdW corrections, initial TS optimization,
                  C. Bannwarth                     DFT functionals, gCP, sTDA/sTD-DF
   Ed Valeev, F. Pavosevic, A. Kumar             : LibInt (2-el integral package), F12 methods
   Garnet Chan, S. Sharma, J. Yang, R. Olivares  : DMRG
   Ulf Ekstrom                                   : XCFun DFT Library
   Mihaly Kallay                                 : mrcc  (arbitrary order and MRCC methods)
   Andreas Klamt, Michael Diedenhofen            : otool_cosmo (COSMO solvation model)
   Jiri Pittner, Ondrej Demel                    : Mk-CCSD
   Frank Weinhold                                : gennbo (NPA and NBO analysis)
   Christopher J. Cramer and Donald G. Truhlar   : smd solvation model
   Lars Goerigk                                  : TD-DFT with DH, B97 family of functionals
   V. Asgeirsson, H. Jonsson                     : NEB implementation
   FAccTs GmbH                                   : IRC, NEB, NEB-TS, Multilevel, MM, QM/MM, CI optimization
   S Lehtola, MJT Oliveira, MAL Marques          : LibXC Library


 Your calculation uses the libint2 library for the computation of 2-el integrals
 For citations please refer to: http://libint.valeyev.net

 Your ORCA version has been built with support for libXC version: 4.2.3
 For citations please refer to: https://tddft.org/programs/libxc/

 This ORCA versions uses:
   CBLAS   interface :  Fast vector & matrix operations
   LAPACKE interface :  Fast linear algebra routines
   SCALAPACK package :  Parallel linear algebra routines


----- Orbital basis set information -----
Your calculation utilizes the basis: def2-SVP
   F. Weigend and R. Ahlrichs, Phys. Chem. Chem. Phys. 7, 3297 (2005).

----- AuxJ basis set information -----
Your calculation utilizes the auxiliary basis: def2/J
   F. Weigend, Phys. Chem. Chem. Phys. 8, 1057 (2006).

================================================================================
                                        WARNINGS
                       Please study these warnings very carefully!
================================================================================


WARNING: your system is open-shell and RHF/RKS was chosen
  ===> : WILL SWITCH to UHF/UKS


WARNING: Geometry Optimization
  ===> : Switching off AutoStart
         For restart on a previous wavefunction, please use MOREAD

INFO   : the flag for use of LIBINT has been found!

================================================================================
                                       INPUT FILE
================================================================================
NAME = H+H2_H2+H_scan_4_orca.inp
|  1> ! PBE def2-SVP Opt
|  2> %geom Constraints
|  3> { B 1 2 0.7 C }
|  4>     end
|  5> end
|  6> %geom MaxIter 100 end
|  7> %pal nprocs 2
|  8> end
|  9> %output 
| 10> xyzfile=True 
| 11> end 
| 12> %scf 
| 13> maxiter 250 
| 14> end
| 15> % maxcore 4000
| 16> *xyz 0 2
| 17> H    0.00000003  -0.00000003  -1.45509358 
| 18> H   -0.00000006   0.00000006   1.54004679 
| 19> H    0.00000003  -0.00000003   2.31504679 
| 20> *
| 21> 
| 22>                          ****END OF INPUT****
================================================================================

                       *****************************
                       * Geometry Optimization Run *
                       *****************************

Geometry optimization settings:
Update method            Update   .... BFGS
Choice of coordinates    CoordSys .... Z-matrix Internals
Initial Hessian          InHess   .... Almoef's Model

Convergence Tolerances:
Energy Change            TolE     ....  5.0000e-06 Eh
Max. Gradient            TolMAXG  ....  3.0000e-04 Eh/bohr
RMS Gradient             TolRMSG  ....  1.0000e-04 Eh/bohr
Max. Displacement        TolMAXD  ....  4.0000e-03 bohr
RMS Displacement         TolRMSD  ....  2.0000e-03 bohr
Strict Convergence                ....  False
------------------------------------------------------------------------------
                        ORCA OPTIMIZATION COORDINATE SETUP
------------------------------------------------------------------------------

The optimization will be done in new redundant internal coordinates
Making redundant internal coordinates   ...  (new redundants) done
Evaluating the initial hessian          ...  (Almloef) done
Evaluating the coordinates              ...  done
Calculating the B-matrix                .... done
Calculating the G-matrix                .... done
Diagonalizing the G-matrix              .... done
Imposing constraints:
 Iter   0:  RMS(Cart)=    0.0222706367 RMS(Int)=    0.0472431546
 Iter   1:  RMS(Cart)=    0.0074235456 RMS(Int)=    0.0157477182
 Iter   2:  RMS(Cart)=    0.0024745152 RMS(Int)=    0.0052492394
 Iter   3:  RMS(Cart)=    0.0008248384 RMS(Int)=    0.0017497465
 Iter   4:  RMS(Cart)=    0.0002749461 RMS(Int)=    0.0005832488
 Iter   5:  RMS(Cart)=    0.0000916487 RMS(Int)=    0.0001944163
 Iter   6:  RMS(Cart)=    0.0000305496 RMS(Int)=    0.0000648054
 Iter   7:  RMS(Cart)=    0.0000101832 RMS(Int)=    0.0000216018
 Iter   8:  RMS(Cart)=    0.0000033944 RMS(Int)=    0.0000072006
 Iter   9:  RMS(Cart)=    0.0000011315 RMS(Int)=    0.0000024002
 Iter  10:  RMS(Cart)=    0.0000003772 RMS(Int)=    0.0000008001
 Iter  11:  RMS(Cart)=    0.0000001257 RMS(Int)=    0.0000002667
 Iter  12:  RMS(Cart)=    0.0000000419 RMS(Int)=    0.0000000889
CONVERGED
The first mode is                       ....    1
The number of degrees of freedom        ....    4
Storing new coordinates                 .... done

    -----------------------------------------------------------------
                    Redundant Internal Coordinates


    -----------------------------------------------------------------
         Definition                    Initial Value    Approx d2E/dq
    -----------------------------------------------------------------
      1. B(H   1,H   0)                  3.0326         0.000063   
      2. B(H   2,H   1)                  0.7000         0.219300 C 
      3. B(H   2,H   0)                  3.7326         0.000004   
      4. L(H   0,H   1,H   2, 1)       180.0000         0.105276   
      5. L(H   0,H   1,H   2, 2)       180.0000         0.105276   
    -----------------------------------------------------------------

Number of atoms                         .... 3
Number of degrees of freedom            .... 5

         *************************************************************
         *                GEOMETRY OPTIMIZATION CYCLE   1            *
         *************************************************************
---------------------------------
CARTESIAN COORDINATES (ANGSTROEM)
---------------------------------
  H      0.000000   -0.000000   -1.455094
  H     -0.000000    0.000000    1.577547
  H      0.000000   -0.000000    2.277547

----------------------------
CARTESIAN COORDINATES (A.U.)
----------------------------
  NO LB      ZA    FRAG     MASS         X           Y           Z
   0 H     1.0000    0     1.008    0.000000   -0.000000   -2.749728
   1 H     1.0000    0     1.008   -0.000000    0.000000    2.981131
   2 H     1.0000    0     1.008    0.000000   -0.000000    4.303940

--------------------------------
INTERNAL COORDINATES (ANGSTROEM)
--------------------------------
 H      0   0   0     0.000000000000     0.00000000     0.00000000
 H      1   0   0     2.995140370000     0.00000000     0.00000000
 H      2   1   0     0.775000000000   179.99998829     0.00000000

---------------------------
INTERNAL COORDINATES (A.U.)
---------------------------
 H      0   0   0     0.000000000000     0.00000000     0.00000000
 H      1   0   0     5.659995031952     0.00000000     0.00000000
 H      2   1   0     1.464537753789   179.99998829     0.00000000

---------------------
BASIS SET INFORMATION
---------------------
There are 1 groups of distinct atoms

 Group   1 Type H   : 4s1p contracted to 2s1p pattern {31/1}

Atom   0H    basis set group =>   1
Atom   1H    basis set group =>   1
Atom   2H    basis set group =>   1
---------------------------------
AUXILIARY/J BASIS SET INFORMATION
---------------------------------
There are 1 groups of distinct atoms

 Group   1 Type H   : 5s2p1d contracted to 3s1p1d pattern {311/2/1}

Atom   0H    basis set group =>   1
Atom   1H    basis set group =>   1
Atom   2H    basis set group =>   1


           ************************************************************
           *        Program running with 2 parallel MPI-processes     *
           *              working on a common directory               *
           ************************************************************
------------------------------------------------------------------------------
                           ORCA GTO INTEGRAL CALCULATION
                           -- RI-GTO INTEGRALS CHOSEN --
------------------------------------------------------------------------------

                         BASIS SET STATISTICS AND STARTUP INFO

Gaussian basis set:
 # of primitive gaussian shells          ...   15
 # of primitive gaussian functions       ...   21
 # of contracted shells                  ...    9
 # of contracted basis functions         ...   15
 Highest angular momentum                ...    1
 Maximum contraction depth               ...    3
Auxiliary gaussian basis set:
 # of primitive gaussian shells          ...   24
 # of primitive gaussian functions       ...   48
 # of contracted shells                  ...   15
 # of contracted aux-basis functions     ...   33
 Highest angular momentum                ...    2
 Maximum contraction depth               ...    3
Ratio of auxiliary to basis functions    ...  2.20
Integral package used                  ... LIBINT
 One Electron integrals                  ... done
 Ordering auxiliary basis shells         ... done
 Integral threshhold             Thresh  ...  2.500e-11
 Primitive cut-off               TCut    ...  2.500e-12
 Pre-screening matrix                    ... done
 Shell pair data                         ... 
 Ordering of the shell pairs             ... done (   0.000 sec) 45 of 45 pairs
 Determination of significant pairs      ... done (   0.000 sec)
 Creation of shell pair data             ... done (   0.000 sec)
 Storage of shell pair data              ... done (   0.000 sec)
 Shell pair data done in (   0.000 sec)
 Computing two index integrals           ... done
 Cholesky decomposition of the V-matrix  ... done


Timings:
 Total evaluation time                   ...   0.177 sec (  0.003 min)
 One electron matrix time                ...   0.007 sec (  0.000 min) =  3.8%
 Schwartz matrix evaluation time         ...   0.148 sec (  0.002 min) = 83.7%
 Two index repulsion integral time       ...   0.000 sec (  0.000 min) =  0.1%
 Cholesky decomposition of V             ...   0.000 sec (  0.000 min) =  0.3%
 Three index repulsion integral time     ...   0.000 sec (  0.000 min) =  0.0%



           ************************************************************
           *        Program running with 2 parallel MPI-processes     *
           *              working on a common directory               *
           ************************************************************
-------------------------------------------------------------------------------
                                 ORCA SCF
-------------------------------------------------------------------------------

------------
SCF SETTINGS
------------
Hamiltonian:
 Density Functional     Method          .... DFT(GTOs)
 Exchange Functional    Exchange        .... PBE
   PBE kappa parameter   XKappa         ....  0.804000
   PBE mue parameter    XMuePBE         ....  0.219520
 Correlation Functional Correlation     .... PBE
   PBE beta parameter  CBetaPBE         ....  0.066725
 LDA part of GGA corr.  LDAOpt          .... PW91-LDA
 Gradients option       PostSCFGGA      .... off
   Density functional embedding theory  .... OFF
   NL short-range parameter             ....  6.400000
 RI-approximation to the Coulomb term is turned on
   Number of auxiliary basis functions  .... 33


General Settings:
 Integral files         IntName         .... H+H2_H2+H_scan_4_orca
 Hartree-Fock type      HFTyp           .... UHF
 Total Charge           Charge          ....    0
 Multiplicity           Mult            ....    2
 Number of Electrons    NEL             ....    3
 Basis Dimension        Dim             ....   15
 Nuclear Repulsion      ENuc            ....      1.0722314897 Eh

Convergence Acceleration:
 DIIS                   CNVDIIS         .... on
   Start iteration      DIISMaxIt       ....    12
   Startup error        DIISStart       ....  0.200000
   # of expansion vecs  DIISMaxEq       ....     5
   Bias factor          DIISBfac        ....   1.050
   Max. coefficient     DIISMaxC        ....  10.000
 Newton-Raphson         CNVNR           .... off
 SOSCF                  CNVSOSCF        .... off
 Level Shifting         CNVShift        .... on
   Level shift para.    LevelShift      ....    0.2500
   Turn off err/grad.   ShiftErr        ....    0.0010
 Zerner damping         CNVZerner       .... off
 Static damping         CNVDamp         .... on
   Fraction old density DampFac         ....    0.7000
   Max. Damping (<1)    DampMax         ....    0.9800
   Min. Damping (>=0)   DampMin         ....    0.0000
   Turn off err/grad.   DampErr         ....    0.1000
 Fernandez-Rico         CNVRico         .... off

SCF Procedure:
 Maximum # iterations   MaxIter         ....   250
 SCF integral mode      SCFMode         .... Direct
   Integral package                     .... LIBINT
 Reset frequency        DirectResetFreq ....    20
 Integral Threshold     Thresh          ....  2.500e-11 Eh
 Primitive CutOff       TCut            ....  2.500e-12 Eh

Convergence Tolerance:
 Convergence Check Mode ConvCheckMode   .... Total+1el-Energy
 Convergence forced     ConvForced      .... 0
 Energy Change          TolE            ....  1.000e-08 Eh
 1-El. energy change                    ....  1.000e-05 Eh
 DIIS Error             TolErr          ....  5.000e-07


Diagonalization of the overlap matrix:
Smallest eigenvalue                        ... 3.609e-02
Time for diagonalization                   ...    0.001 sec
Threshold for overlap eigenvalues          ... 1.000e-08
Number of eigenvalues below threshold      ... 0
Time for construction of square roots      ...    0.001 sec
Total time needed                          ...    0.001 sec

-------------------
DFT GRID GENERATION
-------------------

General Integration Accuracy     IntAcc      ...  4.340
Radial Grid Type                 RadialGrid  ... Gauss-Chebyshev
Angular Grid (max. acc.)         AngularGrid ... Lebedev-110
Angular grid pruning method      GridPruning ... 3 (G Style)
Weight generation scheme         WeightScheme... Becke
Basis function cutoff            BFCut       ...    1.0000e-11
Integration weight cutoff        WCut        ...    1.0000e-14
Grids for H and He will be reduced by one unit

# of grid points (after initial pruning)     ...   2382 (   0.0 sec)
# of grid points (after weights+screening)   ...   2346 (   0.0 sec)
nearest neighbour list constructed           ...    0.0 sec
Grid point re-assignment to atoms done       ...    0.0 sec
Grid point division into batches done        ...    0.0 sec
Reduced shell lists constructed in    0.0 sec

Total number of grid points                  ...     2346
Total number of batches                      ...       38
Average number of points per batch           ...       61
Average number of grid points per atom       ...      782
Average number of shells per batch           ...     8.15 (90.56%)
Average number of basis functions per batch  ...    13.15 (87.67%)
Average number of large shells per batch     ...     7.10 (87.12%)
Average number of large basis fcns per batch ...    11.00 (83.65%)
Maximum spatial batch extension              ...  17.62, 21.59, 14.26 au
Average spatial batch extension              ...   3.63,  4.34,  2.71 au

Time for grid setup =    0.010 sec

------------------------------
INITIAL GUESS: MODEL POTENTIAL
------------------------------
Loading Hartree-Fock densities                     ... done
Calculating cut-offs                               ... done
Setting up the integral package                    ... done
Initializing the effective Hamiltonian             ... done
Starting the Coulomb interaction                   ... done (   0.0 sec)
Reading the grid                                   ... done
Mapping shells                                     ... done
Starting the XC term evaluation                    ... done (   0.0 sec)
  promolecular density results
     # of electrons  =      2.998171750
     EX              =     -0.816753233
     EC              =     -0.056640060
     EX+EC           =     -0.873393293
Transforming the Hamiltonian                       ... done (   0.0 sec)
Diagonalizing the Hamiltonian                      ... done (   0.0 sec)
Back transforming the eigenvectors                 ... done (   0.0 sec)
Now organizing SCF variables                       ... done
                      ------------------
                      INITIAL GUESS DONE (   0.1 sec)
                      ------------------
--------------
SCF ITERATIONS
--------------
ITER       Energy         Delta-E        Max-DP      RMS-DP      [F,P]     Damp
               ***  Starting incremental Fock matrix formation  ***
  0     -1.6497898771   0.000000000000 0.01595565  0.00140362  0.0511942 0.7000
  1     -1.6518445959  -0.002054718732 0.01541324  0.00133251  0.0360354 0.7000
                               ***Turning on DIIS***
  2     -1.6532402557  -0.001395659786 0.03865800  0.00328366  0.0229857 0.0000
  3     -1.6558914431  -0.002651187406 0.00255751  0.00035720  0.0075466 0.0000
  4     -1.6559795515  -0.000088108445 0.00110186  0.00011698  0.0019391 0.0000
  5     -1.6559861889  -0.000006637410 0.00048123  0.00004547  0.0004674 0.0000
  6     -1.6559867005  -0.000000511547 0.00002401  0.00000289  0.0000526 0.0000
                 **** Energy Check signals convergence ****

               *****************************************************
               *                     SUCCESS                       *
               *           SCF CONVERGED AFTER   7 CYCLES          *
               *****************************************************

Setting up the final grid:

General Integration Accuracy     IntAcc      ...  4.670
Radial Grid Type                 RadialGrid  ... Gauss-Chebyshev
Angular Grid (max. acc.)         AngularGrid ... Lebedev-302
Angular grid pruning method      GridPruning ... 3 (G Style)
Weight generation scheme         WeightScheme... Becke
Basis function cutoff            BFCut       ...    1.0000e-11
Integration weight cutoff        WCut        ...    1.0000e-14
Grids for H and He will be reduced by one unit

# of grid points (after initial pruning)     ...  10182 (   0.0 sec)
# of grid points (after weights+screening)   ...  10112 (   0.0 sec)
nearest neighbour list constructed           ...    0.0 sec
Grid point re-assignment to atoms done       ...    0.0 sec
Grid point division into batches done        ...    0.0 sec
Reduced shell lists constructed in    0.0 sec

Total number of grid points                  ...    10112
Total number of batches                      ...      159
Average number of points per batch           ...       63
Average number of grid points per atom       ...     3371
Average number of shells per batch           ...     7.54 (83.81%)
Average number of basis functions per batch  ...    11.49 (76.63%)
Average number of large shells per batch     ...     6.00 (79.54%)
Average number of large basis fcns per batch ...     8.62 (74.97%)
Maximum spatial batch extension              ...  17.51, 17.51, 13.38 au
Average spatial batch extension              ...   2.16,  2.17,  1.57 au

Final grid set up in    0.0 sec
Final integration                            ... done (   0.0 sec)
Change in XC energy                          ...    -0.000151826
Integrated number of electrons               ...     2.999990989
Previous integrated no of electrons          ...     2.999053404

----------------
TOTAL SCF ENERGY
----------------

Total Energy       :           -1.65613853 Eh             -45.06582 eV

Components:
Nuclear Repulsion  :            1.07223149 Eh              29.17690 eV
Electronic Energy  :           -2.72837002 Eh             -74.24272 eV
One Electron Energy:           -3.68682396 Eh            -100.32358 eV
Two Electron Energy:            0.95845393 Eh              26.08086 eV

Virial components:
Potential Energy   :           -3.28667678 Eh             -89.43502 eV
Kinetic Energy     :            1.63053825 Eh              44.36920 eV
Virial Ratio       :            2.01570051


DFT components:
N(Alpha)           :        1.999991679923 electrons
N(Beta)            :        0.999999309269 electrons
N(Total)           :        2.999990989192 electrons
E(X)               :       -0.962107543857 Eh       
E(C)               :       -0.051436322004 Eh       
E(XC)              :       -1.013543865861 Eh       
DFET-embed. en.    :        0.000000000000 Eh       

---------------
SCF CONVERGENCE
---------------

  Last Energy change         ...   -6.1745e-09  Tolerance :   1.0000e-08
  Last MAX-Density change    ...    6.4207e-06  Tolerance :   1.0000e-07
  Last RMS-Density change    ...    5.4343e-07  Tolerance :   5.0000e-09
  Last DIIS Error            ...    1.1069e-05  Tolerance :   5.0000e-07

             **** THE GBW FILE WAS UPDATED (H+H2_H2+H_scan_4_orca.gbw) ****
             **** DENSITY FILE WAS UPDATED (H+H2_H2+H_scan_4_orca.scfp) ****
             **** ENERGY FILE WAS UPDATED (H+H2_H2+H_scan_4_orca.en.tmp) ****
----------------------
UHF SPIN CONTAMINATION
----------------------

Warning: in a DFT calculation there is little theoretical justification to 
         calculate <S**2> as in Hartree-Fock theory. We will do it anyways
         but you should keep in mind that the values have only limited relevance

Expectation value of <S**2>     :     0.750001
Ideal value S*(S+1) for S=0.5   :     0.750000
Deviation                       :     0.000001

             **** THE GBW FILE WAS UPDATED (H+H2_H2+H_scan_4_orca.gbw) ****
             **** DENSITY FILE WAS UPDATED (H+H2_H2+H_scan_4_orca.scfp) ****
----------------
ORBITAL ENERGIES
----------------
                 SPIN UP ORBITALS
  NO   OCC          E(Eh)            E(eV) 
   0   1.0000      -0.383754       -10.4425 
   1   1.0000      -0.276529        -7.5247 
   2   0.0000       0.068208         1.8560 
   3   0.0000       0.289707         7.8833 
   4   0.0000       0.415445        11.3048 
   5   0.0000       0.729779        19.8583 
   6   0.0000       1.111277        30.2394 
   7   0.0000       1.111277        30.2394 
   8   0.0000       1.284623        34.9564 
   9   0.0000       1.284623        34.9564 
  10   0.0000       1.293425        35.1959 
  11   0.0000       1.794816        48.8394 
  12   0.0000       1.914102        52.0854 
  13   0.0000       1.914102        52.0854 
  14   0.0000       3.636795        98.9622 

                 SPIN DOWN ORBITALS
  NO   OCC          E(Eh)            E(eV) 
   0   1.0000      -0.383435       -10.4338 
   1   0.0000       0.054381         1.4798 
   2   0.0000       0.156361         4.2548 
   3   0.0000       0.313469         8.5299 
   4   0.0000       0.727754        19.8032 
   5   0.0000       1.012985        27.5647 
   6   0.0000       1.111403        30.2428 
   7   0.0000       1.111403        30.2428 
   8   0.0000       1.794027        48.8180 
   9   0.0000       1.914284        52.0903 
  10   0.0000       1.914284        52.0903 
  11   0.0000       1.932911        52.5972 
  12   0.0000       1.932911        52.5972 
  13   0.0000       1.958338        53.2891 
  14   0.0000       3.637245        98.9745 

                    ********************************
                    * MULLIKEN POPULATION ANALYSIS *
                    ********************************

--------------------------------------------
MULLIKEN ATOMIC CHARGES AND SPIN POPULATIONS
--------------------------------------------
   0 H :    0.002713    0.996827
   1 H :   -0.001805    0.001936
   2 H :   -0.000908    0.001237
Sum of atomic charges         :    0.0000000
Sum of atomic spin populations:    1.0000000

-----------------------------------------------------
MULLIKEN REDUCED ORBITAL CHARGES AND SPIN POPULATIONS
-----------------------------------------------------
CHARGE
  0 H s       :     0.997276  s :     0.997276
      pz      :     0.000011  p :     0.000011
      px      :     0.000000
      py      :     0.000000
  1 H s       :     0.992047  s :     0.992047
      pz      :     0.009758  p :     0.009758
      px      :     0.000000
      py      :     0.000000
  2 H s       :     0.991044  s :     0.991044
      pz      :     0.009864  p :     0.009864
      px      :     0.000000
      py      :     0.000000

SPIN
  0 H s       :     0.996820  s :     0.996820
      pz      :     0.000007  p :     0.000007
      px      :     0.000000
      py      :     0.000000
  1 H s       :     0.001898  s :     0.001898
      pz      :     0.000039  p :     0.000039
      px      :    -0.000000
      py      :    -0.000000
  2 H s       :     0.001228  s :     0.001228
      pz      :     0.000009  p :     0.000009
      px      :     0.000000
      py      :     0.000000


                     *******************************
                     * LOEWDIN POPULATION ANALYSIS *
                     *******************************

-------------------------------------------
LOEWDIN ATOMIC CHARGES AND SPIN POPULATIONS
-------------------------------------------
   0 H :    0.002465    0.997011
   1 H :   -0.001942    0.001746
   2 H :   -0.000524    0.001243

----------------------------------------------------
LOEWDIN REDUCED ORBITAL CHARGES AND SPIN POPULATIONS
----------------------------------------------------
CHARGE
  0 H s       :     0.997527  s :     0.997527
      pz      :     0.000008  p :     0.000008
      px      :     0.000000
      py      :     0.000000
  1 H s       :     0.973532  s :     0.973532
      pz      :     0.028409  p :     0.028409
      px      :     0.000000
      py      :     0.000000
  2 H s       :     0.972289  s :     0.972289
      pz      :     0.028234  p :     0.028234
      px      :     0.000000
      py      :     0.000000

SPIN
  0 H s       :     0.997006  s :     0.997006
      pz      :     0.000005  p :     0.000005
      px      :     0.000000
      py      :     0.000000
  1 H s       :     0.001479  s :     0.001479
      pz      :     0.000267  p :     0.000267
      px      :     0.000000
      py      :     0.000000
  2 H s       :     0.001269  s :     0.001269
      pz      :    -0.000026  p :    -0.000026
      px      :    -0.000000
      py      :    -0.000000


                      *****************************
                      * MAYER POPULATION ANALYSIS *
                      *****************************

  NA   - Mulliken gross atomic population
  ZA   - Total nuclear charge
  QA   - Mulliken gross atomic charge
  VA   - Mayer's total valence
  BVA  - Mayer's bonded valence
  FA   - Mayer's free valence

  ATOM       NA         ZA         QA         VA         BVA        FA
  0 H      0.9973     1.0000     0.0027     1.0004     0.0068     0.9937
  1 H      1.0018     1.0000    -0.0018     1.0046     1.0046     0.0000
  2 H      1.0009     1.0000    -0.0009     0.9987     0.9987     0.0000

  Mayer bond orders larger than 0.100000
B(  1-H ,  2-H ) :   0.9982 

-------
TIMINGS
-------

Total SCF time: 0 days 0 hours 0 min 0 sec 

Total time                  ....       0.882 sec
Sum of individual times     ....       0.796 sec  ( 90.3%)

Fock matrix formation       ....       0.612 sec  ( 69.4%)
  Split-RI-J                ....       0.553 sec  ( 90.3% of F)
  XC integration            ....       0.054 sec  (  8.8% of F)
    Basis function eval.    ....       0.014 sec  ( 25.8% of XC)
    Density eval.           ....       0.011 sec  ( 20.4% of XC)
    XC-Functional eval.     ....       0.018 sec  ( 33.7% of XC)
    XC-Potential eval.      ....       0.004 sec  (  7.8% of XC)
Diagonalization             ....       0.001 sec  (  0.1%)
Density matrix formation    ....       0.000 sec  (  0.0%)
Population analysis         ....       0.002 sec  (  0.2%)
Initial guess               ....       0.131 sec  ( 14.9%)
Orbital Transformation      ....       0.000 sec  (  0.0%)
Orbital Orthonormalization  ....       0.000 sec  (  0.0%)
DIIS solution               ....       0.001 sec  (  0.1%)
Grid generation             ....       0.048 sec  (  5.4%)

-------------------------   --------------------
FINAL SINGLE POINT ENERGY        -1.656138532353
-------------------------   --------------------



           ************************************************************
           *        Program running with 2 parallel MPI-processes     *
           *              working on a common directory               *
           ************************************************************
------------------------------------------------------------------------------
                         ORCA SCF GRADIENT CALCULATION
------------------------------------------------------------------------------

Gradient of the Kohn-Sham DFT energy:
Kohn-Sham wavefunction type      ... UKS
Hartree-Fock exchange scaling    ...    0.000
Number of operators              ...    2
Number of atoms                  ...    3
Basis set dimensions             ...   15
Integral neglect threshold       ... 2.5e-11
Integral primitive cutoff        ... 2.5e-12

Nuclear repulsion gradient       ... done
One Electron Gradient            ... done
Pre-screening matrix             ... done
RI-J gradient                    ... done
Exchange-correlation gradient    ... done

------------------
CARTESIAN GRADIENT
------------------

   1   H   :    0.000000000    0.000000000    0.000016093
   2   H   :    0.000000007   -0.000000007    0.056069876
   3   H   :   -0.000000007    0.000000007   -0.056085969

Difference to translation invariance:
           :   -0.0000000000   -0.0000000000    0.0000000000

Norm of the cartesian gradient     ...    0.0793061607
RMS gradient                       ...    0.0264353869
MAX gradient                       ...    0.0560859687

-------
TIMINGS
-------

Total SCF gradient time            ...        0.271 sec

One electron gradient       ....       0.000 sec  (  0.1%)
Prescreening matrices       ....       0.000 sec  (  0.1%)
RI-J Coulomb gradient       ....       0.065 sec  ( 24.2%)
XC gradient                 ....       0.049 sec  ( 18.0%)
------------------------------------------------------------------------------
                         ORCA GEOMETRY RELAXATION STEP
------------------------------------------------------------------------------

Reading the OPT-File                    .... done
Getting information on internals        .... done
Copying old internal coords+grads       .... done
Making the new internal coordinates     .... (new redundants).... done
Validating the new internal coordinates .... (new redundants).... done
Calculating the B-matrix                .... done
Calculating the G,G- and P matrices     .... done
Transforming gradient to internals      .... done
Projecting the internal gradient        .... done
Number of atoms                         ....   3
Number of internal coordinates          ....   5
Current Energy                          ....    -1.656138532 Eh
Current gradient norm                   ....     0.079306161 Eh/bohr
Maximum allowed component of the step   ....  0.300
Current trust radius                    ....  0.300
Evaluating the initial hessian          ....  (Almloef) done
Projecting the Hessian                  .... done
Forming the augmented Hessian           .... done
Diagonalizing the augmented Hessian     .... done
Last element of RFO vector              ....  0.946554511
Lowest eigenvalues of augmented Hessian:
 -0.000003878  0.000033394  0.105791651  0.105791651 1000.000000000
Length of the computed step             ....  0.340755741
Warning: the length of the step is outside the trust region - taking restricted step instead
The input lambda is                     ....    -0.000004
   iter:   1  x=   -0.000008  g= 6966.627941 f(x)=     0.026114
   iter:   2  x=   -0.000008  g= 5061.347651 f(x)=     0.003860
   iter:   3  x=   -0.000008  g= 4761.663244 f(x)=     0.000121
   iter:   4  x=   -0.000008  g= 4752.078776 f(x)=     0.000000
   iter:   5  x=   -0.000008  g= 4752.055797 f(x)=     0.000000
   iter:   6  x=   -0.000008  g= 4752.055765 f(x)=     0.000000
The output lambda is                    ....    -0.000008 (6 iterations)
The final length of the internal step   ....  0.300000000
Converting the step to cartesian space:
 Initial RMS(Int)=    0.1341640786
Transforming coordinates:
 Iter   0:  RMS(Cart)=    0.0544331054 RMS(Int)=    0.1264911064
 Iter   1:  RMS(Cart)=    0.0033019215 RMS(Int)=    0.0076729722
 Iter   2:  RMS(Cart)=    0.0000000003 RMS(Int)=    0.0000000000
Imposing constraints:
 Iter   0:  RMS(Cart)=    0.0000000140 RMS(Int)=    0.0000000296
CONVERGED
done
Storing new coordinates                 .... done

                                .--------------------.
          ----------------------|Geometry convergence|-------------------------
          Item                value                   Tolerance       Converged
          ---------------------------------------------------------------------
          RMS gradient        0.0000050890            0.0001000000      YES
          MAX gradient        0.0000080464            0.0003000000      YES
          RMS step            0.1341640786            0.0020000000      NO
          MAX step            0.2121320344            0.0040000000      NO
          ........................................................
          Max(Bonds)      0.1123      Max(Angles)    0.00
          Max(Dihed)        0.00      Max(Improp)    0.00
          ---------------------------------------------------------------------

The optimization has not yet converged - more geometry cycles are needed


    ---------------------------------------------------------------------------
                         Redundant Internal Coordinates
                            (Angstroem and degrees)

        Definition                    Value    dE/dq     Step     New-Value
    ----------------------------------------------------------------------------
     1. B(H   1,H   0)                3.0326  0.018685  0.1123    3.1449   
     2. B(H   2,H   1)                0.7000 -0.037385 -0.0000    0.7000 C 
     3. B(H   2,H   0)                3.7326 -0.018701  0.1123    3.8449   
     4. L(H   0,H   1,H   2, 1)       180.00  0.000000   -0.00    180.00   
     5. L(H   0,H   1,H   2, 2)       180.00  0.000000    0.00    180.00   
    ----------------------------------------------------------------------------

         *************************************************************
         *                GEOMETRY OPTIMIZATION CYCLE   2            *
         *************************************************************
---------------------------------
CARTESIAN COORDINATES (ANGSTROEM)
---------------------------------
  H      0.000000   -0.000000   -1.529931
  H     -0.000000    0.000000    1.614965
  H      0.000000   -0.000000    2.314965

----------------------------
CARTESIAN COORDINATES (A.U.)
----------------------------
  NO LB      ZA    FRAG     MASS         X           Y           Z
   0 H     1.0000    0     1.008    0.000000   -0.000000   -2.891150
   1 H     1.0000    0     1.008   -0.000000    0.000000    3.051842
   2 H     1.0000    0     1.008    0.000000   -0.000000    4.374650

--------------------------------
INTERNAL COORDINATES (ANGSTROEM)
--------------------------------
 H      0   0   0     0.000000000000     0.00000000     0.00000000
 H      1   0   0     3.144895800882     0.00000000     0.00000000
 H      2   1   0     0.700000013699   179.99998805     0.00000000

---------------------------
INTERNAL COORDINATES (A.U.)
---------------------------
 H      0   0   0     0.000000000000     0.00000000     0.00000000
 H      1   0   0     5.942991783386     0.00000000     0.00000000
 H      2   1   0     1.322808319632   179.99998805     0.00000000



           ************************************************************
           *        Program running with 2 parallel MPI-processes     *
           *              working on a common directory               *
           ************************************************************
 One Electron integrals                  ... done
 Pre-screening matrix                    ... done


           ************************************************************
           *        Program running with 2 parallel MPI-processes     *
           *              working on a common directory               *
           ************************************************************

Diagonalization of the overlap matrix:
Smallest eigenvalue                        ... 3.612e-02
Time for diagonalization                   ...    0.001 sec
Threshold for overlap eigenvalues          ... 1.000e-08
Number of eigenvalues below threshold      ... 0
Time for construction of square roots      ...    0.000 sec
Total time needed                          ...    0.001 sec

-------------------
DFT GRID GENERATION
-------------------

General Integration Accuracy     IntAcc      ...  4.340
Radial Grid Type                 RadialGrid  ... Gauss-Chebyshev
Angular Grid (max. acc.)         AngularGrid ... Lebedev-110
Angular grid pruning method      GridPruning ... 3 (G Style)
Weight generation scheme         WeightScheme... Becke
Basis function cutoff            BFCut       ...    1.0000e-11
Integration weight cutoff        WCut        ...    1.0000e-14
Grids for H and He will be reduced by one unit

# of grid points (after initial pruning)     ...   2382 (   0.0 sec)
# of grid points (after weights+screening)   ...   2346 (   0.0 sec)
nearest neighbour list constructed           ...    0.0 sec
Grid point re-assignment to atoms done       ...    0.0 sec
Grid point division into batches done        ...    0.0 sec
Reduced shell lists constructed in    0.0 sec

Total number of grid points                  ...     2346
Total number of batches                      ...       38
Average number of points per batch           ...       61
Average number of grid points per atom       ...      782
Average number of shells per batch           ...     8.10 (90.00%)
Average number of basis functions per batch  ...    13.00 (86.67%)
Average number of large shells per batch     ...     6.85 (84.57%)
Average number of large basis fcns per batch ...    10.25 (78.85%)
Maximum spatial batch extension              ...  17.62, 21.59, 14.26 au
Average spatial batch extension              ...   3.26,  3.96,  2.68 au

Time for grid setup =    0.009 sec

--------------
SCF ITERATIONS
--------------
ITER       Energy         Delta-E        Max-DP      RMS-DP      [F,P]     Damp
               ***  Starting incremental Fock matrix formation  ***
  0     -1.6560041266   0.000000000000 0.00026944  0.00002702  0.0006206 0.7000
  1     -1.6560046170  -0.000000490410 0.00032402  0.00003085  0.0005071 0.7000
                               ***Turning on DIIS***
  2     -1.6560050303  -0.000000413238 0.00111193  0.00010201  0.0003934 0.0000
  3     -1.6560060710  -0.000001040689 0.00004426  0.00000417  0.0000775 0.0000
  4     -1.6560060838  -0.000000012828 0.00001888  0.00000178  0.0000258 0.0000
                 **** Energy Check signals convergence ****

               *****************************************************
               *                     SUCCESS                       *
               *           SCF CONVERGED AFTER   5 CYCLES          *
               *****************************************************

Setting up the final grid:

General Integration Accuracy     IntAcc      ...  4.670
Radial Grid Type                 RadialGrid  ... Gauss-Chebyshev
Angular Grid (max. acc.)         AngularGrid ... Lebedev-302
Angular grid pruning method      GridPruning ... 3 (G Style)
Weight generation scheme         WeightScheme... Becke
Basis function cutoff            BFCut       ...    1.0000e-11
Integration weight cutoff        WCut        ...    1.0000e-14
Grids for H and He will be reduced by one unit

# of grid points (after initial pruning)     ...  10182 (   0.0 sec)
# of grid points (after weights+screening)   ...  10112 (   0.0 sec)
nearest neighbour list constructed           ...    0.0 sec
Grid point re-assignment to atoms done       ...    0.0 sec
Grid point division into batches done        ...    0.0 sec
Reduced shell lists constructed in    0.0 sec

Total number of grid points                  ...    10112
Total number of batches                      ...      159
Average number of points per batch           ...       63
Average number of grid points per atom       ...     3371
Average number of shells per batch           ...     7.51 (83.40%)
Average number of basis functions per batch  ...    11.41 (76.05%)
Average number of large shells per batch     ...     5.86 (78.12%)
Average number of large basis fcns per batch ...     8.36 (73.27%)
Maximum spatial batch extension              ...  17.51, 17.51, 11.41 au
Average spatial batch extension              ...   2.20,  2.21,  1.61 au

Final grid set up in    0.0 sec
Final integration                            ... done (   0.0 sec)
Change in XC energy                          ...    -0.000129877
Integrated number of electrons               ...     2.999994126
Previous integrated no of electrons          ...     2.999051082
Total Energy       :           -1.65613596 Eh             -45.06575 eV
  Last Energy change         ...   -1.4374e-09  Tolerance :   1.0000e-08
  Last MAX-Density change    ...    5.8662e-06  Tolerance :   1.0000e-07
             **** THE GBW FILE WAS UPDATED (H+H2_H2+H_scan_4_orca.gbw) ****
             **** DENSITY FILE WAS UPDATED (H+H2_H2+H_scan_4_orca.scfp) ****
             **** ENERGY FILE WAS UPDATED (H+H2_H2+H_scan_4_orca.en.tmp) ****
----------------------
UHF SPIN CONTAMINATION
----------------------

Warning: in a DFT calculation there is little theoretical justification to 
         calculate <S**2> as in Hartree-Fock theory. We will do it anyways
         but you should keep in mind that the values have only limited relevance

Expectation value of <S**2>     :     0.750000
Ideal value S*(S+1) for S=0.5   :     0.750000
Deviation                       :     0.000000

             **** THE GBW FILE WAS UPDATED (H+H2_H2+H_scan_4_orca.gbw) ****
             **** DENSITY FILE WAS UPDATED (H+H2_H2+H_scan_4_orca.scfp) ****
Total SCF time: 0 days 0 hours 0 min 0 sec 

-------------------------   --------------------
FINAL SINGLE POINT ENERGY        -1.656135962252
-------------------------   --------------------



           ************************************************************
           *        Program running with 2 parallel MPI-processes     *
           *              working on a common directory               *
           ************************************************************
------------------------------------------------------------------------------
                         ORCA SCF GRADIENT CALCULATION
------------------------------------------------------------------------------

Gradient of the Kohn-Sham DFT energy:
Kohn-Sham wavefunction type      ... UKS
Hartree-Fock exchange scaling    ...    0.000
Number of operators              ...    2
Number of atoms                  ...    3
Basis set dimensions             ...   15
Integral neglect threshold       ... 2.5e-11
Integral primitive cutoff        ... 2.5e-12

Nuclear repulsion gradient       ... done
One Electron Gradient            ... done
Pre-screening matrix             ... done
RI-J gradient                    ... done
Exchange-correlation gradient    ... done

------------------
CARTESIAN GRADIENT
------------------

   1   H   :   -0.000000000   -0.000000000   -0.000046266
   2   H   :    0.000000007   -0.000000007    0.056179522
   3   H   :   -0.000000007    0.000000007   -0.056133256

Difference to translation invariance:
           :    0.0000000000    0.0000000000    0.0000000000

Norm of the cartesian gradient     ...    0.0794171471
RMS gradient                       ...    0.0264723824
MAX gradient                       ...    0.0561795219

-------
TIMINGS
-------

Total SCF gradient time            ...        0.258 sec

One electron gradient       ....       0.001 sec  (  0.6%)
Prescreening matrices       ....       0.000 sec  (  0.0%)
RI-J Coulomb gradient       ....       0.063 sec  ( 24.4%)
XC gradient                 ....       0.050 sec  ( 19.6%)
------------------------------------------------------------------------------
                         ORCA GEOMETRY RELAXATION STEP
------------------------------------------------------------------------------

Reading the OPT-File                    .... done
Getting information on internals        .... done
Copying old internal coords+grads       .... done
Making the new internal coordinates     .... (new redundants).... done
Validating the new internal coordinates .... (new redundants).... done
Calculating the B-matrix                .... done
Calculating the G,G- and P matrices     .... done
Transforming gradient to internals      .... done
Projecting the internal gradient        .... done
Number of atoms                         ....   3
Number of internal coordinates          ....   5
Current Energy                          ....    -1.656135962 Eh
Current gradient norm                   ....     0.079417147 Eh/bohr
Maximum allowed component of the step   ....  0.300
Current trust radius                    ....  0.300
Updating the Hessian (BFGS)             .... done
Forming the augmented Hessian           .... done
Diagonalizing the augmented Hessian     .... done
Last element of RFO vector              ....  0.978105200
Lowest eigenvalues of augmented Hessian:
 -0.000006961  0.000153758  0.105791651  0.105791651 999.998017440
Length of the computed step             ....  0.212769617
The final length of the internal step   ....  0.212769617
Converting the step to cartesian space:
 Initial RMS(Int)=    0.0951534652
Transforming coordinates:
 Iter   0:  RMS(Cart)=    0.0409475318 RMS(Int)=    0.0951534652
 Iter   1:  RMS(Cart)=    0.0000000010 RMS(Int)=    0.0000000028
Imposing constraints:
 Iter   0:  RMS(Cart)=    0.0000000113 RMS(Int)=    0.0000000239
CONVERGED
done
Storing new coordinates                 .... done

                                .--------------------.
          ----------------------|Geometry convergence|-------------------------
          Item                value                   Tolerance       Converged
          ---------------------------------------------------------------------
          Energy change       0.0000025701            0.0000050000      YES
          RMS gradient        0.0000146306            0.0001000000      YES
          MAX gradient        0.0000231330            0.0003000000      YES
          RMS step            0.0951534652            0.0020000000      NO
          MAX step            0.1504508598            0.0040000000      NO
          ........................................................
          Max(Bonds)      0.0796      Max(Angles)    0.00
          Max(Dihed)        0.00      Max(Improp)    0.00
          ---------------------------------------------------------------------

The optimization has not yet converged - more geometry cycles are needed


    ---------------------------------------------------------------------------
                         Redundant Internal Coordinates
                            (Angstroem and degrees)

        Definition                    Value    dE/dq     Step     New-Value
    ----------------------------------------------------------------------------
     1. B(H   1,H   0)                3.1449  0.018742 -0.0796    3.0653   
     2. B(H   2,H   1)                0.7000 -0.037438  0.0000    0.7000 C 
     3. B(H   2,H   0)                3.8449 -0.018696 -0.0796    3.7653   
     4. L(H   0,H   1,H   2, 1)       180.00  0.000000    0.00    180.00   
     5. L(H   0,H   1,H   2, 2)       180.00  0.000000    0.00    180.00   
    ----------------------------------------------------------------------------

         *************************************************************
         *                GEOMETRY OPTIMIZATION CYCLE   3            *
         *************************************************************
---------------------------------
CARTESIAN COORDINATES (ANGSTROEM)
---------------------------------
  H      0.000000   -0.000000   -1.476854
  H     -0.000000    0.000000    1.588427
  H      0.000000   -0.000000    2.288427

----------------------------
CARTESIAN COORDINATES (A.U.)
----------------------------
  NO LB      ZA    FRAG     MASS         X           Y           Z
   0 H     1.0000    0     1.008    0.000000   -0.000000   -2.790849
   1 H     1.0000    0     1.008   -0.000000    0.000000    3.001692
   2 H     1.0000    0     1.008    0.000000   -0.000000    4.324500

--------------------------------
INTERNAL COORDINATES (ANGSTROEM)
--------------------------------
 H      0   0   0     0.000000000000     0.00000000     0.00000000
 H      1   0   0     3.065280647584     0.00000000     0.00000000
 H      2   1   0     0.700000010663   179.99998839     0.00000000

---------------------------
INTERNAL COORDINATES (A.U.)
---------------------------
 H      0   0   0     0.000000000000     0.00000000     0.00000000
 H      1   0   0     5.792540947543     0.00000000     0.00000000
 H      2   1   0     1.322808313894   179.99998839     0.00000000



           ************************************************************
           *        Program running with 2 parallel MPI-processes     *
           *              working on a common directory               *
           ************************************************************
 One Electron integrals                  ... done
 Pre-screening matrix                    ... done


           ************************************************************
           *        Program running with 2 parallel MPI-processes     *
           *              working on a common directory               *
           ************************************************************

Diagonalization of the overlap matrix:
Smallest eigenvalue                        ... 3.610e-02
Time for diagonalization                   ...    0.000 sec
Threshold for overlap eigenvalues          ... 1.000e-08
Number of eigenvalues below threshold      ... 0
Time for construction of square roots      ...    0.001 sec
Total time needed                          ...    0.001 sec

-------------------
DFT GRID GENERATION
-------------------

General Integration Accuracy     IntAcc      ...  4.340
Radial Grid Type                 RadialGrid  ... Gauss-Chebyshev
Angular Grid (max. acc.)         AngularGrid ... Lebedev-110
Angular grid pruning method      GridPruning ... 3 (G Style)
Weight generation scheme         WeightScheme... Becke
Basis function cutoff            BFCut       ...    1.0000e-11
Integration weight cutoff        WCut        ...    1.0000e-14
Grids for H and He will be reduced by one unit

# of grid points (after initial pruning)     ...   2382 (   0.0 sec)
# of grid points (after weights+screening)   ...   2346 (   0.0 sec)
nearest neighbour list constructed           ...    0.0 sec
Grid point re-assignment to atoms done       ...    0.0 sec
Grid point division into batches done        ...    0.0 sec
Reduced shell lists constructed in    0.0 sec

Total number of grid points                  ...     2346
Total number of batches                      ...       38
Average number of points per batch           ...       61
Average number of grid points per atom       ...      782
Average number of shells per batch           ...     8.10 (90.00%)
Average number of basis functions per batch  ...    13.00 (86.67%)
Average number of large shells per batch     ...     7.10 (87.65%)
Average number of large basis fcns per batch ...    10.90 (83.85%)
Maximum spatial batch extension              ...  17.62, 21.59, 14.26 au
Average spatial batch extension              ...   3.59,  4.42,  2.72 au

Time for grid setup =    0.009 sec

--------------
SCF ITERATIONS
--------------
ITER       Energy         Delta-E        Max-DP      RMS-DP      [F,P]     Damp
               ***  Starting incremental Fock matrix formation  ***
  0     -1.6559921010   0.000000000000 0.00018497  0.00001861  0.0004248 0.7000
  1     -1.6559923321  -0.000000231142 0.00022284  0.00002124  0.0003401 0.7000
                               ***Turning on DIIS***
  2     -1.6559925265  -0.000000194372 0.00076488  0.00007022  0.0002622 0.0000
  3     -1.6559930129  -0.000000486445 0.00003051  0.00000286  0.0000489 0.0000
                 **** Energy Check signals convergence ****

               *****************************************************
               *                     SUCCESS                       *
               *           SCF CONVERGED AFTER   4 CYCLES          *
               *****************************************************

Setting up the final grid:

General Integration Accuracy     IntAcc      ...  4.670
Radial Grid Type                 RadialGrid  ... Gauss-Chebyshev
Angular Grid (max. acc.)         AngularGrid ... Lebedev-302
Angular grid pruning method      GridPruning ... 3 (G Style)
Weight generation scheme         WeightScheme... Becke
Basis function cutoff            BFCut       ...    1.0000e-11
Integration weight cutoff        WCut        ...    1.0000e-14
Grids for H and He will be reduced by one unit

# of grid points (after initial pruning)     ...  10182 (   0.0 sec)
# of grid points (after weights+screening)   ...  10112 (   0.0 sec)
nearest neighbour list constructed           ...    0.0 sec
Grid point re-assignment to atoms done       ...    0.0 sec
Grid point division into batches done        ...    0.0 sec
Reduced shell lists constructed in    0.0 sec

Total number of grid points                  ...    10112
Total number of batches                      ...      159
Average number of points per batch           ...       63
Average number of grid points per atom       ...     3371
Average number of shells per batch           ...     7.58 (84.22%)
Average number of basis functions per batch  ...    11.58 (77.20%)
Average number of large shells per batch     ...     6.01 (79.32%)
Average number of large basis fcns per batch ...     8.68 (74.95%)
Maximum spatial batch extension              ...  17.51, 17.51, 13.44 au
Average spatial batch extension              ...   2.16,  2.16,  1.58 au

Final grid set up in    0.0 sec
Final integration                            ... done (   0.0 sec)
Change in XC energy                          ...    -0.000146197
Integrated number of electrons               ...     2.999991703
Previous integrated no of electrons          ...     2.999049458
Total Energy       :           -1.65613922 Eh             -45.06584 eV
  Last Energy change         ...   -5.4648e-09  Tolerance :   1.0000e-08
  Last MAX-Density change    ...    1.2610e-05  Tolerance :   1.0000e-07
             **** THE GBW FILE WAS UPDATED (H+H2_H2+H_scan_4_orca.gbw) ****
             **** DENSITY FILE WAS UPDATED (H+H2_H2+H_scan_4_orca.scfp) ****
             **** ENERGY FILE WAS UPDATED (H+H2_H2+H_scan_4_orca.en.tmp) ****
----------------------
UHF SPIN CONTAMINATION
----------------------

Warning: in a DFT calculation there is little theoretical justification to 
         calculate <S**2> as in Hartree-Fock theory. We will do it anyways
         but you should keep in mind that the values have only limited relevance

Expectation value of <S**2>     :     0.750001
Ideal value S*(S+1) for S=0.5   :     0.750000
Deviation                       :     0.000001

             **** THE GBW FILE WAS UPDATED (H+H2_H2+H_scan_4_orca.gbw) ****
             **** DENSITY FILE WAS UPDATED (H+H2_H2+H_scan_4_orca.scfp) ****
Total SCF time: 0 days 0 hours 0 min 0 sec 

-------------------------   --------------------
FINAL SINGLE POINT ENERGY        -1.656139215315
-------------------------   --------------------



           ************************************************************
           *        Program running with 2 parallel MPI-processes     *
           *              working on a common directory               *
           ************************************************************
------------------------------------------------------------------------------
                         ORCA SCF GRADIENT CALCULATION
------------------------------------------------------------------------------

Gradient of the Kohn-Sham DFT energy:
Kohn-Sham wavefunction type      ... UKS
Hartree-Fock exchange scaling    ...    0.000
Number of operators              ...    2
Number of atoms                  ...    3
Basis set dimensions             ...   15
Integral neglect threshold       ... 2.5e-11
Integral primitive cutoff        ... 2.5e-12

Nuclear repulsion gradient       ... done
One Electron Gradient            ... done
Pre-screening matrix             ... done
RI-J gradient                    ... done
Exchange-correlation gradient    ... done

------------------
CARTESIAN GRADIENT
------------------

   1   H   :    0.000000000   -0.000000000   -0.000001748
   2   H   :    0.000000006   -0.000000006    0.056103975
   3   H   :   -0.000000006    0.000000006   -0.056102227

Difference to translation invariance:
           :   -0.0000000000   -0.0000000000   -0.0000000000

Norm of the cartesian gradient     ...    0.0793417669
RMS gradient                       ...    0.0264472556
MAX gradient                       ...    0.0561039753

-------
TIMINGS
-------

Total SCF gradient time            ...        0.259 sec

One electron gradient       ....       0.000 sec  (  0.1%)
Prescreening matrices       ....       0.000 sec  (  0.1%)
RI-J Coulomb gradient       ....       0.064 sec  ( 24.6%)
XC gradient                 ....       0.049 sec  ( 19.1%)
------------------------------------------------------------------------------
                         ORCA GEOMETRY RELAXATION STEP
------------------------------------------------------------------------------

Reading the OPT-File                    .... done
Getting information on internals        .... done
Copying old internal coords+grads       .... done
Making the new internal coordinates     .... (new redundants).... done
Validating the new internal coordinates .... (new redundants).... done
Calculating the B-matrix                .... done
Calculating the G,G- and P matrices     .... done
Transforming gradient to internals      .... done
Projecting the internal gradient        .... done
Number of atoms                         ....   3
Number of internal coordinates          ....   5
Current Energy                          ....    -1.656139215 Eh
Current gradient norm                   ....     0.079341767 Eh/bohr
Maximum allowed component of the step   ....  0.300
Current trust radius                    ....  0.300
Updating the Hessian (BFGS)             .... done
Forming the augmented Hessian           .... done
Diagonalizing the augmented Hessian     .... done
Last element of RFO vector              ....  0.999965104
Lowest eigenvalues of augmented Hessian:
 -0.000000010  0.000147935  0.105791651  0.105791651 999.997501803
Length of the computed step             ....  0.008354393
The final length of the internal step   ....  0.008354393
Converting the step to cartesian space:
 Initial RMS(Int)=    0.0037361981
Transforming coordinates:
 Iter   0:  RMS(Cart)=    0.0016078037 RMS(Int)=    0.0037361981
 Iter   1:  RMS(Cart)=    0.0000000011 RMS(Int)=    0.0000000025
Imposing constraints:
 Iter   0:  RMS(Cart)=    0.0000000037 RMS(Int)=    0.0000000079
CONVERGED
done
Storing new coordinates                 .... done

                                .--------------------.
          ----------------------|Geometry convergence|-------------------------
          Item                value                   Tolerance       Converged
          ---------------------------------------------------------------------
          Energy change      -0.0000032531            0.0000050000      YES
          RMS gradient        0.0000005527            0.0001000000      YES
          MAX gradient        0.0000008739            0.0003000000      YES
          RMS step            0.0037361981            0.0020000000      NO
          MAX step            0.0059074479            0.0040000000      NO
          ........................................................
          Max(Bonds)      0.0031      Max(Angles)    0.00
          Max(Dihed)        0.00      Max(Improp)    0.00
          ---------------------------------------------------------------------

       The gradient convergence is overachieved with 
       reasonable convergence on the displacements
       Convergence will therefore be signaled now


                    ***********************HURRAY********************
                    ***        THE OPTIMIZATION HAS CONVERGED     ***
                    *************************************************


    ---------------------------------------------------------------------------
                         Redundant Internal Coordinates

                          --- Optimized Parameters ---  
                            (Angstroem and degrees)

        Definition                    OldVal   dE/dq     Step     FinalVal
    ----------------------------------------------------------------------------
     1. B(H   1,H   0)                3.0653  0.018702 -0.0031    3.0622   
     2. B(H   2,H   1)                0.7000 -0.037402 -0.0000    0.7000 C 
     3. B(H   2,H   0)                3.7653 -0.018700 -0.0031    3.7622   
     4. L(H   0,H   1,H   2, 1)       180.00  0.000000    0.00    180.00   
     5. L(H   0,H   1,H   2, 2)       180.00  0.000000    0.00    180.00   
    ----------------------------------------------------------------------------
                 *******************************************************
                 *** FINAL ENERGY EVALUATION AT THE STATIONARY POINT ***
                 ***               (AFTER    3 CYCLES)               ***
                 *******************************************************
---------------------------------
CARTESIAN COORDINATES (ANGSTROEM)
---------------------------------
  H      0.000000   -0.000000   -1.474770
  H     -0.000000    0.000000    1.587385
  H      0.000000   -0.000000    2.287385

----------------------------
CARTESIAN COORDINATES (A.U.)
----------------------------
  NO LB      ZA    FRAG     MASS         X           Y           Z
   0 H     1.0000    0     1.008    0.000000   -0.000000   -2.786911
   1 H     1.0000    0     1.008   -0.000000    0.000000    2.999723
   2 H     1.0000    0     1.008    0.000000   -0.000000    4.322531

--------------------------------
INTERNAL COORDINATES (ANGSTROEM)
--------------------------------
 H      0   0   0     0.000000000000     0.00000000     0.00000000
 H      1   0   0     3.062154565066     0.00000000     0.00000000
 H      2   1   0     0.700000002193   179.99998851     0.00000000

---------------------------
INTERNAL COORDINATES (A.U.)
---------------------------
 H      0   0   0     0.000000000000     0.00000000     0.00000000
 H      1   0   0     5.786633507711     0.00000000     0.00000000
 H      2   1   0     1.322808297890   179.99998851     0.00000000

---------------------
BASIS SET INFORMATION
---------------------
There are 1 groups of distinct atoms

 Group   1 Type H   : 4s1p contracted to 2s1p pattern {31/1}

Atom   0H    basis set group =>   1
Atom   1H    basis set group =>   1
Atom   2H    basis set group =>   1
---------------------------------
AUXILIARY/J BASIS SET INFORMATION
---------------------------------
There are 1 groups of distinct atoms

 Group   1 Type H   : 5s2p1d contracted to 3s1p1d pattern {311/2/1}

Atom   0H    basis set group =>   1
Atom   1H    basis set group =>   1
Atom   2H    basis set group =>   1


           ************************************************************
           *        Program running with 2 parallel MPI-processes     *
           *              working on a common directory               *
           ************************************************************
------------------------------------------------------------------------------
                           ORCA GTO INTEGRAL CALCULATION
                           -- RI-GTO INTEGRALS CHOSEN --
------------------------------------------------------------------------------

                         BASIS SET STATISTICS AND STARTUP INFO

Gaussian basis set:
 # of primitive gaussian shells          ...   15
 # of primitive gaussian functions       ...   21
 # of contracted shells                  ...    9
 # of contracted basis functions         ...   15
 Highest angular momentum                ...    1
 Maximum contraction depth               ...    3
Auxiliary gaussian basis set:
 # of primitive gaussian shells          ...   24
 # of primitive gaussian functions       ...   48
 # of contracted shells                  ...   15
 # of contracted aux-basis functions     ...   33
 Highest angular momentum                ...    2
 Maximum contraction depth               ...    3
Ratio of auxiliary to basis functions    ...  2.20
Integral package used                  ... LIBINT
 One Electron integrals                  ... done
 Ordering auxiliary basis shells         ... done
 Integral threshhold             Thresh  ...  2.500e-11
 Primitive cut-off               TCut    ...  2.500e-12
 Pre-screening matrix                    ... done
 Shell pair data                         ... 
 Ordering of the shell pairs             ... done (   0.000 sec) 45 of 45 pairs
 Determination of significant pairs      ... done (   0.000 sec)
 Creation of shell pair data             ... done (   0.000 sec)
 Storage of shell pair data              ... done (   0.000 sec)
 Shell pair data done in (   0.000 sec)
 Computing two index integrals           ... done
 Cholesky decomposition of the V-matrix  ... done


Timings:
 Total evaluation time                   ...   0.172 sec (  0.003 min)
 One electron matrix time                ...   0.007 sec (  0.000 min) =  3.8%
 Schwartz matrix evaluation time         ...   0.144 sec (  0.002 min) = 83.7%
 Two index repulsion integral time       ...   0.000 sec (  0.000 min) =  0.1%
 Cholesky decomposition of V             ...   0.000 sec (  0.000 min) =  0.2%
 Three index repulsion integral time     ...   0.000 sec (  0.000 min) =  0.0%



           ************************************************************
           *        Program running with 2 parallel MPI-processes     *
           *              working on a common directory               *
           ************************************************************
-------------------------------------------------------------------------------
                                 ORCA SCF
-------------------------------------------------------------------------------

------------
SCF SETTINGS
------------
Hamiltonian:
 Density Functional     Method          .... DFT(GTOs)
 Exchange Functional    Exchange        .... PBE
   PBE kappa parameter   XKappa         ....  0.804000
   PBE mue parameter    XMuePBE         ....  0.219520
 Correlation Functional Correlation     .... PBE
   PBE beta parameter  CBetaPBE         ....  0.066725
 LDA part of GGA corr.  LDAOpt          .... PW91-LDA
 Gradients option       PostSCFGGA      .... off
   Density functional embedding theory  .... OFF
   NL short-range parameter             ....  6.400000
 RI-approximation to the Coulomb term is turned on
   Number of auxiliary basis functions  .... 33


General Settings:
 Integral files         IntName         .... H+H2_H2+H_scan_4_orca
 Hartree-Fock type      HFTyp           .... UHF
 Total Charge           Charge          ....    0
 Multiplicity           Mult            ....    2
 Number of Electrons    NEL             ....    3
 Basis Dimension        Dim             ....   15
 Nuclear Repulsion      ENuc            ....      1.0694375071 Eh

Convergence Acceleration:
 DIIS                   CNVDIIS         .... on
   Start iteration      DIISMaxIt       ....    12
   Startup error        DIISStart       ....  0.200000
   # of expansion vecs  DIISMaxEq       ....     5
   Bias factor          DIISBfac        ....   1.050
   Max. coefficient     DIISMaxC        ....  10.000
 Newton-Raphson         CNVNR           .... off
 SOSCF                  CNVSOSCF        .... off
 Level Shifting         CNVShift        .... on
   Level shift para.    LevelShift      ....    0.2500
   Turn off err/grad.   ShiftErr        ....    0.0010
 Zerner damping         CNVZerner       .... off
 Static damping         CNVDamp         .... on
   Fraction old density DampFac         ....    0.7000
   Max. Damping (<1)    DampMax         ....    0.9800
   Min. Damping (>=0)   DampMin         ....    0.0000
   Turn off err/grad.   DampErr         ....    0.1000
 Fernandez-Rico         CNVRico         .... off

SCF Procedure:
 Maximum # iterations   MaxIter         ....   250
 SCF integral mode      SCFMode         .... Direct
   Integral package                     .... LIBINT
 Reset frequency        DirectResetFreq ....    20
 Integral Threshold     Thresh          ....  2.500e-11 Eh
 Primitive CutOff       TCut            ....  2.500e-12 Eh

Convergence Tolerance:
 Convergence Check Mode ConvCheckMode   .... Total+1el-Energy
 Convergence forced     ConvForced      .... 0
 Energy Change          TolE            ....  1.000e-08 Eh
 1-El. energy change                    ....  1.000e-05 Eh
 DIIS Error             TolErr          ....  5.000e-07


Diagonalization of the overlap matrix:
Smallest eigenvalue                        ... 3.610e-02
Time for diagonalization                   ...    0.001 sec
Threshold for overlap eigenvalues          ... 1.000e-08
Number of eigenvalues below threshold      ... 0
Time for construction of square roots      ...    0.001 sec
Total time needed                          ...    0.001 sec

---------------------
INITIAL GUESS: MOREAD
---------------------
Guess MOs are being read from file: H+H2_H2+H_scan_4_orca.gbw
Input Geometry matches current geometry (good)
Input basis set matches current basis set (good)
MOs were renormalized
MOs were reorthogonalized (Cholesky)
                      ------------------
                      INITIAL GUESS DONE (   0.0 sec)
                      ------------------
-------------------
DFT GRID GENERATION
-------------------

General Integration Accuracy     IntAcc      ...  4.340
Radial Grid Type                 RadialGrid  ... Gauss-Chebyshev
Angular Grid (max. acc.)         AngularGrid ... Lebedev-110
Angular grid pruning method      GridPruning ... 3 (G Style)
Weight generation scheme         WeightScheme... Becke
Basis function cutoff            BFCut       ...    1.0000e-11
Integration weight cutoff        WCut        ...    1.0000e-14
Grids for H and He will be reduced by one unit

# of grid points (after initial pruning)     ...   2382 (   0.0 sec)
# of grid points (after weights+screening)   ...   2346 (   0.0 sec)
nearest neighbour list constructed           ...    0.0 sec
Grid point re-assignment to atoms done       ...    0.0 sec
Grid point division into batches done        ...    0.0 sec
Reduced shell lists constructed in    0.0 sec

Total number of grid points                  ...     2346
Total number of batches                      ...       38
Average number of points per batch           ...       61
Average number of grid points per atom       ...      782
Average number of shells per batch           ...     8.15 (90.56%)
Average number of basis functions per batch  ...    13.15 (87.67%)
Average number of large shells per batch     ...     7.10 (87.12%)
Average number of large basis fcns per batch ...    11.00 (83.65%)
Maximum spatial batch extension              ...  17.62, 21.59, 14.26 au
Average spatial batch extension              ...   3.66,  4.44,  2.72 au

Time for grid setup =    0.010 sec

--------------
SCF ITERATIONS
--------------
ITER       Energy         Delta-E        Max-DP      RMS-DP      [F,P]     Damp
               ***  Starting incremental Fock matrix formation  ***
  0     -1.6559924415   0.000000000000 0.00000814  0.00000090  0.0000332 0.7000
                 **** Energy Check signals convergence ****

               *****************************************************
               *                     SUCCESS                       *
               *           SCF CONVERGED AFTER   1 CYCLES          *
               *****************************************************

Setting up the final grid:

General Integration Accuracy     IntAcc      ...  4.670
Radial Grid Type                 RadialGrid  ... Gauss-Chebyshev
Angular Grid (max. acc.)         AngularGrid ... Lebedev-302
Angular grid pruning method      GridPruning ... 3 (G Style)
Weight generation scheme         WeightScheme... Becke
Basis function cutoff            BFCut       ...    1.0000e-11
Integration weight cutoff        WCut        ...    1.0000e-14
Grids for H and He will be reduced by one unit

# of grid points (after initial pruning)     ...  10182 (   0.0 sec)
# of grid points (after weights+screening)   ...  10112 (   0.0 sec)
nearest neighbour list constructed           ...    0.0 sec
Grid point re-assignment to atoms done       ...    0.0 sec
Grid point division into batches done        ...    0.0 sec
Reduced shell lists constructed in    0.0 sec

Total number of grid points                  ...    10112
Total number of batches                      ...      159
Average number of points per batch           ...       63
Average number of grid points per atom       ...     3371
Average number of shells per batch           ...     7.57 (84.09%)
Average number of basis functions per batch  ...    11.57 (77.12%)
Average number of large shells per batch     ...     6.00 (79.28%)
Average number of large basis fcns per batch ...     8.64 (74.71%)
Maximum spatial batch extension              ...  17.51, 17.51, 11.25 au
Average spatial batch extension              ...   2.19,  2.18,  1.56 au

Final grid set up in    0.0 sec
Final integration                            ... done (   0.0 sec)
Change in XC energy                          ...    -0.000148025
Integrated number of electrons               ...     2.999991628
Previous integrated no of electrons          ...     2.999049606

----------------
TOTAL SCF ENERGY
----------------

Total Energy       :           -1.65614047 Eh             -45.06587 eV

Components:
Nuclear Repulsion  :            1.06943751 Eh              29.10087 eV
Electronic Energy  :           -2.72557797 Eh             -74.16675 eV
One Electron Energy:           -3.68124298 Eh            -100.17171 eV
Two Electron Energy:            0.95566500 Eh              26.00497 eV

Virial components:
Potential Energy   :           -3.28664108 Eh             -89.43405 eV
Kinetic Energy     :            1.63050061 Eh              44.36818 eV
Virial Ratio       :            2.01572514


DFT components:
N(Alpha)           :        1.999992307699 electrons
N(Beta)            :        0.999999320258 electrons
N(Total)           :        2.999991627957 electrons
E(X)               :       -0.962100635212 Eh       
E(C)               :       -0.051431480467 Eh       
E(XC)              :       -1.013532115679 Eh       
DFET-embed. en.    :        0.000000000000 Eh       

---------------
SCF CONVERGENCE
---------------

  Last Energy change         ...   -7.4956e-10  Tolerance :   1.0000e-08
  Last MAX-Density change    ...    2.7637e-06  Tolerance :   1.0000e-07
  Last RMS-Density change    ...    3.3347e-07  Tolerance :   5.0000e-09
  Last DIIS Error            ...    2.7678e-05  Tolerance :   5.0000e-07

             **** THE GBW FILE WAS UPDATED (H+H2_H2+H_scan_4_orca.gbw) ****
             **** DENSITY FILE WAS UPDATED (H+H2_H2+H_scan_4_orca.scfp) ****
             **** ENERGY FILE WAS UPDATED (H+H2_H2+H_scan_4_orca.en.tmp) ****
----------------------
UHF SPIN CONTAMINATION
----------------------

Warning: in a DFT calculation there is little theoretical justification to 
         calculate <S**2> as in Hartree-Fock theory. We will do it anyways
         but you should keep in mind that the values have only limited relevance

Expectation value of <S**2>     :     0.750001
Ideal value S*(S+1) for S=0.5   :     0.750000
Deviation                       :     0.000001

             **** THE GBW FILE WAS UPDATED (H+H2_H2+H_scan_4_orca.gbw) ****
             **** DENSITY FILE WAS UPDATED (H+H2_H2+H_scan_4_orca.scfp) ****
----------------
ORBITAL ENERGIES
----------------
                 SPIN UP ORBITALS
  NO   OCC          E(Eh)            E(eV) 
   0   1.0000      -0.383791       -10.4435 
   1   1.0000      -0.276458        -7.5228 
   2   0.0000       0.067898         1.8476 
   3   0.0000       0.289712         7.8835 
   4   0.0000       0.414368        11.2755 
   5   0.0000       0.729787        19.8585 
   6   0.0000       1.111234        30.2382 
   7   0.0000       1.111234        30.2382 
   8   0.0000       1.284671        34.9577 
   9   0.0000       1.284671        34.9577 
  10   0.0000       1.292422        35.1686 
  11   0.0000       1.794785        48.8386 
  12   0.0000       1.914066        52.0844 
  13   0.0000       1.914066        52.0844 
  14   0.0000       3.636781        98.9619 

                 SPIN DOWN ORBITALS
  NO   OCC          E(Eh)            E(eV) 
   0   1.0000      -0.383494       -10.4354 
   1   0.0000       0.055837         1.5194 
   2   0.0000       0.164018         4.4632 
   3   0.0000       0.313765         8.5380 
   4   0.0000       0.728009        19.8101 
   5   0.0000       1.056455        28.7476 
   6   0.0000       1.111347        30.2413 
   7   0.0000       1.111347        30.2413 
   8   0.0000       1.794251        48.8240 
   9   0.0000       1.914233        52.0889 
  10   0.0000       1.914233        52.0889 
  11   0.0000       1.964543        53.4579 
  12   0.0000       1.964543        53.4579 
  13   0.0000       1.998865        54.3919 
  14   0.0000       3.637181        98.9727 

                    ********************************
                    * MULLIKEN POPULATION ANALYSIS *
                    ********************************

--------------------------------------------
MULLIKEN ATOMIC CHARGES AND SPIN POPULATIONS
--------------------------------------------
   0 H :    0.002563    0.997021
   1 H :   -0.002061    0.001957
   2 H :   -0.000502    0.001022
Sum of atomic charges         :    0.0000000
Sum of atomic spin populations:    1.0000000

-----------------------------------------------------
MULLIKEN REDUCED ORBITAL CHARGES AND SPIN POPULATIONS
-----------------------------------------------------
CHARGE
  0 H s       :     0.997428  s :     0.997428
      pz      :     0.000010  p :     0.000010
      px      :     0.000000
      py      :     0.000000
  1 H s       :     0.992299  s :     0.992299
      pz      :     0.009762  p :     0.009762
      px      :     0.000000
      py      :     0.000000
  2 H s       :     0.990645  s :     0.990645
      pz      :     0.009857  p :     0.009857
      px      :     0.000000
      py      :     0.000000

SPIN
  0 H s       :     0.997014  s :     0.997014
      pz      :     0.000006  p :     0.000006
      px      :     0.000000
      py      :     0.000000
  1 H s       :     0.001927  s :     0.001927
      pz      :     0.000031  p :     0.000031
      px      :    -0.000000
      py      :    -0.000000
  2 H s       :     0.001012  s :     0.001012
      pz      :     0.000009  p :     0.000009
      px      :     0.000000
      py      :     0.000000


                     *******************************
                     * LOEWDIN POPULATION ANALYSIS *
                     *******************************

-------------------------------------------
LOEWDIN ATOMIC CHARGES AND SPIN POPULATIONS
-------------------------------------------
   0 H :    0.002310    0.997222
   1 H :   -0.001946    0.001683
   2 H :   -0.000364    0.001096

----------------------------------------------------
LOEWDIN REDUCED ORBITAL CHARGES AND SPIN POPULATIONS
----------------------------------------------------
CHARGE
  0 H s       :     0.997683  s :     0.997683
      pz      :     0.000007  p :     0.000007
      px      :     0.000000
      py      :     0.000000
  1 H s       :     0.973560  s :     0.973560
      pz      :     0.028385  p :     0.028385
      px      :     0.000000
      py      :     0.000000
  2 H s       :     0.972126  s :     0.972126
      pz      :     0.028238  p :     0.028238
      px      :     0.000000
      py      :     0.000000

SPIN
  0 H s       :     0.997217  s :     0.997217
      pz      :     0.000005  p :     0.000005
      px      :     0.000000
      py      :     0.000000
  1 H s       :     0.001446  s :     0.001446
      pz      :     0.000237  p :     0.000237
      px      :     0.000000
      py      :     0.000000
  2 H s       :     0.001116  s :     0.001116
      pz      :    -0.000020  p :    -0.000020
      px      :    -0.000000
      py      :    -0.000000


                      *****************************
                      * MAYER POPULATION ANALYSIS *
                      *****************************

  NA   - Mulliken gross atomic population
  ZA   - Total nuclear charge
  QA   - Mulliken gross atomic charge
  VA   - Mayer's total valence
  BVA  - Mayer's bonded valence
  FA   - Mayer's free valence

  ATOM       NA         ZA         QA         VA         BVA        FA
  0 H      0.9974     1.0000     0.0026     1.0004     0.0064     0.9941
  1 H      1.0021     1.0000    -0.0021     1.0043     1.0043     0.0000
  2 H      1.0005     1.0000    -0.0005     0.9988     0.9988     0.0000

  Mayer bond orders larger than 0.100000
B(  1-H ,  2-H ) :   0.9984 

-------
TIMINGS
-------

Total SCF time: 0 days 0 hours 0 min 0 sec 

Total time                  ....       0.406 sec
Sum of individual times     ....       0.267 sec  ( 65.7%)

Fock matrix formation       ....       0.215 sec  ( 52.9%)
  Split-RI-J                ....       0.179 sec  ( 83.3% of F)
  XC integration            ....       0.026 sec  ( 12.3% of F)
    Basis function eval.    ....       0.007 sec  ( 24.9% of XC)
    Density eval.           ....       0.005 sec  ( 19.4% of XC)
    XC-Functional eval.     ....       0.009 sec  ( 34.7% of XC)
    XC-Potential eval.      ....       0.002 sec  (  7.8% of XC)
Diagonalization             ....       0.000 sec  (  0.1%)
Density matrix formation    ....       0.000 sec  (  0.0%)
Population analysis         ....       0.002 sec  (  0.5%)
Initial guess               ....       0.002 sec  (  0.4%)
Orbital Transformation      ....       0.000 sec  (  0.0%)
Orbital Orthonormalization  ....       0.000 sec  (  0.1%)
DIIS solution               ....       0.000 sec  (  0.0%)
Grid generation             ....       0.048 sec  ( 11.7%)

-------------------------   --------------------
FINAL SINGLE POINT ENERGY        -1.656140467472
-------------------------   --------------------

                                *** OPTIMIZATION RUN DONE ***

                            ***************************************
                            *     ORCA property calculations      *
                            ***************************************

                                    ---------------------
                                    Active property flags
                                    ---------------------
   (+) Dipole Moment


------------------------------------------------------------------------------
                       ORCA ELECTRIC PROPERTIES CALCULATION
------------------------------------------------------------------------------

Dipole Moment Calculation                       ... on
Quadrupole Moment Calculation                   ... off
Polarizability Calculation                      ... off
GBWName                                         ... H+H2_H2+H_scan_4_orca.gbw
Electron density file                           ... H+H2_H2+H_scan_4_orca.scfp
The origin for moment calculation is the CENTER OF MASS  = ( 0.000000, -0.000000  1.511781)

-------------
DIPOLE MOMENT
-------------
                                X             Y             Z
Electronic contribution:      0.00000      -0.00000      -0.01426
Nuclear contribution   :     -0.00000       0.00000      -0.00000
                        -----------------------------------------
Total Dipole Moment    :      0.00000      -0.00000      -0.01426
                        -----------------------------------------
Magnitude (a.u.)       :      0.01426
Magnitude (Debye)      :      0.03625



--------------------
Rotational spectrum 
--------------------
 
Rotational constants in cm-1:     0.000000     2.088689     2.088689 
Rotational constants in MHz :     0.000000 62617.326228 62617.326228 

 Dipole components along the rotational axes: 
x,y,z [a.u.] :     0.014260    -0.000000     0.000000 
x,y,z [Debye]:     0.036246    -0.000000     0.000000 

 

Timings for individual modules:

Sum of individual times         ...       14.783 sec (=   0.246 min)
GTO integral calculation        ...        4.490 sec (=   0.075 min)  30.4 %
SCF iterations                  ...        6.502 sec (=   0.108 min)  44.0 %
SCF Gradient evaluation         ...        3.611 sec (=   0.060 min)  24.4 %
Geometry relaxation             ...        0.180 sec (=   0.003 min)   1.2 %
                             ****ORCA TERMINATED NORMALLY****
TOTAL RUN TIME: 0 days 0 hours 0 minutes 15 seconds 845 msec
