
                                 *****************
                                 * O   R   C   A *
                                 *****************

           --- An Ab Initio, DFT and Semiempirical electronic structure package ---

                  #######################################################
                  #                        -***-                        #
                  #          Department of theory and spectroscopy      #
                  #               Directorship: Frank Neese             #
                  #        Max Planck Institute fuer Kohlenforschung    #
                  #                Kaiser Wilhelm Platz 1               #
                  #                 D-45470 Muelheim/Ruhr               #
                  #                      Germany                        #
                  #                                                     #
                  #                  All rights reserved                #
                  #                        -***-                        #
                  #######################################################


                         Program Version 4.2.1 -  RELEASE  -


 With contributions from (in alphabetic order):
   Daniel Aravena         : Magnetic Suceptibility
   Michael Atanasov       : Ab Initio Ligand Field Theory (pilot matlab implementation)
   Alexander A. Auer      : GIAO ZORA, VPT2
   Ute Becker             : Parallelization
   Giovanni Bistoni       : ED, misc. LED, open-shell LED, HFLD
   Martin Brehm           : Molecular dynamics
   Dmytro Bykov           : SCF Hessian
   Vijay G. Chilkuri      : MRCI spin determinant printing, contributions to CSF-ICE
   Dipayan Datta          : RHF DLPNO-CCSD density
   Achintya Kumar Dutta   : EOM-CC, STEOM-CC
   Dmitry Ganyushin       : Spin-Orbit,Spin-Spin,Magnetic field MRCI
   Miquel Garcia          : C-PCM Hessian, Gaussian charge scheme
   Yang Guo               : DLPNO-NEVPT2, CIM, IAO-localization
   Andreas Hansen         : Spin unrestricted coupled pair/coupled cluster methods
   Benjamin Helmich-Paris : CASSCF linear response (MC-RPA)
   Lee Huntington         : MR-EOM, pCC
   Robert Izsak           : Overlap fitted RIJCOSX, COSX-SCS-MP3, EOM
   Christian Kollmar      : KDIIS, OOCD, Brueckner-CCSD(T), CCSD density
   Simone Kossmann        : Meta GGA functionals, TD-DFT gradient, OOMP2, MP2 Hessian
   Martin Krupicka        : AUTO-CI
   Lucas Lang             : DCDCAS
   Dagmar Lenk            : GEPOL surface, SMD
   Dimitrios Liakos       : Extrapolation schemes; Compound Job, initial MDCI parallelization
   Dimitrios Manganas     : Further ROCIS development; embedding schemes
   Dimitrios Pantazis     : SARC Basis sets
   Taras Petrenko         : DFT Hessian,TD-DFT gradient, ASA, ECA, R-Raman, ABS, FL, XAS/XES, NRVS
   Peter Pinski           : DLPNO-MP2, DLPNO-MP2 Gradient
   Christoph Reimann      : Effective Core Potentials
   Marius Retegan         : Local ZFS, SOC
   Christoph Riplinger    : Optimizer, TS searches, QM/MM, DLPNO-CCSD(T), (RO)-DLPNO pert. Triples
   Tobias Risthaus        : Range-separated hybrids, TD-DFT gradient, RPA, STAB
   Michael Roemelt        : Original ROCIS implementation
   Masaaki Saitow         : Open-shell DLPNO-CCSD energy and density
   Barbara Sandhoefer     : DKH picture change effects
   Avijit Sen             : IP-ROCIS
   Kantharuban Sivalingam : CASSCF convergence, NEVPT2, FIC-MRCI
   Bernardo de Souza      : ESD, SOC TD-DFT
   Georgi Stoychev        : AutoAux, RI-MP2 NMR
   Willem Van den Heuvel  : Paramagnetic NMR
   Boris Wezisla          : Elementary symmetry handling
   Frank Wennmohs         : Technical directorship


 We gratefully acknowledge several colleagues who have allowed us to
 interface, adapt or use parts of their codes:
   Stefan Grimme, W. Hujo, H. Kruse,             : VdW corrections, initial TS optimization,
                  C. Bannwarth                     DFT functionals, gCP, sTDA/sTD-DF
   Ed Valeev, F. Pavosevic, A. Kumar             : LibInt (2-el integral package), F12 methods
   Garnet Chan, S. Sharma, J. Yang, R. Olivares  : DMRG
   Ulf Ekstrom                                   : XCFun DFT Library
   Mihaly Kallay                                 : mrcc  (arbitrary order and MRCC methods)
   Andreas Klamt, Michael Diedenhofen            : otool_cosmo (COSMO solvation model)
   Jiri Pittner, Ondrej Demel                    : Mk-CCSD
   Frank Weinhold                                : gennbo (NPA and NBO analysis)
   Christopher J. Cramer and Donald G. Truhlar   : smd solvation model
   Lars Goerigk                                  : TD-DFT with DH, B97 family of functionals
   V. Asgeirsson, H. Jonsson                     : NEB implementation
   FAccTs GmbH                                   : IRC, NEB, NEB-TS, Multilevel, MM, QM/MM, CI optimization
   S Lehtola, MJT Oliveira, MAL Marques          : LibXC Library


 Your calculation uses the libint2 library for the computation of 2-el integrals
 For citations please refer to: http://libint.valeyev.net

 Your ORCA version has been built with support for libXC version: 4.2.3
 For citations please refer to: https://tddft.org/programs/libxc/

 This ORCA versions uses:
   CBLAS   interface :  Fast vector & matrix operations
   LAPACKE interface :  Fast linear algebra routines
   SCALAPACK package :  Parallel linear algebra routines


----- Orbital basis set information -----
Your calculation utilizes the basis: def2-SVP
   F. Weigend and R. Ahlrichs, Phys. Chem. Chem. Phys. 7, 3297 (2005).

----- AuxJ basis set information -----
Your calculation utilizes the auxiliary basis: def2/J
   F. Weigend, Phys. Chem. Chem. Phys. 8, 1057 (2006).

================================================================================
                                        WARNINGS
                       Please study these warnings very carefully!
================================================================================


WARNING: your system is open-shell and RHF/RKS was chosen
  ===> : WILL SWITCH to UHF/UKS


WARNING: Geometry Optimization
  ===> : Switching off AutoStart
         For restart on a previous wavefunction, please use MOREAD

INFO   : the flag for use of LIBINT has been found!

================================================================================
                                       INPUT FILE
================================================================================
NAME = H+H2_H2+H_scan_0_orca.inp
|  1> ! PBE def2-SVP Opt
|  2> %geom Constraints
|  3> { B 1 2 1.0 C }
|  4>     end
|  5> end
|  6> %geom MaxIter 100 end
|  7> %pal nprocs 2
|  8> end
|  9> %output 
| 10> xyzfile=True 
| 11> end 
| 12> %scf 
| 13> maxiter 250 
| 14> end
| 15> % maxcore 4000
| 16> *xyz 0 2
| 17> H    0.00000000   0.00000000   0.00000000 
| 18> H    0.00000000   0.00000000   0.70000000 
| 19> H    0.00000000   0.00000000   1.70000000 
| 20> *
| 21> 
| 22>                          ****END OF INPUT****
================================================================================

                       *****************************
                       * Geometry Optimization Run *
                       *****************************

Geometry optimization settings:
Update method            Update   .... BFGS
Choice of coordinates    CoordSys .... Z-matrix Internals
Initial Hessian          InHess   .... Almoef's Model

Convergence Tolerances:
Energy Change            TolE     ....  5.0000e-06 Eh
Max. Gradient            TolMAXG  ....  3.0000e-04 Eh/bohr
RMS Gradient             TolRMSG  ....  1.0000e-04 Eh/bohr
Max. Displacement        TolMAXD  ....  4.0000e-03 bohr
RMS Displacement         TolRMSD  ....  2.0000e-03 bohr
Strict Convergence                ....  False
------------------------------------------------------------------------------
                        ORCA OPTIMIZATION COORDINATE SETUP
------------------------------------------------------------------------------

The optimization will be done in new redundant internal coordinates
Making redundant internal coordinates   ...  (new redundants) done
Evaluating the initial hessian          ...  (Almloef) done
Evaluating the coordinates              ...  done
Calculating the B-matrix                .... done
Calculating the G-matrix                .... done
Diagonalizing the G-matrix              .... done
Imposing constraints:
 Iter   0:  RMS(Cart)=    0.0000000011 RMS(Int)=    0.0000000000
CONVERGED
The first mode is                       ....    0
The number of degrees of freedom        ....    4
Storing new coordinates                 .... done

    -----------------------------------------------------------------
                    Redundant Internal Coordinates


    -----------------------------------------------------------------
         Definition                    Initial Value    Approx d2E/dq
    -----------------------------------------------------------------
      1. B(H   1,H   0)                  0.7000         0.288866   
      2. B(H   2,H   1)                  1.0000         0.095955 C 
      3. L(H   0,H   1,H   2, 1)       180.0000         0.180011   
      4. L(H   0,H   1,H   2, 2)       180.0000         0.180011   
    -----------------------------------------------------------------

Number of atoms                         .... 3
Number of degrees of freedom            .... 4

         *************************************************************
         *                GEOMETRY OPTIMIZATION CYCLE   1            *
         *************************************************************
---------------------------------
CARTESIAN COORDINATES (ANGSTROEM)
---------------------------------
  H      0.000000    0.000000    0.000000
  H      0.000000    0.000000    0.700000
  H      0.000000    0.000000    1.700000

----------------------------
CARTESIAN COORDINATES (A.U.)
----------------------------
  NO LB      ZA    FRAG     MASS         X           Y           Z
   0 H     1.0000    0     1.008    0.000000    0.000000    0.000000
   1 H     1.0000    0     1.008    0.000000    0.000000    1.322808
   2 H     1.0000    0     1.008    0.000000    0.000000    3.212534

--------------------------------
INTERNAL COORDINATES (ANGSTROEM)
--------------------------------
 H      0   0   0     0.000000000000     0.00000000     0.00000000
 H      1   0   0     0.700000000000     0.00000000     0.00000000
 H      2   1   0     1.000000000000   180.00000000     0.00000000

---------------------------
INTERNAL COORDINATES (A.U.)
---------------------------
 H      0   0   0     0.000000000000     0.00000000     0.00000000
 H      1   0   0     1.322808293745     0.00000000     0.00000000
 H      2   1   0     1.889726133921   180.00000000     0.00000000

---------------------
BASIS SET INFORMATION
---------------------
There are 1 groups of distinct atoms

 Group   1 Type H   : 4s1p contracted to 2s1p pattern {31/1}

Atom   0H    basis set group =>   1
Atom   1H    basis set group =>   1
Atom   2H    basis set group =>   1
---------------------------------
AUXILIARY/J BASIS SET INFORMATION
---------------------------------
There are 1 groups of distinct atoms

 Group   1 Type H   : 5s2p1d contracted to 3s1p1d pattern {311/2/1}

Atom   0H    basis set group =>   1
Atom   1H    basis set group =>   1
Atom   2H    basis set group =>   1


           ************************************************************
           *        Program running with 2 parallel MPI-processes     *
           *              working on a common directory               *
           ************************************************************
------------------------------------------------------------------------------
                           ORCA GTO INTEGRAL CALCULATION
                           -- RI-GTO INTEGRALS CHOSEN --
------------------------------------------------------------------------------

                         BASIS SET STATISTICS AND STARTUP INFO

Gaussian basis set:
 # of primitive gaussian shells          ...   15
 # of primitive gaussian functions       ...   21
 # of contracted shells                  ...    9
 # of contracted basis functions         ...   15
 Highest angular momentum                ...    1
 Maximum contraction depth               ...    3
Auxiliary gaussian basis set:
 # of primitive gaussian shells          ...   24
 # of primitive gaussian functions       ...   48
 # of contracted shells                  ...   15
 # of contracted aux-basis functions     ...   33
 Highest angular momentum                ...    2
 Maximum contraction depth               ...    3
Ratio of auxiliary to basis functions    ...  2.20
Integral package used                  ... LIBINT
 One Electron integrals                  ... done
 Ordering auxiliary basis shells         ... done
 Integral threshhold             Thresh  ...  2.500e-11
 Primitive cut-off               TCut    ...  2.500e-12
 Pre-screening matrix                    ... done
 Shell pair data                         ... 
 Ordering of the shell pairs             ... done (   0.000 sec) 45 of 45 pairs
 Determination of significant pairs      ... done (   0.000 sec)
 Creation of shell pair data             ... done (   0.000 sec)
 Storage of shell pair data              ... done (   0.016 sec)
 Shell pair data done in (   0.016 sec)
 Computing two index integrals           ... done
 Cholesky decomposition of the V-matrix  ... done


Timings:
 Total evaluation time                   ...   0.175 sec (  0.003 min)
 One electron matrix time                ...   0.013 sec (  0.000 min) =  7.2%
 Schwartz matrix evaluation time         ...   0.128 sec (  0.002 min) = 73.1%
 Two index repulsion integral time       ...   0.000 sec (  0.000 min) =  0.1%
 Cholesky decomposition of V             ...   0.000 sec (  0.000 min) =  0.2%
 Three index repulsion integral time     ...   0.000 sec (  0.000 min) =  0.0%



           ************************************************************
           *        Program running with 2 parallel MPI-processes     *
           *              working on a common directory               *
           ************************************************************
-------------------------------------------------------------------------------
                                 ORCA SCF
-------------------------------------------------------------------------------

------------
SCF SETTINGS
------------
Hamiltonian:
 Density Functional     Method          .... DFT(GTOs)
 Exchange Functional    Exchange        .... PBE
   PBE kappa parameter   XKappa         ....  0.804000
   PBE mue parameter    XMuePBE         ....  0.219520
 Correlation Functional Correlation     .... PBE
   PBE beta parameter  CBetaPBE         ....  0.066725
 LDA part of GGA corr.  LDAOpt          .... PW91-LDA
 Gradients option       PostSCFGGA      .... off
   Density functional embedding theory  .... OFF
   NL short-range parameter             ....  6.400000
 RI-approximation to the Coulomb term is turned on
   Number of auxiliary basis functions  .... 33


General Settings:
 Integral files         IntName         .... H+H2_H2+H_scan_0_orca
 Hartree-Fock type      HFTyp           .... UHF
 Total Charge           Charge          ....    0
 Multiplicity           Mult            ....    2
 Number of Electrons    NEL             ....    3
 Basis Dimension        Dim             ....   15
 Nuclear Repulsion      ENuc            ....      1.5964253610 Eh

Convergence Acceleration:
 DIIS                   CNVDIIS         .... on
   Start iteration      DIISMaxIt       ....    12
   Startup error        DIISStart       ....  0.200000
   # of expansion vecs  DIISMaxEq       ....     5
   Bias factor          DIISBfac        ....   1.050
   Max. coefficient     DIISMaxC        ....  10.000
 Newton-Raphson         CNVNR           .... off
 SOSCF                  CNVSOSCF        .... off
 Level Shifting         CNVShift        .... on
   Level shift para.    LevelShift      ....    0.2500
   Turn off err/grad.   ShiftErr        ....    0.0010
 Zerner damping         CNVZerner       .... off
 Static damping         CNVDamp         .... on
   Fraction old density DampFac         ....    0.7000
   Max. Damping (<1)    DampMax         ....    0.9800
   Min. Damping (>=0)   DampMin         ....    0.0000
   Turn off err/grad.   DampErr         ....    0.1000
 Fernandez-Rico         CNVRico         .... off

SCF Procedure:
 Maximum # iterations   MaxIter         ....   250
 SCF integral mode      SCFMode         .... Direct
   Integral package                     .... LIBINT
 Reset frequency        DirectResetFreq ....    20
 Integral Threshold     Thresh          ....  2.500e-11 Eh
 Primitive CutOff       TCut            ....  2.500e-12 Eh

Convergence Tolerance:
 Convergence Check Mode ConvCheckMode   .... Total+1el-Energy
 Convergence forced     ConvForced      .... 0
 Energy Change          TolE            ....  1.000e-08 Eh
 1-El. energy change                    ....  1.000e-05 Eh
 DIIS Error             TolErr          ....  5.000e-07


Diagonalization of the overlap matrix:
Smallest eigenvalue                        ... 1.821e-02
Time for diagonalization                   ...    0.025 sec
Threshold for overlap eigenvalues          ... 1.000e-08
Number of eigenvalues below threshold      ... 0
Time for construction of square roots      ...    0.122 sec
Total time needed                          ...    0.147 sec

-------------------
DFT GRID GENERATION
-------------------

General Integration Accuracy     IntAcc      ...  4.340
Radial Grid Type                 RadialGrid  ... Gauss-Chebyshev
Angular Grid (max. acc.)         AngularGrid ... Lebedev-110
Angular grid pruning method      GridPruning ... 3 (G Style)
Weight generation scheme         WeightScheme... Becke
Basis function cutoff            BFCut       ...    1.0000e-11
Integration weight cutoff        WCut        ...    1.0000e-14
Grids for H and He will be reduced by one unit

# of grid points (after initial pruning)     ...   2382 (   0.0 sec)
# of grid points (after weights+screening)   ...   2334 (   0.0 sec)
nearest neighbour list constructed           ...    0.0 sec
Grid point re-assignment to atoms done       ...    0.0 sec
Grid point division into batches done        ...    0.0 sec
Reduced shell lists constructed in    0.0 sec

Total number of grid points                  ...     2334
Total number of batches                      ...       39
Average number of points per batch           ...       59
Average number of grid points per atom       ...      778
Average number of shells per batch           ...     8.57 (95.24%)
Average number of basis functions per batch  ...    14.29 (95.24%)
Average number of large shells per batch     ...     8.52 (99.44%)
Average number of large basis fcns per batch ...    14.14 (99.00%)
Maximum spatial batch extension              ...  17.62, 21.59, 13.98 au
Average spatial batch extension              ...   2.88,  3.80,  2.10 au

Time for grid setup =    0.013 sec

------------------------------
INITIAL GUESS: MODEL POTENTIAL
------------------------------
Loading Hartree-Fock densities                     ... done
Calculating cut-offs                               ... done
Setting up the integral package                    ... done
Initializing the effective Hamiltonian             ... done
Starting the Coulomb interaction                   ... done (   0.0 sec)
Reading the grid                                   ... done
Mapping shells                                     ... done
Starting the XC term evaluation                    ... done (   0.0 sec)
  promolecular density results
     # of electrons  =      2.996703914
     EX              =     -0.850808282
     EC              =     -0.066985183
     EX+EC           =     -0.917793466
Transforming the Hamiltonian                       ... done (   0.0 sec)
Diagonalizing the Hamiltonian                      ... done (   0.0 sec)
Back transforming the eigenvectors                 ... done (   0.0 sec)
Now organizing SCF variables                       ... done
                      ------------------
                      INITIAL GUESS DONE (   0.2 sec)
                      ------------------
--------------
SCF ITERATIONS
--------------
ITER       Energy         Delta-E        Max-DP      RMS-DP      [F,P]     Damp
               ***  Starting incremental Fock matrix formation  ***
  0     -1.6332355816   0.000000000000 0.01097587  0.00143646  0.0478377 0.7000
  1     -1.6349292604  -0.001693678807 0.01198676  0.00143827  0.0328093 0.7000
                               ***Turning on DIIS***
  2     -1.6360403876  -0.001111127145 0.03090442  0.00360240  0.0203253 0.0000
  3     -1.6382049996  -0.002164611990 0.00499930  0.00055791  0.0097333 0.0000
  4     -1.6383665720  -0.000161572460 0.00287618  0.00026302  0.0028249 0.0000
  5     -1.6383886952  -0.000022123196 0.00102812  0.00011577  0.0010002 0.0000
  6     -1.6383924025  -0.000003707273 0.00051360  0.00006397  0.0003460 0.0000
  7     -1.6383929614  -0.000000558918 0.00009782  0.00001112  0.0000255 0.0000
  8     -1.6383929715  -0.000000010063 0.00001538  0.00000158  0.0000098 0.0000
                 **** Energy Check signals convergence ****

               *****************************************************
               *                     SUCCESS                       *
               *           SCF CONVERGED AFTER   9 CYCLES          *
               *****************************************************

Setting up the final grid:

General Integration Accuracy     IntAcc      ...  4.670
Radial Grid Type                 RadialGrid  ... Gauss-Chebyshev
Angular Grid (max. acc.)         AngularGrid ... Lebedev-302
Angular grid pruning method      GridPruning ... 3 (G Style)
Weight generation scheme         WeightScheme... Becke
Basis function cutoff            BFCut       ...    1.0000e-11
Integration weight cutoff        WCut        ...    1.0000e-14
Grids for H and He will be reduced by one unit

# of grid points (after initial pruning)     ...  10182 (   0.0 sec)
# of grid points (after weights+screening)   ...  10054 (   0.0 sec)
nearest neighbour list constructed           ...    0.0 sec
Grid point re-assignment to atoms done       ...    0.0 sec
Grid point division into batches done        ...    0.0 sec
Reduced shell lists constructed in    0.0 sec

Total number of grid points                  ...    10054
Total number of batches                      ...      158
Average number of points per batch           ...       63
Average number of grid points per atom       ...     3351
Average number of shells per batch           ...     8.24 (91.53%)
Average number of basis functions per batch  ...    13.44 (89.58%)
Average number of large shells per batch     ...     8.05 (97.72%)
Average number of large basis fcns per batch ...    13.10 (97.49%)
Maximum spatial batch extension              ...  15.43, 15.43, 13.96 au
Average spatial batch extension              ...   1.99,  1.96,  1.33 au

Final grid set up in    0.0 sec
Final integration                            ... done (   0.0 sec)
Change in XC energy                          ...    -0.000435952
Integrated number of electrons               ...     3.000001161
Previous integrated no of electrons          ...     2.996851889

----------------
TOTAL SCF ENERGY
----------------

Total Energy       :           -1.63882892 Eh             -44.59480 eV

Components:
Nuclear Repulsion  :            1.59642536 Eh              43.44094 eV
Electronic Energy  :           -3.23525429 Eh             -88.03574 eV
One Electron Energy:           -4.60015495 Eh            -125.17658 eV
Two Electron Energy:            1.36490066 Eh              37.14084 eV

Virial components:
Potential Energy   :           -3.36146517 Eh             -91.47012 eV
Kinetic Energy     :            1.72263624 Eh              46.87532 eV
Virial Ratio       :            1.95134938


DFT components:
N(Alpha)           :        2.000001208948 electrons
N(Beta)            :        0.999999951675 electrons
N(Total)           :        3.000001160623 electrons
E(X)               :       -0.978319614601 Eh       
E(C)               :       -0.063651706773 Eh       
E(XC)              :       -1.041971321374 Eh       
DFET-embed. en.    :        0.000000000000 Eh       

---------------
SCF CONVERGENCE
---------------

  Last Energy change         ...   -7.6241e-10  Tolerance :   1.0000e-08
  Last MAX-Density change    ...    5.7569e-06  Tolerance :   1.0000e-07
  Last RMS-Density change    ...    7.4058e-07  Tolerance :   5.0000e-09
  Last DIIS Error            ...    1.5693e-06  Tolerance :   5.0000e-07

             **** THE GBW FILE WAS UPDATED (H+H2_H2+H_scan_0_orca.gbw) ****
             **** DENSITY FILE WAS UPDATED (H+H2_H2+H_scan_0_orca.scfp) ****
             **** ENERGY FILE WAS UPDATED (H+H2_H2+H_scan_0_orca.en.tmp) ****
----------------------
UHF SPIN CONTAMINATION
----------------------

Warning: in a DFT calculation there is little theoretical justification to 
         calculate <S**2> as in Hartree-Fock theory. We will do it anyways
         but you should keep in mind that the values have only limited relevance

Expectation value of <S**2>     :     0.753564
Ideal value S*(S+1) for S=0.5   :     0.750000
Deviation                       :     0.003564

             **** THE GBW FILE WAS UPDATED (H+H2_H2+H_scan_0_orca.gbw) ****
             **** DENSITY FILE WAS UPDATED (H+H2_H2+H_scan_0_orca.scfp) ****
----------------
ORBITAL ENERGIES
----------------
                 SPIN UP ORBITALS
  NO   OCC          E(Eh)            E(eV) 
   0   1.0000      -0.479286       -13.0420 
   1   1.0000      -0.206311        -5.6140 
   2   0.0000       0.109337         2.9752 
   3   0.0000       0.363937         9.9032 
   4   0.0000       0.397562        10.8182 
   5   0.0000       0.739710        20.1285 
   6   0.0000       0.989025        26.9127 
   7   0.0000       0.989025        26.9127 
   8   0.0000       1.325406        36.0661 
   9   0.0000       1.325406        36.0661 
  10   0.0000       1.569518        42.7087 
  11   0.0000       2.063372        56.1472 
  12   0.0000       2.063372        56.1472 
  13   0.0000       2.601798        70.7985 
  14   0.0000       4.131354       112.4199 

                 SPIN DOWN ORBITALS
  NO   OCC          E(Eh)            E(eV) 
   0   1.0000      -0.440858       -11.9964 
   1   0.0000      -0.101145        -2.7523 
   2   0.0000       0.152278         4.1437 
   3   0.0000       0.392662        10.6849 
   4   0.0000       0.481106        13.0916 
   5   0.0000       0.800890        21.7933 
   6   0.0000       1.027277        27.9536 
   7   0.0000       1.027277        27.9536 
   8   0.0000       1.435332        39.0574 
   9   0.0000       1.435332        39.0574 
  10   0.0000       1.667111        45.3644 
  11   0.0000       2.112851        57.4936 
  12   0.0000       2.112851        57.4936 
  13   0.0000       2.684579        73.0511 
  14   0.0000       4.182757       113.8186 

                    ********************************
                    * MULLIKEN POPULATION ANALYSIS *
                    ********************************

--------------------------------------------
MULLIKEN ATOMIC CHARGES AND SPIN POPULATIONS
--------------------------------------------
   0 H :    0.010673    0.333327
   1 H :    0.023603   -0.104204
   2 H :   -0.034276    0.770876
Sum of atomic charges         :   -0.0000000
Sum of atomic spin populations:    1.0000000

-----------------------------------------------------
MULLIKEN REDUCED ORBITAL CHARGES AND SPIN POPULATIONS
-----------------------------------------------------
CHARGE
  0 H s       :     0.975901  s :     0.975901
      pz      :     0.013427  p :     0.013427
      px      :     0.000000
      py      :     0.000000
  1 H s       :     0.955656  s :     0.955656
      pz      :     0.020741  p :     0.020741
      px      :    -0.000000
      py      :    -0.000000
  2 H s       :     1.025098  s :     1.025098
      pz      :     0.009177  p :     0.009177
      px      :    -0.000000
      py      :     0.000000

SPIN
  0 H s       :     0.335966  s :     0.335966
      pz      :    -0.002639  p :    -0.002639
      px      :     0.000000
      py      :     0.000000
  1 H s       :    -0.124577  s :    -0.124577
      pz      :     0.020373  p :     0.020373
      px      :    -0.000000
      py      :    -0.000000
  2 H s       :     0.770547  s :     0.770547
      pz      :     0.000329  p :     0.000329
      px      :    -0.000000
      py      :     0.000000


                     *******************************
                     * LOEWDIN POPULATION ANALYSIS *
                     *******************************

-------------------------------------------
LOEWDIN ATOMIC CHARGES AND SPIN POPULATIONS
-------------------------------------------
   0 H :    0.014225    0.256900
   1 H :   -0.003050    0.074365
   2 H :   -0.011175    0.668735

----------------------------------------------------
LOEWDIN REDUCED ORBITAL CHARGES AND SPIN POPULATIONS
----------------------------------------------------
CHARGE
  0 H s       :     0.945032  s :     0.945032
      pz      :     0.040743  p :     0.040743
      px      :     0.000000
      py      :     0.000000
  1 H s       :     0.889926  s :     0.889926
      pz      :     0.113124  p :     0.113124
      px      :     0.000000
      py      :     0.000000
  2 H s       :     0.974367  s :     0.974367
      pz      :     0.036809  p :     0.036809
      px      :     0.000000
      py      :     0.000000

SPIN
  0 H s       :     0.258409  s :     0.258409
      pz      :    -0.001509  p :    -0.001509
      px      :     0.000000
      py      :     0.000000
  1 H s       :    -0.033206  s :    -0.033206
      pz      :     0.107571  p :     0.107571
      px      :     0.000000
      py      :     0.000000
  2 H s       :     0.663011  s :     0.663011
      pz      :     0.005724  p :     0.005724
      px      :     0.000000
      py      :     0.000000


                      *****************************
                      * MAYER POPULATION ANALYSIS *
                      *****************************

  NA   - Mulliken gross atomic population
  ZA   - Total nuclear charge
  QA   - Mulliken gross atomic charge
  VA   - Mayer's total valence
  BVA  - Mayer's bonded valence
  FA   - Mayer's free valence

  ATOM       NA         ZA         QA         VA         BVA        FA
  0 H      0.9893     1.0000     0.0107     0.9431     0.8320     0.1111
  1 H      0.9764     1.0000     0.0236     1.0295     1.0134     0.0162
  2 H      1.0343     1.0000    -0.0343     0.9488     0.3479     0.6009

  Mayer bond orders larger than 0.100000
B(  0-H ,  1-H ) :   0.7487 B(  1-H ,  2-H ) :   0.2647 

-------
TIMINGS
-------

Total SCF time: 0 days 0 hours 0 min 1 sec 

Total time                  ....       1.276 sec
Sum of individual times     ....       1.043 sec  ( 81.7%)

Fock matrix formation       ....       0.833 sec  ( 65.3%)
  Split-RI-J                ....       0.738 sec  ( 88.6% of F)
  XC integration            ....       0.070 sec  (  8.4% of F)
    Basis function eval.    ....       0.018 sec  ( 25.2% of XC)
    Density eval.           ....       0.014 sec  ( 20.6% of XC)
    XC-Functional eval.     ....       0.023 sec  ( 32.5% of XC)
    XC-Potential eval.      ....       0.007 sec  ( 10.5% of XC)
Diagonalization             ....       0.002 sec  (  0.1%)
Density matrix formation    ....       0.000 sec  (  0.0%)
Population analysis         ....       0.002 sec  (  0.2%)
Initial guess               ....       0.154 sec  ( 12.1%)
Orbital Transformation      ....       0.000 sec  (  0.0%)
Orbital Orthonormalization  ....       0.000 sec  (  0.0%)
DIIS solution               ....       0.002 sec  (  0.2%)
Grid generation             ....       0.050 sec  (  4.0%)

-------------------------   --------------------
FINAL SINGLE POINT ENERGY        -1.638828924069
-------------------------   --------------------



           ************************************************************
           *        Program running with 2 parallel MPI-processes     *
           *              working on a common directory               *
           ************************************************************
------------------------------------------------------------------------------
                         ORCA SCF GRADIENT CALCULATION
------------------------------------------------------------------------------

Gradient of the Kohn-Sham DFT energy:
Kohn-Sham wavefunction type      ... UKS
Hartree-Fock exchange scaling    ...    0.000
Number of operators              ...    2
Number of atoms                  ...    3
Basis set dimensions             ...   15
Integral neglect threshold       ... 2.5e-11
Integral primitive cutoff        ... 2.5e-12

Nuclear repulsion gradient       ... done
One Electron Gradient            ... done
Pre-screening matrix             ... done
RI-J gradient                    ... done
Exchange-correlation gradient    ... done

------------------
CARTESIAN GRADIENT
------------------

   1   H   :   -0.000000000   -0.000000000    0.106467041
   2   H   :    0.000000000    0.000000000   -0.076933260
   3   H   :    0.000000000   -0.000000000   -0.029533782

Difference to translation invariance:
           :   -0.0000000000    0.0000000000   -0.0000000000

Norm of the cartesian gradient     ...    0.1346335828
RMS gradient                       ...    0.0448778609
MAX gradient                       ...    0.1064670414

-------
TIMINGS
-------

Total SCF gradient time            ...        0.267 sec

One electron gradient       ....       0.000 sec  (  0.1%)
Prescreening matrices       ....       0.000 sec  (  0.1%)
RI-J Coulomb gradient       ....       0.064 sec  ( 23.9%)
XC gradient                 ....       0.051 sec  ( 19.2%)
------------------------------------------------------------------------------
                         ORCA GEOMETRY RELAXATION STEP
------------------------------------------------------------------------------

Reading the OPT-File                    .... done
Getting information on internals        .... done
Copying old internal coords+grads       .... done
Making the new internal coordinates     .... (new redundants).... done
Validating the new internal coordinates .... (new redundants).... done
Calculating the B-matrix                .... done
Calculating the G,G- and P matrices     .... done
Transforming gradient to internals      .... done
Projecting the internal gradient        .... done
Number of atoms                         ....   3
Number of internal coordinates          ....   4
Current Energy                          ....    -1.638828924 Eh
Current gradient norm                   ....     0.134633583 Eh/bohr
Maximum allowed component of the step   ....  0.300
Current trust radius                    ....  0.300
Evaluating the initial hessian          ....  (Almloef) done
Projecting the Hessian                  .... done
Forming the augmented Hessian           .... done
Diagonalizing the augmented Hessian     .... done
Last element of RFO vector              ....  0.949984855
Lowest eigenvalues of augmented Hessian:
 -0.034999746  0.180011022  0.180011022  0.323866093
Length of the computed step             ....  0.328737845
Warning: the length of the step is outside the trust region - taking restricted step instead
The input lambda is                     ....    -0.035000
   iter:   1  x=   -0.062074  g=    0.667366 f(x)=     0.018069
   iter:   2  x=   -0.065958  g=    0.524517 f(x)=     0.002037
   iter:   3  x=   -0.066024  g=    0.507481 f(x)=     0.000033
   iter:   4  x=   -0.066024  g=    0.507199 f(x)=     0.000000
   iter:   5  x=   -0.066024  g=    0.507199 f(x)=     0.000000
The output lambda is                    ....    -0.066024 (5 iterations)
The final length of the internal step   ....  0.300000000
Converting the step to cartesian space:
 Initial RMS(Int)=    0.1500000000
Transforming coordinates:
 Iter   0:  RMS(Cart)=    0.0544331054 RMS(Int)=    0.1000000000
 Iter   1:  RMS(Cart)=    0.0272165527 RMS(Int)=    0.0500000000
 Iter   2:  RMS(Cart)=    0.0000000000 RMS(Int)=    0.0000000000
Imposing constraints:
 Iter   0:  RMS(Cart)=    0.0000000000 RMS(Int)=    0.0000000000
CONVERGED
done
Storing new coordinates                 .... done

                                .--------------------.
          ----------------------|Geometry convergence|-------------------------
          Item                value                   Tolerance       Converged
          ---------------------------------------------------------------------
          RMS gradient        0.0532335207            0.0001000000      NO
          MAX gradient        0.1064670414            0.0003000000      NO
          RMS step            0.1500000000            0.0020000000      NO
          MAX step            0.3000000000            0.0040000000      NO
          ........................................................
          Max(Bonds)      0.1588      Max(Angles)    0.00
          Max(Dihed)        0.00      Max(Improp)    0.00
          ---------------------------------------------------------------------

The optimization has not yet converged - more geometry cycles are needed


    ---------------------------------------------------------------------------
                         Redundant Internal Coordinates
                            (Angstroem and degrees)

        Definition                    Value    dE/dq     Step     New-Value
    ----------------------------------------------------------------------------
     1. B(H   1,H   0)                0.7000 -0.106467  0.1588    0.8588   
     2. B(H   2,H   1)                1.0000 -0.029534  0.0000    1.0000 C 
     3. L(H   0,H   1,H   2, 1)       180.00 -0.000000    0.00    180.00   
     4. L(H   0,H   1,H   2, 2)       180.00  0.000000   -0.00    180.00   
    ----------------------------------------------------------------------------

         *************************************************************
         *                GEOMETRY OPTIMIZATION CYCLE   2            *
         *************************************************************
---------------------------------
CARTESIAN COORDINATES (ANGSTROEM)
---------------------------------
  H      0.000000    0.000000   -0.105835
  H     -0.000000   -0.000000    0.752918
  H      0.000000    0.000000    1.752918

----------------------------
CARTESIAN COORDINATES (A.U.)
----------------------------
  NO LB      ZA    FRAG     MASS         X           Y           Z
   0 H     1.0000    0     1.008    0.000000    0.000000   -0.200000
   1 H     1.0000    0     1.008   -0.000000   -0.000000    1.422808
   2 H     1.0000    0     1.008    0.000000    0.000000    3.312534

--------------------------------
INTERNAL COORDINATES (ANGSTROEM)
--------------------------------
 H      0   0   0     0.000000000000     0.00000000     0.00000000
 H      1   0   0     0.858753162490     0.00000000     0.00000000
 H      2   1   0     0.999999997925   180.00000000     0.00000000

---------------------------
INTERNAL COORDINATES (A.U.)
---------------------------
 H      0   0   0     0.000000000000     0.00000000     0.00000000
 H      1   0   0     1.622808293745     0.00000000     0.00000000
 H      2   1   0     1.889726130000   180.00000000     0.00000000



           ************************************************************
           *        Program running with 2 parallel MPI-processes     *
           *              working on a common directory               *
           ************************************************************
 One Electron integrals                  ... done
 Pre-screening matrix                    ... done


           ************************************************************
           *        Program running with 2 parallel MPI-processes     *
           *              working on a common directory               *
           ************************************************************

Diagonalization of the overlap matrix:
Smallest eigenvalue                        ... 2.696e-02
Time for diagonalization                   ...    0.001 sec
Threshold for overlap eigenvalues          ... 1.000e-08
Number of eigenvalues below threshold      ... 0
Time for construction of square roots      ...    0.000 sec
Total time needed                          ...    0.001 sec

-------------------
DFT GRID GENERATION
-------------------

General Integration Accuracy     IntAcc      ...  4.340
Radial Grid Type                 RadialGrid  ... Gauss-Chebyshev
Angular Grid (max. acc.)         AngularGrid ... Lebedev-110
Angular grid pruning method      GridPruning ... 3 (G Style)
Weight generation scheme         WeightScheme... Becke
Basis function cutoff            BFCut       ...    1.0000e-11
Integration weight cutoff        WCut        ...    1.0000e-14
Grids for H and He will be reduced by one unit

# of grid points (after initial pruning)     ...   2382 (   0.0 sec)
# of grid points (after weights+screening)   ...   2336 (   0.0 sec)
nearest neighbour list constructed           ...    0.0 sec
Grid point re-assignment to atoms done       ...    0.0 sec
Grid point division into batches done        ...    0.0 sec
Reduced shell lists constructed in    0.0 sec

Total number of grid points                  ...     2336
Total number of batches                      ...       39
Average number of points per batch           ...       59
Average number of grid points per atom       ...      779
Average number of shells per batch           ...     8.57 (95.24%)
Average number of basis functions per batch  ...    14.29 (95.24%)
Average number of large shells per batch     ...     8.52 (99.44%)
Average number of large basis fcns per batch ...    14.14 (99.00%)
Maximum spatial batch extension              ...  17.62, 21.59, 14.04 au
Average spatial batch extension              ...   2.96,  3.68,  2.12 au

Time for grid setup =    0.009 sec

--------------
SCF ITERATIONS
--------------
ITER       Energy         Delta-E        Max-DP      RMS-DP      [F,P]     Damp
               ***  Starting incremental Fock matrix formation  ***
  0     -1.6495853576   0.000000000000 0.00810260  0.00093411  0.0399991 0.7000
  1     -1.6507587128  -0.001173355190 0.00775113  0.00088971  0.0298969 0.7000
                               ***Turning on DIIS***
  2     -1.6516365743  -0.000877861476 0.02215865  0.00252207  0.0204952 0.0000
  3     -1.6536255839  -0.001989009566 0.00774357  0.00085737  0.0059179 0.0000
  4     -1.6537262190  -0.000100635092 0.00394846  0.00040321  0.0019037 0.0000
  5     -1.6537458284  -0.000019609393 0.00422273  0.00049015  0.0009308 0.0000
  6     -1.6537531502  -0.000007321889 0.00029655  0.00003619  0.0001527 0.0000
  7     -1.6537532562  -0.000000105936 0.00002430  0.00000322  0.0000344 0.0000
                 **** Energy Check signals convergence ****

               *****************************************************
               *                     SUCCESS                       *
               *           SCF CONVERGED AFTER   8 CYCLES          *
               *****************************************************

Setting up the final grid:

General Integration Accuracy     IntAcc      ...  4.670
Radial Grid Type                 RadialGrid  ... Gauss-Chebyshev
Angular Grid (max. acc.)         AngularGrid ... Lebedev-302
Angular grid pruning method      GridPruning ... 3 (G Style)
Weight generation scheme         WeightScheme... Becke
Basis function cutoff            BFCut       ...    1.0000e-11
Integration weight cutoff        WCut        ...    1.0000e-14
Grids for H and He will be reduced by one unit

# of grid points (after initial pruning)     ...  10182 (   0.0 sec)
# of grid points (after weights+screening)   ...  10064 (   0.0 sec)
nearest neighbour list constructed           ...    0.0 sec
Grid point re-assignment to atoms done       ...    0.0 sec
Grid point division into batches done        ...    0.0 sec
Reduced shell lists constructed in    0.0 sec

Total number of grid points                  ...    10064
Total number of batches                      ...      159
Average number of points per batch           ...       63
Average number of grid points per atom       ...     3355
Average number of shells per batch           ...     8.23 (91.50%)
Average number of basis functions per batch  ...    13.44 (89.63%)
Average number of large shells per batch     ...     8.05 (97.75%)
Average number of large basis fcns per batch ...    13.09 (97.34%)
Maximum spatial batch extension              ...  15.43, 15.43, 11.77 au
Average spatial batch extension              ...   1.98,  1.92,  1.32 au

Final grid set up in    0.0 sec
Final integration                            ... done (   0.0 sec)
Change in XC energy                          ...    -0.000707451
Integrated number of electrons               ...     3.000001124
Previous integrated no of electrons          ...     2.994953146
Total Energy       :           -1.65446071 Eh             -45.02016 eV
  Last Energy change         ...   -1.7937e-09  Tolerance :   1.0000e-08
  Last MAX-Density change    ...    4.2861e-06  Tolerance :   1.0000e-07
             **** THE GBW FILE WAS UPDATED (H+H2_H2+H_scan_0_orca.gbw) ****
             **** DENSITY FILE WAS UPDATED (H+H2_H2+H_scan_0_orca.scfp) ****
             **** ENERGY FILE WAS UPDATED (H+H2_H2+H_scan_0_orca.en.tmp) ****
----------------------
UHF SPIN CONTAMINATION
----------------------

Warning: in a DFT calculation there is little theoretical justification to 
         calculate <S**2> as in Hartree-Fock theory. We will do it anyways
         but you should keep in mind that the values have only limited relevance

Expectation value of <S**2>     :     0.756225
Ideal value S*(S+1) for S=0.5   :     0.750000
Deviation                       :     0.006225

             **** THE GBW FILE WAS UPDATED (H+H2_H2+H_scan_0_orca.gbw) ****
             **** DENSITY FILE WAS UPDATED (H+H2_H2+H_scan_0_orca.scfp) ****
Total SCF time: 0 days 0 hours 0 min 1 sec 

-------------------------   --------------------
FINAL SINGLE POINT ENERGY        -1.654460709369
-------------------------   --------------------



           ************************************************************
           *        Program running with 2 parallel MPI-processes     *
           *              working on a common directory               *
           ************************************************************
------------------------------------------------------------------------------
                         ORCA SCF GRADIENT CALCULATION
------------------------------------------------------------------------------

Gradient of the Kohn-Sham DFT energy:
Kohn-Sham wavefunction type      ... UKS
Hartree-Fock exchange scaling    ...    0.000
Number of operators              ...    2
Number of atoms                  ...    3
Basis set dimensions             ...   15
Integral neglect threshold       ... 2.5e-11
Integral primitive cutoff        ... 2.5e-12

Nuclear repulsion gradient       ... done
One Electron Gradient            ... done
Pre-screening matrix             ... done
RI-J gradient                    ... done
Exchange-correlation gradient    ... done

------------------
CARTESIAN GRADIENT
------------------

   1   H   :    0.000000000    0.000000000    0.013387761
   2   H   :   -0.000000000   -0.000000000   -0.006336252
   3   H   :    0.000000000    0.000000000   -0.007051509

Difference to translation invariance:
           :    0.0000000000    0.0000000000   -0.0000000000

Norm of the cartesian gradient     ...    0.0164043901
RMS gradient                       ...    0.0054681300
MAX gradient                       ...    0.0133877610

-------
TIMINGS
-------

Total SCF gradient time            ...        0.264 sec

One electron gradient       ....       0.000 sec  (  0.1%)
Prescreening matrices       ....       0.000 sec  (  0.1%)
RI-J Coulomb gradient       ....       0.064 sec  ( 24.3%)
XC gradient                 ....       0.053 sec  ( 20.1%)
------------------------------------------------------------------------------
                         ORCA GEOMETRY RELAXATION STEP
------------------------------------------------------------------------------

Reading the OPT-File                    .... done
Getting information on internals        .... done
Copying old internal coords+grads       .... done
Making the new internal coordinates     .... (new redundants).... done
Validating the new internal coordinates .... (new redundants).... done
Calculating the B-matrix                .... done
Calculating the G,G- and P matrices     .... done
Transforming gradient to internals      .... done
Projecting the internal gradient        .... done
Number of atoms                         ....   3
Number of internal coordinates          ....   4
Current Energy                          ....    -1.654460709 Eh
Current gradient norm                   ....     0.016404390 Eh/bohr
Maximum allowed component of the step   ....  0.300
Current trust radius                    ....  0.300
Updating the Hessian (BFGS)             .... done
Forming the augmented Hessian           .... done
Diagonalizing the augmented Hessian     .... done
Last element of RFO vector              ....  0.999073797
Lowest eigenvalues of augmented Hessian:
 -0.000576604  0.180011022  0.180011022  0.310840872
Length of the computed step             ....  0.043069500
The final length of the internal step   ....  0.043069500
Converting the step to cartesian space:
 Initial RMS(Int)=    0.0215347501
Transforming coordinates:
 Iter   0:  RMS(Cart)=    0.0117220332 RMS(Int)=    0.0215347501
 Iter   1:  RMS(Cart)=    0.0000000029 RMS(Int)=    0.0000000211
Imposing constraints:
 Iter   0:  RMS(Cart)=    0.0000000000 RMS(Int)=    0.0000000000
CONVERGED
done
Storing new coordinates                 .... done

                                .--------------------.
          ----------------------|Geometry convergence|-------------------------
          Item                value                   Tolerance       Converged
          ---------------------------------------------------------------------
          Energy change      -0.0156317853            0.0000050000      NO
          RMS gradient        0.0066938805            0.0001000000      NO
          MAX gradient        0.0133877610            0.0003000000      NO
          RMS step            0.0215347501            0.0020000000      NO
          MAX step            0.0430695003            0.0040000000      NO
          ........................................................
          Max(Bonds)      0.0228      Max(Angles)    0.00
          Max(Dihed)        0.00      Max(Improp)    0.00
          ---------------------------------------------------------------------

The optimization has not yet converged - more geometry cycles are needed


    ---------------------------------------------------------------------------
                         Redundant Internal Coordinates
                            (Angstroem and degrees)

        Definition                    Value    dE/dq     Step     New-Value
    ----------------------------------------------------------------------------
     1. B(H   1,H   0)                0.8588 -0.013388  0.0228    0.8815   
     2. B(H   2,H   1)                1.0000 -0.007052 -0.0000    1.0000 C 
     3. L(H   0,H   1,H   2, 1)       180.00  0.000000   -0.00    180.00   
     4. L(H   0,H   1,H   2, 2)       180.00 -0.000000    0.00    180.00   
    ----------------------------------------------------------------------------

         *************************************************************
         *                GEOMETRY OPTIMIZATION CYCLE   3            *
         *************************************************************
---------------------------------
CARTESIAN COORDINATES (ANGSTROEM)
---------------------------------
  H      0.000000   -0.000000   -0.121030
  H     -0.000000    0.000000    0.760515
  H      0.000000   -0.000000    1.760515

----------------------------
CARTESIAN COORDINATES (A.U.)
----------------------------
  NO LB      ZA    FRAG     MASS         X           Y           Z
   0 H     1.0000    0     1.008    0.000000   -0.000000   -0.228713
   1 H     1.0000    0     1.008   -0.000000    0.000000    1.437165
   2 H     1.0000    0     1.008    0.000000   -0.000000    3.326891

--------------------------------
INTERNAL COORDINATES (ANGSTROEM)
--------------------------------
 H      0   0   0     0.000000000000     0.00000000     0.00000000
 H      1   0   0     0.881544560413     0.00000000     0.00000000
 H      2   1   0     0.999999997925   179.99999852     0.00000000

---------------------------
INTERNAL COORDINATES (A.U.)
---------------------------
 H      0   0   0     0.000000000000     0.00000000     0.00000000
 H      1   0   0     1.665877794028     0.00000000     0.00000000
 H      2   1   0     1.889726130000   179.99999852     0.00000000



           ************************************************************
           *        Program running with 2 parallel MPI-processes     *
           *              working on a common directory               *
           ************************************************************
 One Electron integrals                  ... done
 Pre-screening matrix                    ... done


           ************************************************************
           *        Program running with 2 parallel MPI-processes     *
           *              working on a common directory               *
           ************************************************************

Diagonalization of the overlap matrix:
Smallest eigenvalue                        ... 2.816e-02
Time for diagonalization                   ...    0.001 sec
Threshold for overlap eigenvalues          ... 1.000e-08
Number of eigenvalues below threshold      ... 0
Time for construction of square roots      ...    0.000 sec
Total time needed                          ...    0.001 sec

-------------------
DFT GRID GENERATION
-------------------

General Integration Accuracy     IntAcc      ...  4.340
Radial Grid Type                 RadialGrid  ... Gauss-Chebyshev
Angular Grid (max. acc.)         AngularGrid ... Lebedev-110
Angular grid pruning method      GridPruning ... 3 (G Style)
Weight generation scheme         WeightScheme... Becke
Basis function cutoff            BFCut       ...    1.0000e-11
Integration weight cutoff        WCut        ...    1.0000e-14
Grids for H and He will be reduced by one unit

# of grid points (after initial pruning)     ...   2382 (   0.0 sec)
# of grid points (after weights+screening)   ...   2336 (   0.0 sec)
nearest neighbour list constructed           ...    0.0 sec
Grid point re-assignment to atoms done       ...    0.0 sec
Grid point division into batches done        ...    0.0 sec
Reduced shell lists constructed in    0.0 sec

Total number of grid points                  ...     2336
Total number of batches                      ...       39
Average number of points per batch           ...       59
Average number of grid points per atom       ...      779
Average number of shells per batch           ...     8.57 (95.24%)
Average number of basis functions per batch  ...    14.29 (95.24%)
Average number of large shells per batch     ...     8.52 (99.44%)
Average number of large basis fcns per batch ...    14.14 (99.00%)
Maximum spatial batch extension              ...  17.62, 21.59, 14.04 au
Average spatial batch extension              ...   2.94,  3.39,  2.13 au

Time for grid setup =    0.010 sec

--------------
SCF ITERATIONS
--------------
ITER       Energy         Delta-E        Max-DP      RMS-DP      [F,P]     Damp
               ***  Starting incremental Fock matrix formation  ***
  0     -1.6541150807   0.000000000000 0.00113912  0.00011749  0.0051148 0.7000
  1     -1.6541354489  -0.000020368204 0.00109123  0.00011740  0.0038560 0.7000
                               ***Turning on DIIS***
  2     -1.6541511791  -0.000015730275 0.00309354  0.00034690  0.0027559 0.0000
  3     -1.6541881923  -0.000037013199 0.00212853  0.00022785  0.0007853 0.0000
  4     -1.6541905474  -0.000002355006 0.00035213  0.00003322  0.0003025 0.0000
  5     -1.6541908826  -0.000000335286 0.00024687  0.00002923  0.0001825 0.0000
  6     -1.6541909469  -0.000000064224 0.00003160  0.00000434  0.0000308 0.0000
                 **** Energy Check signals convergence ****

               *****************************************************
               *                     SUCCESS                       *
               *           SCF CONVERGED AFTER   7 CYCLES          *
               *****************************************************

Setting up the final grid:

General Integration Accuracy     IntAcc      ...  4.670
Radial Grid Type                 RadialGrid  ... Gauss-Chebyshev
Angular Grid (max. acc.)         AngularGrid ... Lebedev-302
Angular grid pruning method      GridPruning ... 3 (G Style)
Weight generation scheme         WeightScheme... Becke
Basis function cutoff            BFCut       ...    1.0000e-11
Integration weight cutoff        WCut        ...    1.0000e-14
Grids for H and He will be reduced by one unit

# of grid points (after initial pruning)     ...  10182 (   0.0 sec)
# of grid points (after weights+screening)   ...  10064 (   0.0 sec)
nearest neighbour list constructed           ...    0.0 sec
Grid point re-assignment to atoms done       ...    0.0 sec
Grid point division into batches done        ...    0.0 sec
Reduced shell lists constructed in    0.0 sec

Total number of grid points                  ...    10064
Total number of batches                      ...      158
Average number of points per batch           ...       63
Average number of grid points per atom       ...     3355
Average number of shells per batch           ...     8.22 (91.39%)
Average number of basis functions per batch  ...    13.43 (89.50%)
Average number of large shells per batch     ...     8.04 (97.72%)
Average number of large basis fcns per batch ...    13.06 (97.30%)
Maximum spatial batch extension              ...  15.43, 15.43, 11.77 au
Average spatial batch extension              ...   1.99,  1.92,  1.33 au

Final grid set up in    0.0 sec
Final integration                            ... done (   0.0 sec)
Change in XC energy                          ...    -0.000721518
Integrated number of electrons               ...     3.000001183
Previous integrated no of electrons          ...     2.994738964
Total Energy       :           -1.65491247 Eh             -45.03246 eV
  Last Energy change         ...   -2.7161e-09  Tolerance :   1.0000e-08
  Last MAX-Density change    ...    5.7387e-06  Tolerance :   1.0000e-07
             **** THE GBW FILE WAS UPDATED (H+H2_H2+H_scan_0_orca.gbw) ****
             **** DENSITY FILE WAS UPDATED (H+H2_H2+H_scan_0_orca.scfp) ****
             **** ENERGY FILE WAS UPDATED (H+H2_H2+H_scan_0_orca.en.tmp) ****
----------------------
UHF SPIN CONTAMINATION
----------------------

Warning: in a DFT calculation there is little theoretical justification to 
         calculate <S**2> as in Hartree-Fock theory. We will do it anyways
         but you should keep in mind that the values have only limited relevance

Expectation value of <S**2>     :     0.756669
Ideal value S*(S+1) for S=0.5   :     0.750000
Deviation                       :     0.006669

             **** THE GBW FILE WAS UPDATED (H+H2_H2+H_scan_0_orca.gbw) ****
             **** DENSITY FILE WAS UPDATED (H+H2_H2+H_scan_0_orca.scfp) ****
Total SCF time: 0 days 0 hours 0 min 1 sec 

-------------------------   --------------------
FINAL SINGLE POINT ENERGY        -1.654912467119
-------------------------   --------------------



           ************************************************************
           *        Program running with 2 parallel MPI-processes     *
           *              working on a common directory               *
           ************************************************************
------------------------------------------------------------------------------
                         ORCA SCF GRADIENT CALCULATION
------------------------------------------------------------------------------

Gradient of the Kohn-Sham DFT energy:
Kohn-Sham wavefunction type      ... UKS
Hartree-Fock exchange scaling    ...    0.000
Number of operators              ...    2
Number of atoms                  ...    3
Basis set dimensions             ...   15
Integral neglect threshold       ... 2.5e-11
Integral primitive cutoff        ... 2.5e-12

Nuclear repulsion gradient       ... done
One Electron Gradient            ... done
Pre-screening matrix             ... done
RI-J gradient                    ... done
Exchange-correlation gradient    ... done

------------------
CARTESIAN GRADIENT
------------------

   1   H   :   -0.000000000   -0.000000000    0.006707956
   2   H   :   -0.000000000    0.000000000   -0.002952238
   3   H   :    0.000000000   -0.000000000   -0.003755718

Difference to translation invariance:
           :    0.0000000000    0.0000000000   -0.0000000000

Norm of the cartesian gradient     ...    0.0082351567
RMS gradient                       ...    0.0027450522
MAX gradient                       ...    0.0067079563

-------
TIMINGS
-------

Total SCF gradient time            ...        0.265 sec

One electron gradient       ....       0.000 sec  (  0.1%)
Prescreening matrices       ....       0.000 sec  (  0.1%)
RI-J Coulomb gradient       ....       0.064 sec  ( 24.0%)
XC gradient                 ....       0.051 sec  ( 19.3%)
------------------------------------------------------------------------------
                         ORCA GEOMETRY RELAXATION STEP
------------------------------------------------------------------------------

Reading the OPT-File                    .... done
Getting information on internals        .... done
Copying old internal coords+grads       .... done
Making the new internal coordinates     .... (new redundants).... done
Validating the new internal coordinates .... (new redundants).... done
Calculating the B-matrix                .... done
Calculating the G,G- and P matrices     .... done
Transforming gradient to internals      .... done
Projecting the internal gradient        .... done
Number of atoms                         ....   3
Number of internal coordinates          ....   4
Current Energy                          ....    -1.654912467 Eh
Current gradient norm                   ....     0.008235157 Eh/bohr
Maximum allowed component of the step   ....  0.300
Current trust radius                    ....  0.300
Updating the Hessian (BFGS)             .... done
Forming the augmented Hessian           .... done
Diagonalizing the augmented Hessian     .... done
Last element of RFO vector              ....  0.999069458
Lowest eigenvalues of augmented Hessian:
 -0.000289585  0.155383205  0.180011022  0.180011022
Length of the computed step             ....  0.043170408
The final length of the internal step   ....  0.043170408
Converting the step to cartesian space:
 Initial RMS(Int)=    0.0215852038
Transforming coordinates:
 Iter   0:  RMS(Cart)=    0.0117494967 RMS(Int)=    0.0215852038
 Iter   1:  RMS(Cart)=    0.0000000085 RMS(Int)=    0.0000000211
Imposing constraints:
 Iter   0:  RMS(Cart)=    0.0000000000 RMS(Int)=    0.0000000000
CONVERGED
done
Storing new coordinates                 .... done

                                .--------------------.
          ----------------------|Geometry convergence|-------------------------
          Item                value                   Tolerance       Converged
          ---------------------------------------------------------------------
          Energy change      -0.0004517578            0.0000050000      NO
          RMS gradient        0.0033539782            0.0001000000      NO
          MAX gradient        0.0067079563            0.0003000000      NO
          RMS step            0.0215852038            0.0020000000      NO
          MAX step            0.0431704076            0.0040000000      NO
          ........................................................
          Max(Bonds)      0.0228      Max(Angles)    0.00
          Max(Dihed)        0.00      Max(Improp)    0.00
          ---------------------------------------------------------------------

The optimization has not yet converged - more geometry cycles are needed


    ---------------------------------------------------------------------------
                         Redundant Internal Coordinates
                            (Angstroem and degrees)

        Definition                    Value    dE/dq     Step     New-Value
    ----------------------------------------------------------------------------
     1. B(H   1,H   0)                0.8815 -0.006708  0.0228    0.9044   
     2. B(H   2,H   1)                1.0000 -0.003756 -0.0000    1.0000 C 
     3. L(H   0,H   1,H   2, 1)       180.00 -0.000000   -0.00    180.00   
     4. L(H   0,H   1,H   2, 2)       180.00 -0.000000   -0.00    180.00   
    ----------------------------------------------------------------------------

         *************************************************************
         *                GEOMETRY OPTIMIZATION CYCLE   4            *
         *************************************************************
---------------------------------
CARTESIAN COORDINATES (ANGSTROEM)
---------------------------------
  H      0.000000   -0.000000   -0.136260
  H     -0.000000    0.000000    0.768130
  H      0.000000   -0.000000    1.768130

----------------------------
CARTESIAN COORDINATES (A.U.)
----------------------------
  NO LB      ZA    FRAG     MASS         X           Y           Z
   0 H     1.0000    0     1.008    0.000000   -0.000000   -0.257493
   1 H     1.0000    0     1.008   -0.000000    0.000000    1.451555
   2 H     1.0000    0     1.008    0.000000   -0.000000    3.341281

--------------------------------
INTERNAL COORDINATES (ANGSTROEM)
--------------------------------
 H      0   0   0     0.000000000000     0.00000000     0.00000000
 H      1   0   0     0.904389356185     0.00000000     0.00000000
 H      2   1   0     0.999999997925   179.99999618     0.00000000

---------------------------
INTERNAL COORDINATES (A.U.)
---------------------------
 H      0   0   0     0.000000000000     0.00000000     0.00000000
 H      1   0   0     1.709048201623     0.00000000     0.00000000
 H      2   1   0     1.889726130000   179.99999618     0.00000000



           ************************************************************
           *        Program running with 2 parallel MPI-processes     *
           *              working on a common directory               *
           ************************************************************
 One Electron integrals                  ... done
 Pre-screening matrix                    ... done


           ************************************************************
           *        Program running with 2 parallel MPI-processes     *
           *              working on a common directory               *
           ************************************************************

Diagonalization of the overlap matrix:
Smallest eigenvalue                        ... 2.936e-02
Time for diagonalization                   ...    0.001 sec
Threshold for overlap eigenvalues          ... 1.000e-08
Number of eigenvalues below threshold      ... 0
Time for construction of square roots      ...    0.000 sec
Total time needed                          ...    0.001 sec

-------------------
DFT GRID GENERATION
-------------------

General Integration Accuracy     IntAcc      ...  4.340
Radial Grid Type                 RadialGrid  ... Gauss-Chebyshev
Angular Grid (max. acc.)         AngularGrid ... Lebedev-110
Angular grid pruning method      GridPruning ... 3 (G Style)
Weight generation scheme         WeightScheme... Becke
Basis function cutoff            BFCut       ...    1.0000e-11
Integration weight cutoff        WCut        ...    1.0000e-14
Grids for H and He will be reduced by one unit

# of grid points (after initial pruning)     ...   2382 (   0.0 sec)
# of grid points (after weights+screening)   ...   2336 (   0.0 sec)
nearest neighbour list constructed           ...    0.0 sec
Grid point re-assignment to atoms done       ...    0.0 sec
Grid point division into batches done        ...    0.0 sec
Reduced shell lists constructed in    0.0 sec

Total number of grid points                  ...     2336
Total number of batches                      ...       39
Average number of points per batch           ...       59
Average number of grid points per atom       ...      779
Average number of shells per batch           ...     8.57 (95.24%)
Average number of basis functions per batch  ...    14.29 (95.24%)
Average number of large shells per batch     ...     8.52 (99.44%)
Average number of large basis fcns per batch ...    14.14 (99.00%)
Maximum spatial batch extension              ...  17.62, 21.59, 14.04 au
Average spatial batch extension              ...   2.95,  3.40,  2.13 au

Time for grid setup =    0.009 sec

--------------
SCF ITERATIONS
--------------
ITER       Energy         Delta-E        Max-DP      RMS-DP      [F,P]     Damp
               ***  Starting incremental Fock matrix formation  ***
  0     -1.6542993168   0.000000000000 0.00112930  0.00011418  0.0049447 0.7000
  1     -1.6543188492  -0.000019532411 0.00108523  0.00011536  0.0037420 0.7000
                               ***Turning on DIIS***
  2     -1.6543340953  -0.000015246099 0.00305877  0.00034312  0.0027252 0.0000
  3     -1.6543704472  -0.000036351886 0.00209792  0.00022600  0.0007574 0.0000
  4     -1.6543728828  -0.000002435647 0.00035706  0.00003430  0.0003088 0.0000
  5     -1.6543732398  -0.000000357034 0.00024958  0.00003000  0.0001870 0.0000
  6     -1.6543733093  -0.000000069415 0.00002837  0.00000415  0.0000322 0.0000
                 **** Energy Check signals convergence ****

               *****************************************************
               *                     SUCCESS                       *
               *           SCF CONVERGED AFTER   7 CYCLES          *
               *****************************************************

Setting up the final grid:

General Integration Accuracy     IntAcc      ...  4.670
Radial Grid Type                 RadialGrid  ... Gauss-Chebyshev
Angular Grid (max. acc.)         AngularGrid ... Lebedev-302
Angular grid pruning method      GridPruning ... 3 (G Style)
Weight generation scheme         WeightScheme... Becke
Basis function cutoff            BFCut       ...    1.0000e-11
Integration weight cutoff        WCut        ...    1.0000e-14
Grids for H and He will be reduced by one unit

# of grid points (after initial pruning)     ...  10182 (   0.0 sec)
# of grid points (after weights+screening)   ...  10064 (   0.0 sec)
nearest neighbour list constructed           ...    0.0 sec
Grid point re-assignment to atoms done       ...    0.0 sec
Grid point division into batches done        ...    0.0 sec
Reduced shell lists constructed in    0.0 sec

Total number of grid points                  ...    10064
Total number of batches                      ...      158
Average number of points per batch           ...       63
Average number of grid points per atom       ...     3355
Average number of shells per batch           ...     8.22 (91.39%)
Average number of basis functions per batch  ...    13.40 (89.33%)
Average number of large shells per batch     ...     8.04 (97.72%)
Average number of large basis fcns per batch ...    13.06 (97.48%)
Maximum spatial batch extension              ...  15.43, 15.43, 11.77 au
Average spatial batch extension              ...   2.03,  1.94,  1.33 au

Final grid set up in    0.0 sec
Final integration                            ... done (   0.0 sec)
Change in XC energy                          ...    -0.000727734
Integrated number of electrons               ...     3.000001178
Previous integrated no of electrons          ...     2.994552626
Total Energy       :           -1.65510105 Eh             -45.03759 eV
  Last Energy change         ...   -2.8094e-09  Tolerance :   1.0000e-08
  Last MAX-Density change    ...    5.8708e-06  Tolerance :   1.0000e-07
             **** THE GBW FILE WAS UPDATED (H+H2_H2+H_scan_0_orca.gbw) ****
             **** DENSITY FILE WAS UPDATED (H+H2_H2+H_scan_0_orca.scfp) ****
             **** ENERGY FILE WAS UPDATED (H+H2_H2+H_scan_0_orca.en.tmp) ****
----------------------
UHF SPIN CONTAMINATION
----------------------

Warning: in a DFT calculation there is little theoretical justification to 
         calculate <S**2> as in Hartree-Fock theory. We will do it anyways
         but you should keep in mind that the values have only limited relevance

Expectation value of <S**2>     :     0.757121
Ideal value S*(S+1) for S=0.5   :     0.750000
Deviation                       :     0.007121

             **** THE GBW FILE WAS UPDATED (H+H2_H2+H_scan_0_orca.gbw) ****
             **** DENSITY FILE WAS UPDATED (H+H2_H2+H_scan_0_orca.scfp) ****
Total SCF time: 0 days 0 hours 0 min 1 sec 

-------------------------   --------------------
FINAL SINGLE POINT ENERGY        -1.655101046450
-------------------------   --------------------



           ************************************************************
           *        Program running with 2 parallel MPI-processes     *
           *              working on a common directory               *
           ************************************************************
------------------------------------------------------------------------------
                         ORCA SCF GRADIENT CALCULATION
------------------------------------------------------------------------------

Gradient of the Kohn-Sham DFT energy:
Kohn-Sham wavefunction type      ... UKS
Hartree-Fock exchange scaling    ...    0.000
Number of operators              ...    2
Number of atoms                  ...    3
Basis set dimensions             ...   15
Integral neglect threshold       ... 2.5e-11
Integral primitive cutoff        ... 2.5e-12

Nuclear repulsion gradient       ... done
One Electron Gradient            ... done
Pre-screening matrix             ... done
RI-J gradient                    ... done
Exchange-correlation gradient    ... done

------------------
CARTESIAN GRADIENT
------------------

   1   H   :    0.000000000   -0.000000000    0.001109361
   2   H   :   -0.000000001    0.000000001   -0.000657340
   3   H   :    0.000000000   -0.000000000   -0.000452020

Difference to translation invariance:
           :   -0.0000000000    0.0000000000    0.0000000000

Norm of the cartesian gradient     ...    0.0013664188
RMS gradient                       ...    0.0004554729
MAX gradient                       ...    0.0011093608

-------
TIMINGS
-------

Total SCF gradient time            ...        0.278 sec

One electron gradient       ....       0.000 sec  (  0.1%)
Prescreening matrices       ....       0.000 sec  (  0.1%)
RI-J Coulomb gradient       ....       0.065 sec  ( 23.2%)
XC gradient                 ....       0.059 sec  ( 21.2%)
------------------------------------------------------------------------------
                         ORCA GEOMETRY RELAXATION STEP
------------------------------------------------------------------------------

Reading the OPT-File                    .... done
Getting information on internals        .... done
Copying old internal coords+grads       .... done
Making the new internal coordinates     .... (new redundants).... done
Validating the new internal coordinates .... (new redundants).... done
Calculating the B-matrix                .... done
Calculating the G,G- and P matrices     .... done
Transforming gradient to internals      .... done
Projecting the internal gradient        .... done
Number of atoms                         ....   3
Number of internal coordinates          ....   4
Current Energy                          ....    -1.655101046 Eh
Current gradient norm                   ....     0.001366419 Eh/bohr
Maximum allowed component of the step   ....  0.300
Current trust radius                    ....  0.300
Updating the Hessian (BFGS)             .... done
Forming the augmented Hessian           .... done
Diagonalizing the augmented Hessian     .... done
Last element of RFO vector              ....  0.999963420
Lowest eigenvalues of augmented Hessian:
 -0.000009489  0.129695443  0.180011022  0.180011022
Length of the computed step             ....  0.008553584
The final length of the internal step   ....  0.008553584
Converting the step to cartesian space:
 Initial RMS(Int)=    0.0042767919
Transforming coordinates:
 Iter   0:  RMS(Cart)=    0.0023279906 RMS(Int)=    0.0042767919
 Iter   1:  RMS(Cart)=    0.0000000001 RMS(Int)=    0.0000000017
Imposing constraints:
 Iter   0:  RMS(Cart)=    0.0000000000 RMS(Int)=    0.0000000000
CONVERGED
done
Storing new coordinates                 .... done

                                .--------------------.
          ----------------------|Geometry convergence|-------------------------
          Item                value                   Tolerance       Converged
          ---------------------------------------------------------------------
          Energy change      -0.0001885793            0.0000050000      NO
          RMS gradient        0.0005546804            0.0001000000      NO
          MAX gradient        0.0011093608            0.0003000000      NO
          RMS step            0.0042767919            0.0020000000      NO
          MAX step            0.0085535838            0.0040000000      NO
          ........................................................
          Max(Bonds)      0.0045      Max(Angles)    0.00
          Max(Dihed)        0.00      Max(Improp)    0.00
          ---------------------------------------------------------------------

The optimization has not yet converged - more geometry cycles are needed


    ---------------------------------------------------------------------------
                         Redundant Internal Coordinates
                            (Angstroem and degrees)

        Definition                    Value    dE/dq     Step     New-Value
    ----------------------------------------------------------------------------
     1. B(H   1,H   0)                0.9044 -0.001109  0.0045    0.9089   
     2. B(H   2,H   1)                1.0000 -0.000452  0.0000    1.0000 C 
     3. L(H   0,H   1,H   2, 1)       180.00 -0.000000   -0.00    180.00   
     4. L(H   0,H   1,H   2, 2)       180.00 -0.000000   -0.00    180.00   
    ----------------------------------------------------------------------------

         *************************************************************
         *                GEOMETRY OPTIMIZATION CYCLE   5            *
         *************************************************************
---------------------------------
CARTESIAN COORDINATES (ANGSTROEM)
---------------------------------
  H      0.000000   -0.000000   -0.139277
  H     -0.000000    0.000000    0.769639
  H      0.000000   -0.000000    1.769639

----------------------------
CARTESIAN COORDINATES (A.U.)
----------------------------
[...]
 Schwartz matrix evaluation time         ...   0.132 sec (  0.002 min) = 82.4%
 Two index repulsion integral time       ...   0.000 sec (  0.000 min) =  0.1%
 Cholesky decomposition of V             ...   0.000 sec (  0.000 min) =  0.2%
 Three index repulsion integral time     ...   0.000 sec (  0.000 min) =  0.0%



           ************************************************************
           *        Program running with 2 parallel MPI-processes     *
           *              working on a common directory               *
           ************************************************************
-------------------------------------------------------------------------------
                                 ORCA SCF
-------------------------------------------------------------------------------

------------
SCF SETTINGS
------------
Hamiltonian:
 Density Functional     Method          .... DFT(GTOs)
 Exchange Functional    Exchange        .... PBE
   PBE kappa parameter   XKappa         ....  0.804000
   PBE mue parameter    XMuePBE         ....  0.219520
 Correlation Functional Correlation     .... PBE
   PBE beta parameter  CBetaPBE         ....  0.066725
 LDA part of GGA corr.  LDAOpt          .... PW91-LDA
 Gradients option       PostSCFGGA      .... off
   Density functional embedding theory  .... OFF
   NL short-range parameter             ....  6.400000
 RI-approximation to the Coulomb term is turned on
   Number of auxiliary basis functions  .... 33


General Settings:
 Integral files         IntName         .... H+H2_H2+H_scan_0_orca
 Hartree-Fock type      HFTyp           .... UHF
 Total Charge           Charge          ....    0
 Multiplicity           Mult            ....    2
 Number of Electrons    NEL             ....    3
 Basis Dimension        Dim             ....   15
 Nuclear Repulsion      ENuc            ....      1.3881786874 Eh

Convergence Acceleration:
 DIIS                   CNVDIIS         .... on
   Start iteration      DIISMaxIt       ....    12
   Startup error        DIISStart       ....  0.200000
   # of expansion vecs  DIISMaxEq       ....     5
   Bias factor          DIISBfac        ....   1.050
   Max. coefficient     DIISMaxC        ....  10.000
 Newton-Raphson         CNVNR           .... off
 SOSCF                  CNVSOSCF        .... off
 Level Shifting         CNVShift        .... on
   Level shift para.    LevelShift      ....    0.2500
   Turn off err/grad.   ShiftErr        ....    0.0010
 Zerner damping         CNVZerner       .... off
 Static damping         CNVDamp         .... on
   Fraction old density DampFac         ....    0.7000
   Max. Damping (<1)    DampMax         ....    0.9800
   Min. Damping (>=0)   DampMin         ....    0.0000
   Turn off err/grad.   DampErr         ....    0.1000
 Fernandez-Rico         CNVRico         .... off

SCF Procedure:
 Maximum # iterations   MaxIter         ....   250
 SCF integral mode      SCFMode         .... Direct
   Integral package                     .... LIBINT
 Reset frequency        DirectResetFreq ....    20
 Integral Threshold     Thresh          ....  2.500e-11 Eh
 Primitive CutOff       TCut            ....  2.500e-12 Eh

Convergence Tolerance:
 Convergence Check Mode ConvCheckMode   .... Total+1el-Energy
 Convergence forced     ConvForced      .... 0
 Energy Change          TolE            ....  1.000e-08 Eh
 1-El. energy change                    ....  1.000e-05 Eh
 DIIS Error             TolErr          ....  5.000e-07


Diagonalization of the overlap matrix:
Smallest eigenvalue                        ... 2.963e-02
Time for diagonalization                   ...    0.001 sec
Threshold for overlap eigenvalues          ... 1.000e-08
Number of eigenvalues below threshold      ... 0
Time for construction of square roots      ...    0.000 sec
Total time needed                          ...    0.001 sec

---------------------
INITIAL GUESS: MOREAD
---------------------
Guess MOs are being read from file: H+H2_H2+H_scan_0_orca.gbw
Input Geometry matches current geometry (good)
Input basis set matches current basis set (good)
MOs were renormalized
MOs were reorthogonalized (Cholesky)
                      ------------------
                      INITIAL GUESS DONE (   0.0 sec)
                      ------------------
-------------------
DFT GRID GENERATION
-------------------

General Integration Accuracy     IntAcc      ...  4.340
Radial Grid Type                 RadialGrid  ... Gauss-Chebyshev
Angular Grid (max. acc.)         AngularGrid ... Lebedev-110
Angular grid pruning method      GridPruning ... 3 (G Style)
Weight generation scheme         WeightScheme... Becke
Basis function cutoff            BFCut       ...    1.0000e-11
Integration weight cutoff        WCut        ...    1.0000e-14
Grids for H and He will be reduced by one unit

# of grid points (after initial pruning)     ...   2382 (   0.0 sec)
# of grid points (after weights+screening)   ...   2336 (   0.0 sec)
nearest neighbour list constructed           ...    0.0 sec
Grid point re-assignment to atoms done       ...    0.0 sec
Grid point division into batches done        ...    0.0 sec
Reduced shell lists constructed in    0.0 sec

Total number of grid points                  ...     2336
Total number of batches                      ...       39
Average number of points per batch           ...       59
Average number of grid points per atom       ...      779
Average number of shells per batch           ...     8.57 (95.24%)
Average number of basis functions per batch  ...    14.29 (95.24%)
Average number of large shells per batch     ...     8.52 (99.44%)
Average number of large basis fcns per batch ...    14.14 (99.00%)
Maximum spatial batch extension              ...  17.62, 21.59, 14.04 au
Average spatial batch extension              ...   2.94,  3.40,  2.14 au

Time for grid setup =    0.009 sec

--------------
SCF ITERATIONS
--------------
ITER       Energy         Delta-E        Max-DP      RMS-DP      [F,P]     Damp
               ***  Starting incremental Fock matrix formation  ***
  0     -1.6543835167   0.000000000000 0.00002607  0.00000261  0.0001147 0.7000
  1     -1.6543835272  -0.000000010467 0.00002510  0.00000269  0.0000871 0.7000
                               ***Turning on DIIS***
  2     -1.6543835355  -0.000000008307 0.00009952  0.00001024  0.0000647 0.0000
  3     -1.6543835563  -0.000000020834 0.00002825  0.00000322  0.0000191 0.0000
                 **** Energy Check signals convergence ****

               *****************************************************
               *                     SUCCESS                       *
               *           SCF CONVERGED AFTER   4 CYCLES          *
               *****************************************************

Setting up the final grid:

General Integration Accuracy     IntAcc      ...  4.670
Radial Grid Type                 RadialGrid  ... Gauss-Chebyshev
Angular Grid (max. acc.)         AngularGrid ... Lebedev-302
Angular grid pruning method      GridPruning ... 3 (G Style)
Weight generation scheme         WeightScheme... Becke
Basis function cutoff            BFCut       ...    1.0000e-11
Integration weight cutoff        WCut        ...    1.0000e-14
Grids for H and He will be reduced by one unit

# of grid points (after initial pruning)     ...  10182 (   0.0 sec)
# of grid points (after weights+screening)   ...  10064 (   0.0 sec)
nearest neighbour list constructed           ...    0.0 sec
Grid point re-assignment to atoms done       ...    0.0 sec
Grid point division into batches done        ...    0.0 sec
Reduced shell lists constructed in    0.0 sec

Total number of grid points                  ...    10064
Total number of batches                      ...      158
Average number of points per batch           ...       63
Average number of grid points per atom       ...     3355
Average number of shells per batch           ...     8.22 (91.39%)
Average number of basis functions per batch  ...    13.40 (89.33%)
Average number of large shells per batch     ...     8.04 (97.72%)
Average number of large basis fcns per batch ...    13.06 (97.48%)
Maximum spatial batch extension              ...  15.43, 15.43, 11.77 au
Average spatial batch extension              ...   2.03,  1.93,  1.32 au

Final grid set up in    0.0 sec
Final integration                            ... done (   0.0 sec)
Change in XC energy                          ...    -0.000727995
Integrated number of electrons               ...     3.000001178
Previous integrated no of electrons          ...     2.994515647

----------------
TOTAL SCF ENERGY
----------------

Total Energy       :           -1.65511155 Eh             -45.03788 eV

Components:
Nuclear Repulsion  :            1.38817869 Eh              37.77426 eV
Electronic Energy  :           -3.04329024 Eh             -82.81214 eV
One Electron Energy:           -4.31536286 Eh            -117.42699 eV
Two Electron Energy:            1.27207262 Eh              34.61486 eV

Virial components:
Potential Energy   :           -3.22966173 Eh             -87.88356 eV
Kinetic Energy     :            1.57455018 Eh              42.84569 eV
Virial Ratio       :            2.05116469


DFT components:
N(Alpha)           :        2.000001033550 electrons
N(Beta)            :        1.000000144440 electrons
N(Total)           :        3.000001177990 electrons
E(X)               :       -0.927332435193 Eh       
E(C)               :       -0.062555957712 Eh       
E(XC)              :       -0.989888392906 Eh       
DFET-embed. en.    :        0.000000000000 Eh       

---------------
SCF CONVERGENCE
---------------

  Last Energy change         ...   -8.7613e-10  Tolerance :   1.0000e-08
  Last MAX-Density change    ...    7.9850e-06  Tolerance :   1.0000e-07
  Last RMS-Density change    ...    7.7065e-07  Tolerance :   5.0000e-09
  Last DIIS Error            ...    6.9418e-06  Tolerance :   5.0000e-07

             **** THE GBW FILE WAS UPDATED (H+H2_H2+H_scan_0_orca.gbw) ****
             **** DENSITY FILE WAS UPDATED (H+H2_H2+H_scan_0_orca.scfp) ****
             **** ENERGY FILE WAS UPDATED (H+H2_H2+H_scan_0_orca.en.tmp) ****
----------------------
UHF SPIN CONTAMINATION
----------------------

Warning: in a DFT calculation there is little theoretical justification to 
         calculate <S**2> as in Hartree-Fock theory. We will do it anyways
         but you should keep in mind that the values have only limited relevance

Expectation value of <S**2>     :     0.757221
Ideal value S*(S+1) for S=0.5   :     0.750000
Deviation                       :     0.007221

             **** THE GBW FILE WAS UPDATED (H+H2_H2+H_scan_0_orca.gbw) ****
             **** DENSITY FILE WAS UPDATED (H+H2_H2+H_scan_0_orca.scfp) ****
----------------
ORBITAL ENERGIES
----------------
                 SPIN UP ORBITALS
  NO   OCC          E(Eh)            E(eV) 
   0   1.0000      -0.442740       -12.0476 
   1   1.0000      -0.218878        -5.9560 
   2   0.0000       0.084440         2.2977 
   3   0.0000       0.383478        10.4350 
   4   0.0000       0.391861        10.6631 
   5   0.0000       0.634252        17.2589 
   6   0.0000       0.999888        27.2083 
   7   0.0000       0.999888        27.2083 
   8   0.0000       1.306797        35.5597 
   9   0.0000       1.306797        35.5597 
  10   0.0000       1.430076        38.9143 
  11   0.0000       1.912902        52.0527 
  12   0.0000       1.912902        52.0527 
  13   0.0000       2.266411        61.6722 
  14   0.0000       3.402996        92.6002 

                 SPIN DOWN ORBITALS
  NO   OCC          E(Eh)            E(eV) 
   0   1.0000      -0.402187       -10.9441 
   1   0.0000      -0.124588        -3.3902 
   2   0.0000       0.130138         3.5412 
   3   0.0000       0.417738        11.3672 
   4   0.0000       0.462385        12.5821 
   5   0.0000       0.687472        18.7071 
   6   0.0000       1.037632        28.2354 
   7   0.0000       1.037632        28.2354 
   8   0.0000       1.410506        38.3818 
   9   0.0000       1.410506        38.3818 
  10   0.0000       1.516545        41.2673 
  11   0.0000       1.964069        53.4450 
  12   0.0000       1.964069        53.4450 
  13   0.0000       2.350648        63.9644 
  14   0.0000       3.459672        94.1425 

                    ********************************
                    * MULLIKEN POPULATION ANALYSIS *
                    ********************************

--------------------------------------------
MULLIKEN ATOMIC CHARGES AND SPIN POPULATIONS
--------------------------------------------
   0 H :    0.012034    0.501731
   1 H :   -0.014431   -0.142081
   2 H :    0.002398    0.640350
Sum of atomic charges         :   -0.0000000
Sum of atomic spin populations:    1.0000000

-----------------------------------------------------
MULLIKEN REDUCED ORBITAL CHARGES AND SPIN POPULATIONS
-----------------------------------------------------
CHARGE
  0 H s       :     0.979441  s :     0.979441
      pz      :     0.008525  p :     0.008525
      px      :     0.000000
      py      :     0.000000
  1 H s       :     0.998891  s :     0.998891
      pz      :     0.015540  p :     0.015540
      px      :     0.000000
      py      :     0.000000
  2 H s       :     0.990137  s :     0.990137
      pz      :     0.007465  p :     0.007465
      px      :     0.000000
      py      :     0.000000

SPIN
  0 H s       :     0.503269  s :     0.503269
      pz      :    -0.001538  p :    -0.001538
      px      :     0.000000
      py      :     0.000000
  1 H s       :    -0.157619  s :    -0.157619
      pz      :     0.015537  p :     0.015537
      px      :    -0.000000
      py      :    -0.000000
  2 H s       :     0.641169  s :     0.641169
      pz      :    -0.000819  p :    -0.000819
      px      :     0.000000
      py      :     0.000000


                     *******************************
                     * LOEWDIN POPULATION ANALYSIS *
                     *******************************

-------------------------------------------
LOEWDIN ATOMIC CHARGES AND SPIN POPULATIONS
-------------------------------------------
   0 H :    0.005121    0.417853
   1 H :   -0.006909    0.029210
   2 H :    0.001788    0.552937

----------------------------------------------------
LOEWDIN REDUCED ORBITAL CHARGES AND SPIN POPULATIONS
----------------------------------------------------
CHARGE
  0 H s       :     0.964473  s :     0.964473
      pz      :     0.030406  p :     0.030406
      px      :     0.000000
      py      :     0.000000
  1 H s       :     0.912482  s :     0.912482
      pz      :     0.094427  p :     0.094427
      px      :     0.000000
      py      :     0.000000
  2 H s       :     0.969906  s :     0.969906
      pz      :     0.028306  p :     0.028306
      px      :     0.000000
      py      :     0.000000

SPIN
  0 H s       :     0.419508  s :     0.419508
      pz      :    -0.001655  p :    -0.001655
      px      :    -0.000000
      py      :    -0.000000
  1 H s       :    -0.064774  s :    -0.064774
      pz      :     0.093984  p :     0.093984
      px      :     0.000000
      py      :     0.000000
  2 H s       :     0.552789  s :     0.552789
      pz      :     0.000147  p :     0.000147
      px      :    -0.000000
      py      :    -0.000000


                      *****************************
                      * MAYER POPULATION ANALYSIS *
                      *****************************

  NA   - Mulliken gross atomic population
  ZA   - Total nuclear charge
  QA   - Mulliken gross atomic charge
  VA   - Mayer's total valence
  BVA  - Mayer's bonded valence
  FA   - Mayer's free valence

  ATOM       NA         ZA         QA         VA         BVA        FA
  0 H      0.9880     1.0000     0.0120     0.9510     0.6979     0.2532
  1 H      1.0144     1.0000    -0.0144     1.0286     1.0051     0.0235
  2 H      0.9976     1.0000     0.0024     0.9507     0.5371     0.4136

  Mayer bond orders larger than 0.100000
B(  0-H ,  1-H ) :   0.5829 B(  0-H ,  2-H ) :   0.1150 B(  1-H ,  2-H ) :   0.4222 


-------
TIMINGS
-------

Total SCF time: 0 days 0 hours 0 min 0 sec 

Total time                  ....       0.713 sec
Sum of individual times     ....       0.575 sec  ( 80.6%)

Fock matrix formation       ....       0.520 sec  ( 72.8%)
  Split-RI-J                ....       0.447 sec  ( 86.1% of F)
  XC integration            ....       0.043 sec  (  8.3% of F)
    Basis function eval.    ....       0.011 sec  ( 25.4% of XC)
    Density eval.           ....       0.009 sec  ( 19.7% of XC)
    XC-Functional eval.     ....       0.014 sec  ( 32.1% of XC)
    XC-Potential eval.      ....       0.004 sec  ( 10.1% of XC)
Diagonalization             ....       0.001 sec  (  0.1%)
Density matrix formation    ....       0.000 sec  (  0.0%)
Population analysis         ....       0.002 sec  (  0.3%)
Initial guess               ....       0.002 sec  (  0.2%)
Orbital Transformation      ....       0.000 sec  (  0.0%)
Orbital Orthonormalization  ....       0.000 sec  (  0.0%)
DIIS solution               ....       0.001 sec  (  0.1%)
Grid generation             ....       0.050 sec  (  7.0%)

-------------------------   --------------------
FINAL SINGLE POINT ENERGY        -1.655111552144
-------------------------   --------------------

                                *** OPTIMIZATION RUN DONE ***

                            ***************************************
                            *     ORCA property calculations      *
                            ***************************************

                                    ---------------------
                                    Active property flags
                                    ---------------------
   (+) Dipole Moment


------------------------------------------------------------------------------
                       ORCA ELECTRIC PROPERTIES CALCULATION
------------------------------------------------------------------------------

Dipole Moment Calculation                       ... on
Quadrupole Moment Calculation                   ... off
Polarizability Calculation                      ... off
GBWName                                         ... H+H2_H2+H_scan_0_orca.gbw
Electron density file                           ... H+H2_H2+H_scan_0_orca.scfp
The origin for moment calculation is the CENTER OF MASS  = ( 0.000000,  0.000000  1.511781)

-------------
DIPOLE MOMENT
-------------
                                X             Y             Z
Electronic contribution:      0.00000      -0.00000      -0.02085
Nuclear contribution   :      0.00000       0.00000      -0.00000
                        -----------------------------------------
Total Dipole Moment    :      0.00000      -0.00000      -0.02085
                        -----------------------------------------
Magnitude (a.u.)       :      0.02085
Magnitude (Debye)      :      0.05300



--------------------
Rotational spectrum 
--------------------
 
Rotational constants in cm-1:     0.000000     9.166945     9.166945 
Rotational constants in MHz :     0.000000 274818.087119 274818.087119 

 Dipole components along the rotational axes: 
x,y,z [a.u.] :     0.020850    -0.000000    -0.000000 
x,y,z [Debye]:     0.052997    -0.000000    -0.000000 

 

Timings for individual modules:

Sum of individual times         ...       28.244 sec (=   0.471 min)
GTO integral calculation        ...        7.644 sec (=   0.127 min)  27.1 %
SCF iterations                  ...       12.839 sec (=   0.214 min)  45.5 %
SCF Gradient evaluation         ...        7.342 sec (=   0.122 min)  26.0 %
Geometry relaxation             ...        0.419 sec (=   0.007 min)   1.5 %
                             ****ORCA TERMINATED NORMALLY****
TOTAL RUN TIME: 0 days 0 hours 0 minutes 30 seconds 293 msec
