
                                 *****************
                                 * O   R   C   A *
                                 *****************

           --- An Ab Initio, DFT and Semiempirical electronic structure package ---

                  #######################################################
                  #                        -***-                        #
                  #          Department of theory and spectroscopy      #
                  #               Directorship: Frank Neese             #
                  #        Max Planck Institute fuer Kohlenforschung    #
                  #                Kaiser Wilhelm Platz 1               #
                  #                 D-45470 Muelheim/Ruhr               #
                  #                      Germany                        #
                  #                                                     #
                  #                  All rights reserved                #
                  #                        -***-                        #
                  #######################################################


                         Program Version 4.2.1 -  RELEASE  -


 With contributions from (in alphabetic order):
   Daniel Aravena         : Magnetic Suceptibility
   Michael Atanasov       : Ab Initio Ligand Field Theory (pilot matlab implementation)
   Alexander A. Auer      : GIAO ZORA, VPT2
   Ute Becker             : Parallelization
   Giovanni Bistoni       : ED, misc. LED, open-shell LED, HFLD
   Martin Brehm           : Molecular dynamics
   Dmytro Bykov           : SCF Hessian
   Vijay G. Chilkuri      : MRCI spin determinant printing, contributions to CSF-ICE
   Dipayan Datta          : RHF DLPNO-CCSD density
   Achintya Kumar Dutta   : EOM-CC, STEOM-CC
   Dmitry Ganyushin       : Spin-Orbit,Spin-Spin,Magnetic field MRCI
   Miquel Garcia          : C-PCM Hessian, Gaussian charge scheme
   Yang Guo               : DLPNO-NEVPT2, CIM, IAO-localization
   Andreas Hansen         : Spin unrestricted coupled pair/coupled cluster methods
   Benjamin Helmich-Paris : CASSCF linear response (MC-RPA)
   Lee Huntington         : MR-EOM, pCC
   Robert Izsak           : Overlap fitted RIJCOSX, COSX-SCS-MP3, EOM
   Christian Kollmar      : KDIIS, OOCD, Brueckner-CCSD(T), CCSD density
   Simone Kossmann        : Meta GGA functionals, TD-DFT gradient, OOMP2, MP2 Hessian
   Martin Krupicka        : AUTO-CI
   Lucas Lang             : DCDCAS
   Dagmar Lenk            : GEPOL surface, SMD
   Dimitrios Liakos       : Extrapolation schemes; Compound Job, initial MDCI parallelization
   Dimitrios Manganas     : Further ROCIS development; embedding schemes
   Dimitrios Pantazis     : SARC Basis sets
   Taras Petrenko         : DFT Hessian,TD-DFT gradient, ASA, ECA, R-Raman, ABS, FL, XAS/XES, NRVS
   Peter Pinski           : DLPNO-MP2, DLPNO-MP2 Gradient
   Christoph Reimann      : Effective Core Potentials
   Marius Retegan         : Local ZFS, SOC
   Christoph Riplinger    : Optimizer, TS searches, QM/MM, DLPNO-CCSD(T), (RO)-DLPNO pert. Triples
   Tobias Risthaus        : Range-separated hybrids, TD-DFT gradient, RPA, STAB
   Michael Roemelt        : Original ROCIS implementation
   Masaaki Saitow         : Open-shell DLPNO-CCSD energy and density
   Barbara Sandhoefer     : DKH picture change effects
   Avijit Sen             : IP-ROCIS
   Kantharuban Sivalingam : CASSCF convergence, NEVPT2, FIC-MRCI
   Bernardo de Souza      : ESD, SOC TD-DFT
   Georgi Stoychev        : AutoAux, RI-MP2 NMR
   Willem Van den Heuvel  : Paramagnetic NMR
   Boris Wezisla          : Elementary symmetry handling
   Frank Wennmohs         : Technical directorship


 We gratefully acknowledge several colleagues who have allowed us to
 interface, adapt or use parts of their codes:
   Stefan Grimme, W. Hujo, H. Kruse,             : VdW corrections, initial TS optimization,
                  C. Bannwarth                     DFT functionals, gCP, sTDA/sTD-DF
   Ed Valeev, F. Pavosevic, A. Kumar             : LibInt (2-el integral package), F12 methods
   Garnet Chan, S. Sharma, J. Yang, R. Olivares  : DMRG
   Ulf Ekstrom                                   : XCFun DFT Library
   Mihaly Kallay                                 : mrcc  (arbitrary order and MRCC methods)
   Andreas Klamt, Michael Diedenhofen            : otool_cosmo (COSMO solvation model)
   Jiri Pittner, Ondrej Demel                    : Mk-CCSD
   Frank Weinhold                                : gennbo (NPA and NBO analysis)
   Christopher J. Cramer and Donald G. Truhlar   : smd solvation model
   Lars Goerigk                                  : TD-DFT with DH, B97 family of functionals
   V. Asgeirsson, H. Jonsson                     : NEB implementation
   FAccTs GmbH                                   : IRC, NEB, NEB-TS, Multilevel, MM, QM/MM, CI optimization
   S Lehtola, MJT Oliveira, MAL Marques          : LibXC Library


 Your calculation uses the libint2 library for the computation of 2-el integrals
 For citations please refer to: http://libint.valeyev.net

 Your ORCA version has been built with support for libXC version: 4.2.3
 For citations please refer to: https://tddft.org/programs/libxc/

 This ORCA versions uses:
   CBLAS   interface :  Fast vector & matrix operations
   LAPACKE interface :  Fast linear algebra routines
   SCALAPACK package :  Parallel linear algebra routines


----- Orbital basis set information -----
Your calculation utilizes the basis: def2-SVP
   F. Weigend and R. Ahlrichs, Phys. Chem. Chem. Phys. 7, 3297 (2005).

----- AuxJ basis set information -----
Your calculation utilizes the auxiliary basis: def2/J
   F. Weigend, Phys. Chem. Chem. Phys. 8, 1057 (2006).

================================================================================
                                        WARNINGS
                       Please study these warnings very carefully!
================================================================================


WARNING: your system is open-shell and RHF/RKS was chosen
  ===> : WILL SWITCH to UHF/UKS


WARNING: Geometry Optimization
  ===> : Switching off AutoStart
         For restart on a previous wavefunction, please use MOREAD

INFO   : the flag for use of LIBINT has been found!

================================================================================
                                       INPUT FILE
================================================================================
NAME = H+H2_H2+H_scan_3_orca.inp
|  1> ! PBE def2-SVP Opt
|  2> %geom Constraints
|  3> { B 1 2 0.7749999999999999 C }
|  4>     end
|  5> end
|  6> %geom MaxIter 100 end
|  7> %pal nprocs 2
|  8> end
|  9> %output 
| 10> xyzfile=True 
| 11> end 
| 12> %scf 
| 13> maxiter 250 
| 14> end
| 15> % maxcore 4000
| 16> *xyz 0 2
| 17> H    0.00000001  -0.00000001  -0.23965856 
| 18> H   -0.00000002   0.00000002   0.89482928 
| 19> H    0.00000001  -0.00000001   1.74482928 
| 20> *
| 21> 
| 22>                          ****END OF INPUT****
================================================================================

                       *****************************
                       * Geometry Optimization Run *
                       *****************************

Geometry optimization settings:
Update method            Update   .... BFGS
Choice of coordinates    CoordSys .... Z-matrix Internals
Initial Hessian          InHess   .... Almoef's Model

Convergence Tolerances:
Energy Change            TolE     ....  5.0000e-06 Eh
Max. Gradient            TolMAXG  ....  3.0000e-04 Eh/bohr
RMS Gradient             TolRMSG  ....  1.0000e-04 Eh/bohr
Max. Displacement        TolMAXD  ....  4.0000e-03 bohr
RMS Displacement         TolRMSD  ....  2.0000e-03 bohr
Strict Convergence                ....  False
------------------------------------------------------------------------------
                        ORCA OPTIMIZATION COORDINATE SETUP
------------------------------------------------------------------------------

The optimization will be done in new redundant internal coordinates
Making redundant internal coordinates   ...  (new redundants) done
Evaluating the initial hessian          ...  (Almloef) done
Evaluating the coordinates              ...  done
Calculating the B-matrix                .... done
Calculating the G-matrix                .... done
Diagonalizing the G-matrix              .... done
Imposing constraints:
 Iter   0:  RMS(Cart)=    0.0385738742 RMS(Int)=    0.0000000000
 Iter   1:  RMS(Cart)=    0.0000000000 RMS(Int)=    0.0000000000
CONVERGED
The first mode is                       ....    0
The number of degrees of freedom        ....    4
Storing new coordinates                 .... done

    -----------------------------------------------------------------
                    Redundant Internal Coordinates


    -----------------------------------------------------------------
         Definition                    Initial Value    Approx d2E/dq
    -----------------------------------------------------------------
      1. B(H   1,H   0)                  1.1345         0.058546   
      2. B(H   2,H   1)                  0.7750         0.166487 C 
      3. L(H   0,H   1,H   2, 1)       180.0000         0.160840   
      4. L(H   0,H   1,H   2, 2)       180.0000         0.160840   
    -----------------------------------------------------------------

Number of atoms                         .... 3
Number of degrees of freedom            .... 4

         *************************************************************
         *                GEOMETRY OPTIMIZATION CYCLE   1            *
         *************************************************************
---------------------------------
CARTESIAN COORDINATES (ANGSTROEM)
---------------------------------
  H      0.000000   -0.000000   -0.214659
  H     -0.000000    0.000000    0.919829
  H      0.000000   -0.000000    1.694829

----------------------------
CARTESIAN COORDINATES (A.U.)
----------------------------
  NO LB      ZA    FRAG     MASS         X           Y           Z
   0 H     1.0000    0     1.008    0.000000   -0.000000   -0.405646
   1 H     1.0000    0     1.008   -0.000000    0.000000    1.738225
   2 H     1.0000    0     1.008    0.000000   -0.000000    3.202763

--------------------------------
INTERNAL COORDINATES (ANGSTROEM)
--------------------------------
 H      0   0   0     0.000000000000     0.00000000     0.00000000
 H      1   0   0     1.134487840000     0.00000000     0.00000000
 H      2   1   0     0.850000000000   179.99999510     0.00000000

---------------------------
INTERNAL COORDINATES (A.U.)
---------------------------
 H      0   0   0     0.000000000000     0.00000000     0.00000000
 H      1   0   0     2.143871319864     0.00000000     0.00000000
 H      2   1   0     1.606267213833   179.99999510     0.00000000

---------------------
BASIS SET INFORMATION
---------------------
There are 1 groups of distinct atoms

 Group   1 Type H   : 4s1p contracted to 2s1p pattern {31/1}

Atom   0H    basis set group =>   1
Atom   1H    basis set group =>   1
Atom   2H    basis set group =>   1
---------------------------------
AUXILIARY/J BASIS SET INFORMATION
---------------------------------
There are 1 groups of distinct atoms

 Group   1 Type H   : 5s2p1d contracted to 3s1p1d pattern {311/2/1}

Atom   0H    basis set group =>   1
Atom   1H    basis set group =>   1
Atom   2H    basis set group =>   1


           ************************************************************
           *        Program running with 2 parallel MPI-processes     *
           *              working on a common directory               *
           ************************************************************
------------------------------------------------------------------------------
                           ORCA GTO INTEGRAL CALCULATION
                           -- RI-GTO INTEGRALS CHOSEN --
------------------------------------------------------------------------------

                         BASIS SET STATISTICS AND STARTUP INFO

Gaussian basis set:
 # of primitive gaussian shells          ...   15
 # of primitive gaussian functions       ...   21
 # of contracted shells                  ...    9
 # of contracted basis functions         ...   15
 Highest angular momentum                ...    1
 Maximum contraction depth               ...    3
Auxiliary gaussian basis set:
 # of primitive gaussian shells          ...   24
 # of primitive gaussian functions       ...   48
 # of contracted shells                  ...   15
 # of contracted aux-basis functions     ...   33
 Highest angular momentum                ...    2
 Maximum contraction depth               ...    3
Ratio of auxiliary to basis functions    ...  2.20
Integral package used                  ... LIBINT
 One Electron integrals                  ... done
 Ordering auxiliary basis shells         ... done
 Integral threshhold             Thresh  ...  2.500e-11
 Primitive cut-off               TCut    ...  2.500e-12
 Pre-screening matrix                    ... done
 Shell pair data                         ... 
 Ordering of the shell pairs             ... done (   0.000 sec) 45 of 45 pairs
 Determination of significant pairs      ... done (   0.000 sec)
 Creation of shell pair data             ... done (   0.000 sec)
 Storage of shell pair data              ... done (   0.017 sec)
 Shell pair data done in (   0.017 sec)
 Computing two index integrals           ... done
 Cholesky decomposition of the V-matrix  ... done


Timings:
 Total evaluation time                   ...   0.170 sec (  0.003 min)
 One electron matrix time                ...   0.010 sec (  0.000 min) =  5.9%
 Schwartz matrix evaluation time         ...   0.128 sec (  0.002 min) = 75.3%
 Two index repulsion integral time       ...   0.000 sec (  0.000 min) =  0.1%
 Cholesky decomposition of V             ...   0.000 sec (  0.000 min) =  0.2%
 Three index repulsion integral time     ...   0.000 sec (  0.000 min) =  0.0%



           ************************************************************
           *        Program running with 2 parallel MPI-processes     *
           *              working on a common directory               *
           ************************************************************
-------------------------------------------------------------------------------
                                 ORCA SCF
-------------------------------------------------------------------------------

------------
SCF SETTINGS
------------
Hamiltonian:
 Density Functional     Method          .... DFT(GTOs)
 Exchange Functional    Exchange        .... PBE
   PBE kappa parameter   XKappa         ....  0.804000
   PBE mue parameter    XMuePBE         ....  0.219520
 Correlation Functional Correlation     .... PBE
   PBE beta parameter  CBetaPBE         ....  0.066725
 LDA part of GGA corr.  LDAOpt          .... PW91-LDA
 Gradients option       PostSCFGGA      .... off
   Density functional embedding theory  .... OFF
   NL short-range parameter             ....  6.400000
 RI-approximation to the Coulomb term is turned on
   Number of auxiliary basis functions  .... 33


General Settings:
 Integral files         IntName         .... H+H2_H2+H_scan_3_orca
 Hartree-Fock type      HFTyp           .... UHF
 Total Charge           Charge          ....    0
 Multiplicity           Mult            ....    2
 Number of Electrons    NEL             ....    3
 Basis Dimension        Dim             ....   15
 Nuclear Repulsion      ENuc            ....      1.4263856506 Eh

Convergence Acceleration:
 DIIS                   CNVDIIS         .... on
   Start iteration      DIISMaxIt       ....    12
   Startup error        DIISStart       ....  0.200000
   # of expansion vecs  DIISMaxEq       ....     5
   Bias factor          DIISBfac        ....   1.050
   Max. coefficient     DIISMaxC        ....  10.000
 Newton-Raphson         CNVNR           .... off
 SOSCF                  CNVSOSCF        .... off
 Level Shifting         CNVShift        .... on
   Level shift para.    LevelShift      ....    0.2500
   Turn off err/grad.   ShiftErr        ....    0.0010
 Zerner damping         CNVZerner       .... off
 Static damping         CNVDamp         .... on
   Fraction old density DampFac         ....    0.7000
   Max. Damping (<1)    DampMax         ....    0.9800
   Min. Damping (>=0)   DampMin         ....    0.0000
   Turn off err/grad.   DampErr         ....    0.1000
 Fernandez-Rico         CNVRico         .... off

SCF Procedure:
 Maximum # iterations   MaxIter         ....   250
 SCF integral mode      SCFMode         .... Direct
   Integral package                     .... LIBINT
 Reset frequency        DirectResetFreq ....    20
 Integral Threshold     Thresh          ....  2.500e-11 Eh
 Primitive CutOff       TCut            ....  2.500e-12 Eh

Convergence Tolerance:
 Convergence Check Mode ConvCheckMode   .... Total+1el-Energy
 Convergence forced     ConvForced      .... 0
 Energy Change          TolE            ....  1.000e-08 Eh
 1-El. energy change                    ....  1.000e-05 Eh
 DIIS Error             TolErr          ....  5.000e-07


Diagonalization of the overlap matrix:
Smallest eigenvalue                        ... 2.687e-02
Time for diagonalization                   ...    0.001 sec
Threshold for overlap eigenvalues          ... 1.000e-08
Number of eigenvalues below threshold      ... 0
Time for construction of square roots      ...    0.001 sec
Total time needed                          ...    0.001 sec

-------------------
DFT GRID GENERATION
-------------------

General Integration Accuracy     IntAcc      ...  4.340
Radial Grid Type                 RadialGrid  ... Gauss-Chebyshev
Angular Grid (max. acc.)         AngularGrid ... Lebedev-110
Angular grid pruning method      GridPruning ... 3 (G Style)
Weight generation scheme         WeightScheme... Becke
Basis function cutoff            BFCut       ...    1.0000e-11
Integration weight cutoff        WCut        ...    1.0000e-14
Grids for H and He will be reduced by one unit

# of grid points (after initial pruning)     ...   2382 (   0.0 sec)
# of grid points (after weights+screening)   ...   2338 (   0.0 sec)
nearest neighbour list constructed           ...    0.0 sec
Grid point re-assignment to atoms done       ...    0.0 sec
Grid point division into batches done        ...    0.0 sec
Reduced shell lists constructed in    0.0 sec

Total number of grid points                  ...     2338
Total number of batches                      ...       39
Average number of points per batch           ...       59
Average number of grid points per atom       ...      779
Average number of shells per batch           ...     8.57 (95.24%)
Average number of basis functions per batch  ...    14.29 (95.24%)
Average number of large shells per batch     ...     8.52 (99.44%)
Average number of large basis fcns per batch ...    14.14 (99.00%)
Maximum spatial batch extension              ...  17.62, 21.59, 14.04 au
Average spatial batch extension              ...   2.92,  3.62,  2.13 au

Time for grid setup =    0.010 sec

------------------------------
INITIAL GUESS: MODEL POTENTIAL
------------------------------
Loading Hartree-Fock densities                     ... done
Calculating cut-offs                               ... done
Setting up the integral package                    ... done
Initializing the effective Hamiltonian             ... done
Starting the Coulomb interaction                   ... done (   0.0 sec)
Reading the grid                                   ... done
Mapping shells                                     ... done
Starting the XC term evaluation                    ... done (   0.0 sec)
  promolecular density results
     # of electrons  =      2.993515383
     EX              =     -0.835621257
     EC              =     -0.064902568
     EX+EC           =     -0.900523825
Transforming the Hamiltonian                       ... done (   0.0 sec)
Diagonalizing the Hamiltonian                      ... done (   0.0 sec)
Back transforming the eigenvectors                 ... done (   0.0 sec)
Now organizing SCF variables                       ... done
                      ------------------
                      INITIAL GUESS DONE (   0.1 sec)
                      ------------------
--------------
SCF ITERATIONS
--------------
ITER       Energy         Delta-E        Max-DP      RMS-DP      [F,P]     Damp
               ***  Starting incremental Fock matrix formation  ***
  0     -1.6478011756   0.000000000000 0.01019265  0.00128270  0.0410702 0.7000
  1     -1.6493689364  -0.001567760822 0.01027002  0.00128705  0.0281913 0.7000
                               ***Turning on DIIS***
  2     -1.6504165520  -0.001047615584 0.02786954  0.00326665  0.0174291 0.0000
  3     -1.6525174442  -0.002100892198 0.00468514  0.00049013  0.0099742 0.0000
  4     -1.6526957981  -0.000178353920 0.00264631  0.00026685  0.0033685 0.0000
  5     -1.6527286929  -0.000032894740 0.00106846  0.00013410  0.0012527 0.0000
  6     -1.6527354388  -0.000006745871 0.00067231  0.00008388  0.0004976 0.0000
  7     -1.6527366983  -0.000001259537 0.00013735  0.00001543  0.0000400 0.0000
  8     -1.6527367322  -0.000000033930 0.00003170  0.00000356  0.0000160 0.0000
                 **** Energy Check signals convergence ****

               *****************************************************
               *                     SUCCESS                       *
               *           SCF CONVERGED AFTER   9 CYCLES          *
               *****************************************************

Setting up the final grid:

General Integration Accuracy     IntAcc      ...  4.670
Radial Grid Type                 RadialGrid  ... Gauss-Chebyshev
Angular Grid (max. acc.)         AngularGrid ... Lebedev-302
Angular grid pruning method      GridPruning ... 3 (G Style)
Weight generation scheme         WeightScheme... Becke
Basis function cutoff            BFCut       ...    1.0000e-11
Integration weight cutoff        WCut        ...    1.0000e-14
Grids for H and He will be reduced by one unit

# of grid points (after initial pruning)     ...  10182 (   0.0 sec)
# of grid points (after weights+screening)   ...  10066 (   0.0 sec)
nearest neighbour list constructed           ...    0.0 sec
Grid point re-assignment to atoms done       ...    0.0 sec
Grid point division into batches done        ...    0.0 sec
Reduced shell lists constructed in    0.0 sec

Total number of grid points                  ...    10066
Total number of batches                      ...      159
Average number of points per batch           ...       63
Average number of grid points per atom       ...     3355
Average number of shells per batch           ...     8.25 (91.63%)
Average number of basis functions per batch  ...    13.46 (89.71%)
Average number of large shells per batch     ...     8.00 (97.01%)
Average number of large basis fcns per batch ...    12.94 (96.15%)
Maximum spatial batch extension              ...  15.43, 15.43, 12.21 au
Average spatial batch extension              ...   2.04,  1.94,  1.36 au

Final grid set up in    0.0 sec
Final integration                            ... done (   0.0 sec)
Change in XC energy                          ...    -0.000219350
Integrated number of electrons               ...     3.000001568
Previous integrated no of electrons          ...     2.997232079

----------------
TOTAL SCF ENERGY
----------------

Total Energy       :           -1.65295609 Eh             -44.97922 eV

Components:
Nuclear Repulsion  :            1.42638565 Eh              38.81393 eV
Electronic Energy  :           -3.07934174 Eh             -83.79315 eV
One Electron Energy:           -4.36050265 Eh            -118.65531 eV
Two Electron Energy:            1.28116091 Eh              34.86216 eV

Virial components:
Potential Energy   :           -3.28029721 Eh             -89.26142 eV
Kinetic Energy     :            1.62734112 Eh              44.28220 eV
Virial Ratio       :            2.01574038


DFT components:
N(Alpha)           :        2.000001400713 electrons
N(Beta)            :        1.000000167066 electrons
N(Total)           :        3.000001567779 electrons
E(X)               :       -0.948648646801 Eh       
E(C)               :       -0.061193379697 Eh       
E(XC)              :       -1.009842026498 Eh       
DFET-embed. en.    :        0.000000000000 Eh       

---------------
SCF CONVERGENCE
---------------

  Last Energy change         ...   -3.2994e-09  Tolerance :   1.0000e-08
  Last MAX-Density change    ...    1.3222e-05  Tolerance :   1.0000e-07
  Last RMS-Density change    ...    1.5712e-06  Tolerance :   5.0000e-09
  Last DIIS Error            ...    2.9148e-06  Tolerance :   5.0000e-07

             **** THE GBW FILE WAS UPDATED (H+H2_H2+H_scan_3_orca.gbw) ****
             **** DENSITY FILE WAS UPDATED (H+H2_H2+H_scan_3_orca.scfp) ****
             **** ENERGY FILE WAS UPDATED (H+H2_H2+H_scan_3_orca.en.tmp) ****
----------------------
UHF SPIN CONTAMINATION
----------------------

Warning: in a DFT calculation there is little theoretical justification to 
         calculate <S**2> as in Hartree-Fock theory. We will do it anyways
         but you should keep in mind that the values have only limited relevance

Expectation value of <S**2>     :     0.754350
Ideal value S*(S+1) for S=0.5   :     0.750000
Deviation                       :     0.004350

             **** THE GBW FILE WAS UPDATED (H+H2_H2+H_scan_3_orca.gbw) ****
             **** DENSITY FILE WAS UPDATED (H+H2_H2+H_scan_3_orca.scfp) ****
----------------
ORBITAL ENERGIES
----------------
                 SPIN UP ORBITALS
  NO   OCC          E(Eh)            E(eV) 
   0   1.0000      -0.444060       -12.0835 
   1   1.0000      -0.224396        -6.1061 
   2   0.0000       0.096356         2.6220 
   3   0.0000       0.367970        10.0130 
   4   0.0000       0.396922        10.8008 
   5   0.0000       0.673563        18.3286 
   6   0.0000       1.017530        27.6884 
   7   0.0000       1.017530        27.6884 
   8   0.0000       1.304675        35.5020 
   9   0.0000       1.304675        35.5020 
  10   0.0000       1.423927        38.7470 
  11   0.0000       1.943779        52.8929 
  12   0.0000       1.943779        52.8929 
  13   0.0000       2.300348        62.5957 
  14   0.0000       3.622143        98.5635 

                 SPIN DOWN ORBITALS
  NO   OCC          E(Eh)            E(eV) 
   0   1.0000      -0.408562       -11.1175 
   1   0.0000      -0.113477        -3.0879 
   2   0.0000       0.136485         3.7139 
   3   0.0000       0.393614        10.7108 
   4   0.0000       0.494699        13.4614 
   5   0.0000       0.717614        19.5273 
   6   0.0000       1.052168        28.6309 
   7   0.0000       1.052168        28.6309 
   8   0.0000       1.429628        38.9021 
   9   0.0000       1.429628        38.9021 
  10   0.0000       1.520185        41.3663 
  11   0.0000       1.986675        54.0602 
  12   0.0000       1.986675        54.0602 
  13   0.0000       2.381366        64.8003 
  14   0.0000       3.669049        99.8399 

                    ********************************
                    * MULLIKEN POPULATION ANALYSIS *
                    ********************************

--------------------------------------------
MULLIKEN ATOMIC CHARGES AND SPIN POPULATIONS
--------------------------------------------
   0 H :   -0.011901    0.804150
   1 H :   -0.007553   -0.106706
   2 H :    0.019454    0.302555
Sum of atomic charges         :   -0.0000000
Sum of atomic spin populations:    1.0000000

-----------------------------------------------------
MULLIKEN REDUCED ORBITAL CHARGES AND SPIN POPULATIONS
-----------------------------------------------------
CHARGE
  0 H s       :     1.005785  s :     1.005785
      pz      :     0.006115  p :     0.006115
      px      :     0.000000
      py      :     0.000000
  1 H s       :     0.992554  s :     0.992554
      pz      :     0.014999  p :     0.014999
      px      :     0.000000
      py      :     0.000000
  2 H s       :     0.970095  s :     0.970095
      pz      :     0.010451  p :     0.010451
      px      :     0.000000
      py      :     0.000000

SPIN
  0 H s       :     0.804070  s :     0.804070
      pz      :     0.000080  p :     0.000080
      px      :     0.000000
      py      :     0.000000
  1 H s       :    -0.121339  s :    -0.121339
      pz      :     0.014634  p :     0.014634
      px      :    -0.000000
      py      :    -0.000000
  2 H s       :     0.304792  s :     0.304792
      pz      :    -0.002237  p :    -0.002237
      px      :     0.000000
      py      :     0.000000


                     *******************************
                     * LOEWDIN POPULATION ANALYSIS *
                     *******************************

-------------------------------------------
LOEWDIN ATOMIC CHARGES AND SPIN POPULATIONS
-------------------------------------------
   0 H :   -0.001400    0.725471
   1 H :   -0.006556    0.035095
   2 H :    0.007956    0.239434

----------------------------------------------------
LOEWDIN REDUCED ORBITAL CHARGES AND SPIN POPULATIONS
----------------------------------------------------
CHARGE
  0 H s       :     0.978908  s :     0.978908
      pz      :     0.022492  p :     0.022492
      px      :     0.000000
      py      :     0.000000
  1 H s       :     0.923801  s :     0.923801
      pz      :     0.082755  p :     0.082755
      px      :     0.000000
      py      :     0.000000
  2 H s       :     0.959870  s :     0.959870
      pz      :     0.032174  p :     0.032174
      px      :     0.000000
      py      :     0.000000

SPIN
  0 H s       :     0.723760  s :     0.723760
      pz      :     0.001711  p :     0.001711
      px      :    -0.000000
      py      :    -0.000000
  1 H s       :    -0.041369  s :    -0.041369
      pz      :     0.076464  p :     0.076464
      px      :     0.000000
      py      :     0.000000
  2 H s       :     0.243011  s :     0.243011
      pz      :    -0.003577  p :    -0.003577
      px      :    -0.000000
      py      :    -0.000000


                      *****************************
                      * MAYER POPULATION ANALYSIS *
                      *****************************

  NA   - Mulliken gross atomic population
  ZA   - Total nuclear charge
  QA   - Mulliken gross atomic charge
  VA   - Mayer's total valence
  BVA  - Mayer's bonded valence
  FA   - Mayer's free valence

  ATOM       NA         ZA         QA         VA         BVA        FA
  0 H      1.0119     1.0000    -0.0119     0.9572     0.3038     0.6533
  1 H      1.0076     1.0000    -0.0076     1.0211     1.0063     0.0147
  2 H      0.9805     1.0000     0.0195     0.9562     0.8651     0.0911

  Mayer bond orders larger than 0.100000
B(  0-H ,  1-H ) :   0.2225 B(  1-H ,  2-H ) :   0.7838 

-------
TIMINGS
-------

Total SCF time: 0 days 0 hours 0 min 1 sec 

Total time                  ....       1.072 sec
Sum of individual times     ....       0.987 sec  ( 92.0%)

Fock matrix formation       ....       0.801 sec  ( 74.7%)
  Split-RI-J                ....       0.720 sec  ( 89.9% of F)
  XC integration            ....       0.070 sec  (  8.7% of F)
    Basis function eval.    ....       0.019 sec  ( 27.5% of XC)
    Density eval.           ....       0.014 sec  ( 20.1% of XC)
    XC-Functional eval.     ....       0.022 sec  ( 31.2% of XC)
    XC-Potential eval.      ....       0.007 sec  ( 10.2% of XC)
Diagonalization             ....       0.002 sec  (  0.2%)
Density matrix formation    ....       0.000 sec  (  0.0%)
Population analysis         ....       0.002 sec  (  0.2%)
Initial guess               ....       0.131 sec  ( 12.2%)
Orbital Transformation      ....       0.000 sec  (  0.0%)
Orbital Orthonormalization  ....       0.000 sec  (  0.0%)
DIIS solution               ....       0.002 sec  (  0.2%)
Grid generation             ....       0.049 sec  (  4.6%)

-------------------------   --------------------
FINAL SINGLE POINT ENERGY        -1.652956085396
-------------------------   --------------------



           ************************************************************
           *        Program running with 2 parallel MPI-processes     *
           *              working on a common directory               *
           ************************************************************
------------------------------------------------------------------------------
                         ORCA SCF GRADIENT CALCULATION
------------------------------------------------------------------------------

Gradient of the Kohn-Sham DFT energy:
Kohn-Sham wavefunction type      ... UKS
Hartree-Fock exchange scaling    ...    0.000
Number of operators              ...    2
Number of atoms                  ...    3
Basis set dimensions             ...   15
Integral neglect threshold       ... 2.5e-11
Integral primitive cutoff        ... 2.5e-12

Nuclear repulsion gradient       ... done
One Electron Gradient            ... done
Pre-screening matrix             ... done
RI-J gradient                    ... done
Exchange-correlation gradient    ... done

------------------
CARTESIAN GRADIENT
------------------

   1   H   :    0.000000000   -0.000000000    0.008368743
   2   H   :    0.000000001   -0.000000001    0.024951194
   3   H   :   -0.000000001    0.000000001   -0.033319937

Difference to translation invariance:
           :   -0.0000000000    0.0000000000   -0.0000000000

Norm of the cartesian gradient     ...    0.0424595818
RMS gradient                       ...    0.0141531939
MAX gradient                       ...    0.0333199365

-------
TIMINGS
-------

Total SCF gradient time            ...        0.268 sec

One electron gradient       ....       0.002 sec  (  0.8%)
Prescreening matrices       ....       0.000 sec  (  0.0%)
RI-J Coulomb gradient       ....       0.064 sec  ( 24.0%)
XC gradient                 ....       0.052 sec  ( 19.6%)
------------------------------------------------------------------------------
                         ORCA GEOMETRY RELAXATION STEP
------------------------------------------------------------------------------

Reading the OPT-File                    .... done
Getting information on internals        .... done
Copying old internal coords+grads       .... done
Making the new internal coordinates     .... (new redundants).... done
Validating the new internal coordinates .... (new redundants).... done
Calculating the B-matrix                .... done
Calculating the G,G- and P matrices     .... done
Transforming gradient to internals      .... done
Projecting the internal gradient        .... done
Number of atoms                         ....   3
Number of internal coordinates          ....   4
Current Energy                          ....    -1.652956085 Eh
Current gradient norm                   ....     0.042459582 Eh/bohr
Maximum allowed component of the step   ....  0.300
Current trust radius                    ....  0.300
Evaluating the initial hessian          ....  (Almloef) done
Projecting the Hessian                  .... done
Forming the augmented Hessian           .... done
Diagonalizing the augmented Hessian     .... done
Last element of RFO vector              ....  0.990323345
Lowest eigenvalues of augmented Hessian:
 -0.001172756  0.059719038  0.165462145  0.165462145
Length of the computed step             ....  0.140135260
The final length of the internal step   ....  0.140135260
Converting the step to cartesian space:
 Initial RMS(Int)=    0.0700676298
Transforming coordinates:
 Iter   0:  RMS(Cart)=    0.0381399868 RMS(Int)=    0.0700676298
 Iter   1:  RMS(Cart)=    0.0000000006 RMS(Int)=    0.0000000040
Imposing constraints:
 Iter   0:  RMS(Cart)=    0.0000000000 RMS(Int)=    0.0000000000
CONVERGED
done
Storing new coordinates                 .... done

                                .--------------------.
          ----------------------|Geometry convergence|-------------------------
          Item                value                   Tolerance       Converged
          ---------------------------------------------------------------------
          RMS gradient        0.0041843715            0.0001000000      NO
          MAX gradient        0.0083687429            0.0003000000      NO
          RMS step            0.0700676298            0.0020000000      NO
          MAX step            0.1401352597            0.0040000000      NO
          ........................................................
          Max(Bonds)      0.0742      Max(Angles)    0.00
          Max(Dihed)        0.00      Max(Improp)    0.00
          ---------------------------------------------------------------------

The optimization has not yet converged - more geometry cycles are needed


    ---------------------------------------------------------------------------
                         Redundant Internal Coordinates
                            (Angstroem and degrees)

        Definition                    Value    dE/dq     Step     New-Value
    ----------------------------------------------------------------------------
     1. B(H   1,H   0)                1.1345 -0.008369  0.0742    1.2086   
     2. B(H   2,H   1)                0.7750 -0.033320  0.0000    0.7750 C 
     3. L(H   0,H   1,H   2, 1)       180.00 -0.000000    0.00    180.00   
     4. L(H   0,H   1,H   2, 2)       180.00 -0.000000    0.00    180.00   
    ----------------------------------------------------------------------------

         *************************************************************
         *                GEOMETRY OPTIMIZATION CYCLE   2            *
         *************************************************************
---------------------------------
CARTESIAN COORDINATES (ANGSTROEM)
---------------------------------
  H      0.000000   -0.000000   -0.264096
  H     -0.000000    0.000000    0.944548
  H      0.000000   -0.000000    1.719548

----------------------------
CARTESIAN COORDINATES (A.U.)
----------------------------
  NO LB      ZA    FRAG     MASS         X           Y           Z
   0 H     1.0000    0     1.008    0.000000   -0.000000   -0.499069
   1 H     1.0000    0     1.008   -0.000000    0.000000    1.784937
   2 H     1.0000    0     1.008    0.000000   -0.000000    3.249475

--------------------------------
INTERNAL COORDINATES (ANGSTROEM)
--------------------------------
 H      0   0   0     0.000000000000     0.00000000     0.00000000
 H      1   0   0     1.208644225507     0.00000000     0.00000000
 H      2   1   0     0.774999997995   179.99999517     0.00000000

---------------------------
INTERNAL COORDINATES (A.U.)
---------------------------
 H      0   0   0     0.000000000000     0.00000000     0.00000000
 H      1   0   0     2.284006579554     0.00000000     0.00000000
 H      2   1   0     1.464537750000   179.99999517     0.00000000



           ************************************************************
           *        Program running with 2 parallel MPI-processes     *
           *              working on a common directory               *
           ************************************************************
 One Electron integrals                  ... done
 Pre-screening matrix                    ... done


           ************************************************************
           *        Program running with 2 parallel MPI-processes     *
           *              working on a common directory               *
           ************************************************************

Diagonalization of the overlap matrix:
Smallest eigenvalue                        ... 2.930e-02
Time for diagonalization                   ...    0.001 sec
Threshold for overlap eigenvalues          ... 1.000e-08
Number of eigenvalues below threshold      ... 0
Time for construction of square roots      ...    0.000 sec
Total time needed                          ...    0.001 sec

-------------------
DFT GRID GENERATION
-------------------

General Integration Accuracy     IntAcc      ...  4.340
Radial Grid Type                 RadialGrid  ... Gauss-Chebyshev
Angular Grid (max. acc.)         AngularGrid ... Lebedev-110
Angular grid pruning method      GridPruning ... 3 (G Style)
Weight generation scheme         WeightScheme... Becke
Basis function cutoff            BFCut       ...    1.0000e-11
Integration weight cutoff        WCut        ...    1.0000e-14
Grids for H and He will be reduced by one unit

# of grid points (after initial pruning)     ...   2382 (   0.0 sec)
# of grid points (after weights+screening)   ...   2338 (   0.0 sec)
nearest neighbour list constructed           ...    0.0 sec
Grid point re-assignment to atoms done       ...    0.0 sec
Grid point division into batches done        ...    0.0 sec
Reduced shell lists constructed in    0.0 sec

Total number of grid points                  ...     2338
Total number of batches                      ...       38
Average number of points per batch           ...       61
Average number of grid points per atom       ...      779
Average number of shells per batch           ...     8.55 (95.00%)
Average number of basis functions per batch  ...    14.25 (95.00%)
Average number of large shells per batch     ...     8.50 (99.42%)
Average number of large basis fcns per batch ...    14.10 (98.95%)
Maximum spatial batch extension              ...  17.62, 21.59, 14.04 au
Average spatial batch extension              ...   3.02,  3.48,  2.19 au

Time for grid setup =    0.009 sec

--------------
SCF ITERATIONS
--------------
ITER       Energy         Delta-E        Max-DP      RMS-DP      [F,P]     Damp
               ***  Starting incremental Fock matrix formation  ***
  0     -1.6535031012   0.000000000000 0.00331519  0.00026918  0.0120788 0.7000
  1     -1.6536143994  -0.000111298198 0.00319839  0.00027389  0.0098487 0.7000
                               ***Turning on DIIS***
  2     -1.6537078005  -0.000093401083 0.00844775  0.00080856  0.0075559 0.0000
  3     -1.6539518146  -0.000244014072 0.00214712  0.00026696  0.0014288 0.0000
  4     -1.6539645724  -0.000012757784 0.00207117  0.00025256  0.0009727 0.0000
  5     -1.6539696745  -0.000005102126 0.00047080  0.00005239  0.0002333 0.0000
  6     -1.6539698767  -0.000000202166 0.00004200  0.00000465  0.0000330 0.0000
                 **** Energy Check signals convergence ****

               *****************************************************
               *                     SUCCESS                       *
               *           SCF CONVERGED AFTER   7 CYCLES          *
               *****************************************************

Setting up the final grid:

General Integration Accuracy     IntAcc      ...  4.670
Radial Grid Type                 RadialGrid  ... Gauss-Chebyshev
Angular Grid (max. acc.)         AngularGrid ... Lebedev-302
Angular grid pruning method      GridPruning ... 3 (G Style)
Weight generation scheme         WeightScheme... Becke
Basis function cutoff            BFCut       ...    1.0000e-11
Integration weight cutoff        WCut        ...    1.0000e-14
Grids for H and He will be reduced by one unit

# of grid points (after initial pruning)     ...  10182 (   0.0 sec)
# of grid points (after weights+screening)   ...  10070 (   0.0 sec)
nearest neighbour list constructed           ...    0.0 sec
Grid point re-assignment to atoms done       ...    0.0 sec
Grid point division into batches done        ...    0.0 sec
Reduced shell lists constructed in    0.0 sec

Total number of grid points                  ...    10070
Total number of batches                      ...      159
Average number of points per batch           ...       63
Average number of grid points per atom       ...     3357
Average number of shells per batch           ...     8.25 (91.63%)
Average number of basis functions per batch  ...    13.46 (89.71%)
Average number of large shells per batch     ...     7.98 (96.71%)
Average number of large basis fcns per batch ...    12.86 (95.60%)
Maximum spatial batch extension              ...  16.09, 16.09, 12.26 au
Average spatial batch extension              ...   2.01,  1.92,  1.37 au

Final grid set up in    0.0 sec
Final integration                            ... done (   0.0 sec)
Change in XC energy                          ...    -0.000002548
Integrated number of electrons               ...     3.000001875
Previous integrated no of electrons          ...     2.998201761
Total Energy       :           -1.65397243 Eh             -45.00688 eV
  Last Energy change         ...   -5.6877e-09  Tolerance :   1.0000e-08
  Last MAX-Density change    ...    1.1466e-05  Tolerance :   1.0000e-07
             **** THE GBW FILE WAS UPDATED (H+H2_H2+H_scan_3_orca.gbw) ****
             **** DENSITY FILE WAS UPDATED (H+H2_H2+H_scan_3_orca.scfp) ****
             **** ENERGY FILE WAS UPDATED (H+H2_H2+H_scan_3_orca.en.tmp) ****
----------------------
UHF SPIN CONTAMINATION
----------------------

Warning: in a DFT calculation there is little theoretical justification to 
         calculate <S**2> as in Hartree-Fock theory. We will do it anyways
         but you should keep in mind that the values have only limited relevance

Expectation value of <S**2>     :     0.753922
Ideal value S*(S+1) for S=0.5   :     0.750000
Deviation                       :     0.003922

             **** THE GBW FILE WAS UPDATED (H+H2_H2+H_scan_3_orca.gbw) ****
             **** DENSITY FILE WAS UPDATED (H+H2_H2+H_scan_3_orca.scfp) ****
Total SCF time: 0 days 0 hours 0 min 1 sec 

-------------------------   --------------------
FINAL SINGLE POINT ENERGY        -1.653972429856
-------------------------   --------------------



           ************************************************************
           *        Program running with 2 parallel MPI-processes     *
           *              working on a common directory               *
           ************************************************************
------------------------------------------------------------------------------
                         ORCA SCF GRADIENT CALCULATION
------------------------------------------------------------------------------

Gradient of the Kohn-Sham DFT energy:
Kohn-Sham wavefunction type      ... UKS
Hartree-Fock exchange scaling    ...    0.000
Number of operators              ...    2
Number of atoms                  ...    3
Basis set dimensions             ...   15
Integral neglect threshold       ... 2.5e-11
Integral primitive cutoff        ... 2.5e-12

Nuclear repulsion gradient       ... done
One Electron Gradient            ... done
Pre-screening matrix             ... done
RI-J gradient                    ... done
Exchange-correlation gradient    ... done

------------------
CARTESIAN GRADIENT
------------------

   1   H   :    0.000000000   -0.000000000    0.005899617
   2   H   :    0.000000000   -0.000000000    0.020132104
   3   H   :   -0.000000000    0.000000001   -0.026031721

Difference to translation invariance:
           :   -0.0000000000   -0.0000000000    0.0000000000

Norm of the cartesian gradient     ...    0.0334328814
RMS gradient                       ...    0.0111442938
MAX gradient                       ...    0.0260317206

-------
TIMINGS
-------

Total SCF gradient time            ...        0.271 sec

One electron gradient       ....       0.002 sec  (  0.9%)
Prescreening matrices       ....       0.000 sec  (  0.1%)
RI-J Coulomb gradient       ....       0.065 sec  ( 23.9%)
XC gradient                 ....       0.052 sec  ( 19.1%)
------------------------------------------------------------------------------
                         ORCA GEOMETRY RELAXATION STEP
------------------------------------------------------------------------------

Reading the OPT-File                    .... done
Getting information on internals        .... done
Copying old internal coords+grads       .... done
Making the new internal coordinates     .... (new redundants).... done
Validating the new internal coordinates .... (new redundants).... done
Calculating the B-matrix                .... done
Calculating the G,G- and P matrices     .... done
Transforming gradient to internals      .... done
Projecting the internal gradient        .... done
Number of atoms                         ....   3
Number of internal coordinates          ....   4
Current Energy                          ....    -1.653972430 Eh
Current gradient norm                   ....     0.033432881 Eh/bohr
Maximum allowed component of the step   ....  0.300
Current trust radius                    ....  0.300
Updating the Hessian (BFGS)             .... done
Forming the augmented Hessian           .... done
Diagonalizing the augmented Hessian     .... done
Last element of RFO vector              ....  0.956791120
Lowest eigenvalues of augmented Hessian:
 -0.001792938  0.019412532  0.165462145  0.165462145
Length of the computed step             ....  0.303907629
Warning: the length of the step is outside the trust region - taking restricted step instead
The input lambda is                     ....    -0.001793
   iter:   1  x=   -0.002041  g=    9.515487 f(x)=     0.002360
   iter:   2  x=   -0.002046  g=    9.159921 f(x)=     0.000044
   iter:   3  x=   -0.002046  g=    9.153140 f(x)=     0.000000
   iter:   4  x=   -0.002046  g=    9.153137 f(x)=     0.000000
The output lambda is                    ....    -0.002046 (4 iterations)
The final length of the internal step   ....  0.300000000
Converting the step to cartesian space:
 Initial RMS(Int)=    0.1500000000
Transforming coordinates:
 Iter   0:  RMS(Cart)=    0.0544331054 RMS(Int)=    0.1000000000
 Iter   1:  RMS(Cart)=    0.0272165527 RMS(Int)=    0.0500000000
 Iter   2:  RMS(Cart)=    0.0000000001 RMS(Int)=    0.0000000026
Imposing constraints:
 Iter   0:  RMS(Cart)=    0.0000000000 RMS(Int)=    0.0000000000
CONVERGED
done
Storing new coordinates                 .... done

                                .--------------------.
          ----------------------|Geometry convergence|-------------------------
          Item                value                   Tolerance       Converged
          ---------------------------------------------------------------------
          Energy change      -0.0010163445            0.0000050000      NO
          RMS gradient        0.0029498083            0.0001000000      NO
          MAX gradient        0.0058996166            0.0003000000      NO
          RMS step            0.1500000000            0.0020000000      NO
          MAX step            0.3000000000            0.0040000000      NO
          ........................................................
          Max(Bonds)      0.1588      Max(Angles)    0.00
          Max(Dihed)        0.00      Max(Improp)    0.00
          ---------------------------------------------------------------------

The optimization has not yet converged - more geometry cycles are needed


    ---------------------------------------------------------------------------
                         Redundant Internal Coordinates
                            (Angstroem and degrees)

        Definition                    Value    dE/dq     Step     New-Value
    ----------------------------------------------------------------------------
     1. B(H   1,H   0)                1.2086 -0.005900  0.1588    1.3674   
     2. B(H   2,H   1)                0.7750 -0.026032  0.0000    0.7750 C 
     3. L(H   0,H   1,H   2, 1)       180.00 -0.000000    0.00    180.00   
     4. L(H   0,H   1,H   2, 2)       180.00 -0.000000    0.00    180.00   
    ----------------------------------------------------------------------------

         *************************************************************
         *                GEOMETRY OPTIMIZATION CYCLE   3            *
         *************************************************************
---------------------------------
CARTESIAN COORDINATES (ANGSTROEM)
---------------------------------
  H      0.000000   -0.000000   -0.369932
  H     -0.000000    0.000000    0.997466
  H      0.000000   -0.000000    1.772466

----------------------------
CARTESIAN COORDINATES (A.U.)
----------------------------
  NO LB      ZA    FRAG     MASS         X           Y           Z
   0 H     1.0000    0     1.008    0.000000   -0.000000   -0.699069
   1 H     1.0000    0     1.008   -0.000000    0.000000    1.884937
   2 H     1.0000    0     1.008    0.000000   -0.000000    3.349475

--------------------------------
INTERNAL COORDINATES (ANGSTROEM)
--------------------------------
 H      0   0   0     0.000000000000     0.00000000     0.00000000
 H      1   0   0     1.367397387997     0.00000000     0.00000000
 H      2   1   0     0.774999997995   179.99999495     0.00000000

---------------------------
INTERNAL COORDINATES (A.U.)
---------------------------
 H      0   0   0     0.000000000000     0.00000000     0.00000000
 H      1   0   0     2.584006579554     0.00000000     0.00000000
 H      2   1   0     1.464537750000   179.99999495     0.00000000



           ************************************************************
           *        Program running with 2 parallel MPI-processes     *
           *              working on a common directory               *
           ************************************************************
 One Electron integrals                  ... done
 Pre-screening matrix                    ... done


           ************************************************************
           *        Program running with 2 parallel MPI-processes     *
           *              working on a common directory               *
           ************************************************************

Diagonalization of the overlap matrix:
Smallest eigenvalue                        ... 3.440e-02
Time for diagonalization                   ...    0.001 sec
Threshold for overlap eigenvalues          ... 1.000e-08
Number of eigenvalues below threshold      ... 0
Time for construction of square roots      ...    0.000 sec
Total time needed                          ...    0.001 sec

-------------------
DFT GRID GENERATION
-------------------

General Integration Accuracy     IntAcc      ...  4.340
Radial Grid Type                 RadialGrid  ... Gauss-Chebyshev
Angular Grid (max. acc.)         AngularGrid ... Lebedev-110
Angular grid pruning method      GridPruning ... 3 (G Style)
Weight generation scheme         WeightScheme... Becke
Basis function cutoff            BFCut       ...    1.0000e-11
Integration weight cutoff        WCut        ...    1.0000e-14
Grids for H and He will be reduced by one unit

# of grid points (after initial pruning)     ...   2382 (   0.0 sec)
# of grid points (after weights+screening)   ...   2340 (   0.0 sec)
nearest neighbour list constructed           ...    0.0 sec
Grid point re-assignment to atoms done       ...    0.0 sec
Grid point division into batches done        ...    0.0 sec
Reduced shell lists constructed in    0.0 sec

Total number of grid points                  ...     2340
Total number of batches                      ...       38
Average number of points per batch           ...       61
Average number of grid points per atom       ...      780
Average number of shells per batch           ...     8.55 (95.00%)
Average number of basis functions per batch  ...    14.25 (95.00%)
Average number of large shells per batch     ...     8.50 (99.42%)
Average number of large basis fcns per batch ...    14.10 (98.95%)
Maximum spatial batch extension              ...  17.62, 21.59, 14.04 au
Average spatial batch extension              ...   3.44,  3.52,  2.24 au

Time for grid setup =    0.009 sec

--------------
SCF ITERATIONS
--------------
ITER       Energy         Delta-E        Max-DP      RMS-DP      [F,P]     Damp
               ***  Starting incremental Fock matrix formation  ***
  0     -1.6541092443   0.000000000000 0.00632556  0.00048791  0.0219951 0.7000
  1     -1.6544865269  -0.000377282672 0.00606697  0.00048580  0.0180320 0.7000
                               ***Turning on DIIS***
  2     -1.6548047840  -0.000318257108 0.01596478  0.00139487  0.0139341 0.0000
  3     -1.6556423943  -0.000837610236 0.00362537  0.00043374  0.0029207 0.0000
  4     -1.6556870616  -0.000044667308 0.00163361  0.00022387  0.0018003 0.0000
  5     -1.6557009315  -0.000013869959 0.00198515  0.00025125  0.0009032 0.0000
  6     -1.6557062481  -0.000005316553 0.00016239  0.00001823  0.0001140 0.0000
  7     -1.6557062783  -0.000000030162 0.00002016  0.00000206  0.0000173 0.0000
                 **** Energy Check signals convergence ****

               *****************************************************
               *                     SUCCESS                       *
               *           SCF CONVERGED AFTER   8 CYCLES          *
               *****************************************************

Setting up the final grid:

General Integration Accuracy     IntAcc      ...  4.670
Radial Grid Type                 RadialGrid  ... Gauss-Chebyshev
Angular Grid (max. acc.)         AngularGrid ... Lebedev-302
Angular grid pruning method      GridPruning ... 3 (G Style)
Weight generation scheme         WeightScheme... Becke
Basis function cutoff            BFCut       ...    1.0000e-11
Integration weight cutoff        WCut        ...    1.0000e-14
Grids for H and He will be reduced by one unit

# of grid points (after initial pruning)     ...  10182 (   0.0 sec)
# of grid points (after weights+screening)   ...  10072 (   0.0 sec)
nearest neighbour list constructed           ...    0.0 sec
Grid point re-assignment to atoms done       ...    0.0 sec
Grid point division into batches done        ...    0.0 sec
Reduced shell lists constructed in    0.0 sec

Total number of grid points                  ...    10072
Total number of batches                      ...      159
Average number of points per batch           ...       63
Average number of grid points per atom       ...     3357
Average number of shells per batch           ...     8.25 (91.63%)
Average number of basis functions per batch  ...    13.46 (89.71%)
Average number of large shells per batch     ...     7.91 (95.96%)
Average number of large basis fcns per batch ...    12.65 (94.04%)
Maximum spatial batch extension              ...  16.09, 16.09, 11.70 au
Average spatial batch extension              ...   2.02,  1.95,  1.38 au

Final grid set up in    0.0 sec
Final integration                            ... done (   0.0 sec)
Change in XC energy                          ...     0.000269895
Integrated number of electrons               ...     2.999996436
Previous integrated no of electrons          ...     3.000130493
Total Energy       :           -1.65543639 Eh             -45.04671 eV
  Last Energy change         ...   -1.5026e-09  Tolerance :   1.0000e-08
  Last MAX-Density change    ...    5.8314e-06  Tolerance :   1.0000e-07
             **** THE GBW FILE WAS UPDATED (H+H2_H2+H_scan_3_orca.gbw) ****
             **** DENSITY FILE WAS UPDATED (H+H2_H2+H_scan_3_orca.scfp) ****
             **** ENERGY FILE WAS UPDATED (H+H2_H2+H_scan_3_orca.en.tmp) ****
----------------------
UHF SPIN CONTAMINATION
----------------------

Warning: in a DFT calculation there is little theoretical justification to 
         calculate <S**2> as in Hartree-Fock theory. We will do it anyways
         but you should keep in mind that the values have only limited relevance

Expectation value of <S**2>     :     0.752788
Ideal value S*(S+1) for S=0.5   :     0.750000
Deviation                       :     0.002788

             **** THE GBW FILE WAS UPDATED (H+H2_H2+H_scan_3_orca.gbw) ****
             **** DENSITY FILE WAS UPDATED (H+H2_H2+H_scan_3_orca.scfp) ****
Total SCF time: 0 days 0 hours 0 min 1 sec 

-------------------------   --------------------
FINAL SINGLE POINT ENERGY        -1.655436385120
-------------------------   --------------------



           ************************************************************
           *        Program running with 2 parallel MPI-processes     *
           *              working on a common directory               *
           ************************************************************
------------------------------------------------------------------------------
                         ORCA SCF GRADIENT CALCULATION
------------------------------------------------------------------------------

Gradient of the Kohn-Sham DFT energy:
Kohn-Sham wavefunction type      ... UKS
Hartree-Fock exchange scaling    ...    0.000
Number of operators              ...    2
Number of atoms                  ...    3
Basis set dimensions             ...   15
Integral neglect threshold       ... 2.5e-11
Integral primitive cutoff        ... 2.5e-12

Nuclear repulsion gradient       ... done
One Electron Gradient            ... done
Pre-screening matrix             ... done
RI-J gradient                    ... done
Exchange-correlation gradient    ... done

------------------
CARTESIAN GRADIENT
------------------

   1   H   :    0.000000000   -0.000000000    0.003827631
   2   H   :    0.000000000   -0.000000000    0.010670957
   3   H   :   -0.000000000    0.000000000   -0.014498588

Difference to translation invariance:
           :   -0.0000000000    0.0000000000    0.0000000000

Norm of the cartesian gradient     ...    0.0184045951
RMS gradient                       ...    0.0061348650
MAX gradient                       ...    0.0144985877

-------
TIMINGS
-------

Total SCF gradient time            ...        0.280 sec

One electron gradient       ....       0.001 sec  (  0.2%)
Prescreening matrices       ....       0.000 sec  (  0.1%)
RI-J Coulomb gradient       ....       0.065 sec  ( 23.3%)
XC gradient                 ....       0.052 sec  ( 18.5%)
------------------------------------------------------------------------------
                         ORCA GEOMETRY RELAXATION STEP
------------------------------------------------------------------------------

Reading the OPT-File                    .... done
Getting information on internals        .... done
Copying old internal coords+grads       .... done
Making the new internal coordinates     .... (new redundants).... done
Validating the new internal coordinates .... (new redundants).... done
Calculating the B-matrix                .... done
Calculating the G,G- and P matrices     .... done
Transforming gradient to internals      .... done
Projecting the internal gradient        .... done
Number of atoms                         ....   3
Number of internal coordinates          ....   4
Current Energy                          ....    -1.655436385 Eh
Current gradient norm                   ....     0.018404595 Eh/bohr
Maximum allowed component of the step   ....  0.300
Current trust radius                    ....  0.300
Updating the Hessian (BFGS)             .... done
Forming the augmented Hessian           .... done
Diagonalizing the augmented Hessian     .... done
Last element of RFO vector              ....  0.913747482
Lowest eigenvalues of augmented Hessian:
 -0.001701892  0.008608511  0.165462145  0.165462145
Length of the computed step             ....  0.444633330
Warning: the length of the step is outside the trust region - taking restricted step instead
The input lambda is                     ....    -0.001702
   iter:   1  x=   -0.004047  g=   45.931010 f(x)=     0.107699
   iter:   2  x=   -0.005487  g=   22.297412 f(x)=     0.032115
   iter:   3  x=   -0.005837  g=   15.392034 f(x)=     0.005381
   iter:   4  x=   -0.005852  g=   14.159574 f(x)=     0.000219
   iter:   5  x=   -0.005852  g=   14.108037 f(x)=     0.000000
   iter:   6  x=   -0.005852  g=   14.107943 f(x)=     0.000000
   iter:   7  x=   -0.005852  g=   14.107943 f(x)=     0.000000
The output lambda is                    ....    -0.005852 (7 iterations)
The final length of the internal step   ....  0.300000000
Converting the step to cartesian space:
 Initial RMS(Int)=    0.1500000000
Transforming coordinates:
 Iter   0:  RMS(Cart)=    0.0544331054 RMS(Int)=    0.1000000000
 Iter   1:  RMS(Cart)=    0.0272165527 RMS(Int)=    0.0500000000
 Iter   2:  RMS(Cart)=    0.0000000006 RMS(Int)=    0.0000000046
Imposing constraints:
 Iter   0:  RMS(Cart)=    0.0000000000 RMS(Int)=    0.0000000000
CONVERGED
done
Storing new coordinates                 .... done

                                .--------------------.
          ----------------------|Geometry convergence|-------------------------
          Item                value                   Tolerance       Converged
          ---------------------------------------------------------------------
          Energy change      -0.0014639553            0.0000050000      NO
          RMS gradient        0.0019138155            0.0001000000      NO
          MAX gradient        0.0038276310            0.0003000000      NO
          RMS step            0.1500000000            0.0020000000      NO
          MAX step            0.3000000000            0.0040000000      NO
          ........................................................
          Max(Bonds)      0.1588      Max(Angles)    0.00
          Max(Dihed)        0.00      Max(Improp)    0.00
          ---------------------------------------------------------------------

The optimization has not yet converged - more geometry cycles are needed


    ---------------------------------------------------------------------------
                         Redundant Internal Coordinates
                            (Angstroem and degrees)

        Definition                    Value    dE/dq     Step     New-Value
    ----------------------------------------------------------------------------
     1. B(H   1,H   0)                1.3674 -0.003828  0.1588    1.5262   
     2. B(H   2,H   1)                0.7750 -0.014499 -0.0000    0.7750 C 
     3. L(H   0,H   1,H   2, 1)       180.00 -0.000000   -0.00    180.00   
     4. L(H   0,H   1,H   2, 2)       180.00 -0.000000   -0.00    180.00   
    ----------------------------------------------------------------------------

         *************************************************************
         *                GEOMETRY OPTIMIZATION CYCLE   4            *
         *************************************************************
---------------------------------
CARTESIAN COORDINATES (ANGSTROEM)
---------------------------------
  H      0.000000   -0.000000   -0.475767
  H     -0.000000    0.000000    1.050384
  H      0.000000   -0.000000    1.825384

----------------------------
CARTESIAN COORDINATES (A.U.)
----------------------------
  NO LB      ZA    FRAG     MASS         X           Y           Z
   0 H     1.0000    0     1.008    0.000000   -0.000000   -0.899069
   1 H     1.0000    0     1.008   -0.000000    0.000000    1.984937
   2 H     1.0000    0     1.008    0.000000   -0.000000    3.449475

--------------------------------
INTERNAL COORDINATES (ANGSTROEM)
--------------------------------
 H      0   0   0     0.000000000000     0.00000000     0.00000000
 H      1   0   0     1.526150550487     0.00000000     0.00000000
 H      2   1   0     0.774999997995   179.99999460     0.00000000

---------------------------
INTERNAL COORDINATES (A.U.)
---------------------------
 H      0   0   0     0.000000000000     0.00000000     0.00000000
 H      1   0   0     2.884006579554     0.00000000     0.00000000
 H      2   1   0     1.464537750000   179.99999460     0.00000000



           ************************************************************
           *        Program running with 2 parallel MPI-processes     *
           *              working on a common directory               *
           ************************************************************
 One Electron integrals                  ... done
 Pre-screening matrix                    ... done


           ************************************************************
           *        Program running with 2 parallel MPI-processes     *
           *              working on a common directory               *
           ************************************************************

Diagonalization of the overlap matrix:
Smallest eigenvalue                        ... 3.931e-02
Time for diagonalization                   ...    0.001 sec
Threshold for overlap eigenvalues          ... 1.000e-08
Number of eigenvalues below threshold      ... 0
Time for construction of square roots      ...    0.000 sec
Total time needed                          ...    0.001 sec

-------------------
DFT GRID GENERATION
-------------------

General Integration Accuracy     IntAcc      ...  4.340
Radial Grid Type                 RadialGrid  ... Gauss-Chebyshev
Angular Grid (max. acc.)         AngularGrid ... Lebedev-110
Angular grid pruning method      GridPruning ... 3 (G Style)
Weight generation scheme         WeightScheme... Becke
Basis function cutoff            BFCut       ...    1.0000e-11
Integration weight cutoff        WCut        ...    1.0000e-14
Grids for H and He will be reduced by one unit

# of grid points (after initial pruning)     ...   2382 (   0.0 sec)
# of grid points (after weights+screening)   ...   2340 (   0.0 sec)
nearest neighbour list constructed           ...    0.0 sec
Grid point re-assignment to atoms done       ...    0.0 sec
Grid point division into batches done        ...    0.0 sec
Reduced shell lists constructed in    0.0 sec

Total number of grid points                  ...     2340
Total number of batches                      ...       38
Average number of points per batch           ...       61
Average number of grid points per atom       ...      780
Average number of shells per batch           ...     8.55 (95.00%)
Average number of basis functions per batch  ...    14.25 (95.00%)
Average number of large shells per batch     ...     8.45 (98.83%)
Average number of large basis fcns per batch ...    14.05 (98.60%)
Maximum spatial batch extension              ...  17.62, 21.59, 14.04 au
Average spatial batch extension              ...   3.17,  3.83,  2.33 au

Time for grid setup =    0.009 sec

--------------
SCF ITERATIONS
--------------
ITER       Energy         Delta-E        Max-DP      RMS-DP      [F,P]     Damp
               ***  Starting incremental Fock matrix formation  ***
  0     -1.6555041762   0.000000000000 0.00537484  0.00039305  0.0176605 0.7000
  1     -1.6557544106  -0.000250234423 0.00511356  0.00037973  0.0145284 0.7000
                               ***Turning on DIIS***
  2     -1.6559645399  -0.000210129252 0.01337455  0.00105520  0.0112827 0.0000
  3     -1.6565159089  -0.000551369003 0.00248679  0.00030022  0.0025034 0.0000
  4     -1.6565439743  -0.000028065375 0.00101387  0.00015626  0.0014172 0.0000
  5     -1.6565527984  -0.000008824136 0.00121798  0.00017366  0.0007044 0.0000
  6     -1.6565561709  -0.000003372489 0.00010496  0.00001276  0.0000883 0.0000
  7     -1.6565561898  -0.000000018865 0.00001732  0.00000178  0.0000135 0.0000
                 **** Energy Check signals convergence ****

               *****************************************************
               *                     SUCCESS                       *
               *           SCF CONVERGED AFTER   8 CYCLES          *
               *****************************************************

Setting up the final grid:

General Integration Accuracy     IntAcc      ...  4.670
Radial Grid Type                 RadialGrid  ... Gauss-Chebyshev
Angular Grid (max. acc.)         AngularGrid ... Lebedev-302
Angular grid pruning method      GridPruning ... 3 (G Style)
Weight generation scheme         WeightScheme... Becke
Basis function cutoff            BFCut       ...    1.0000e-11
Integration weight cutoff        WCut        ...    1.0000e-14
Grids for H and He will be reduced by one unit

# of grid points (after initial pruning)     ...  10182 (   0.0 sec)
# of grid points (after weights+screening)   ...  10082 (   0.0 sec)
nearest neighbour list constructed           ...    0.0 sec
Grid point re-assignment to atoms done       ...    0.0 sec
Grid point division into batches done        ...    0.0 sec
Reduced shell lists constructed in    0.0 sec

Total number of grid points                  ...    10082
Total number of batches                      ...      159
Average number of points per batch           ...       63
Average number of grid points per atom       ...     3361
Average number of shells per batch           ...     8.23 (91.50%)
Average number of basis functions per batch  ...    13.42 (89.47%)
Average number of large shells per batch     ...     7.79 (94.60%)
Average number of large basis fcns per batch ...    12.33 (91.90%)
Maximum spatial batch extension              ...  18.85, 18.85, 12.00 au
Average spatial batch extension              ...   2.07,  2.00,  1.44 au

Final grid set up in    0.0 sec
Final integration                            ... done (   0.0 sec)
Change in XC energy                          ...     0.000023779
Integrated number of electrons               ...     2.999992166
Previous integrated no of electrons          ...     3.000680468
Total Energy       :           -1.65653241 Eh             -45.07654 eV
  Last Energy change         ...   -1.0390e-09  Tolerance :   1.0000e-08
  Last MAX-Density change    ...    5.0675e-06  Tolerance :   1.0000e-07
             **** THE GBW FILE WAS UPDATED (H+H2_H2+H_scan_3_orca.gbw) ****
             **** DENSITY FILE WAS UPDATED (H+H2_H2+H_scan_3_orca.scfp) ****
             **** ENERGY FILE WAS UPDATED (H+H2_H2+H_scan_3_orca.en.tmp) ****
----------------------
UHF SPIN CONTAMINATION
----------------------

Warning: in a DFT calculation there is little theoretical justification to 
         calculate <S**2> as in Hartree-Fock theory. We will do it anyways
         but you should keep in mind that the values have only limited relevance

Expectation value of <S**2>     :     0.751750
Ideal value S*(S+1) for S=0.5   :     0.750000
Deviation                       :     0.001750

             **** THE GBW FILE WAS UPDATED (H+H2_H2+H_scan_3_orca.gbw) ****
             **** DENSITY FILE WAS UPDATED (H+H2_H2+H_scan_3_orca.scfp) ****
Total SCF time: 0 days 0 hours 0 min 1 sec 

-------------------------   --------------------
FINAL SINGLE POINT ENERGY        -1.656532412084
-------------------------   --------------------



           ************************************************************
           *        Program running with 2 parallel MPI-processes     *
           *              working on a common directory               *
           ************************************************************
------------------------------------------------------------------------------
                         ORCA SCF GRADIENT CALCULATION
------------------------------------------------------------------------------

Gradient of the Kohn-Sham DFT energy:
Kohn-Sham wavefunction type      ... UKS
Hartree-Fock exchange scaling    ...    0.000
Number of operators              ...    2
Number of atoms                  ...    3
Basis set dimensions             ...   15
Integral neglect threshold       ... 2.5e-11
Integral primitive cutoff        ... 2.5e-12

Nuclear repulsion gradient       ... done
One Electron Gradient            ... done
Pre-screening matrix             ... done
RI-J gradient                    ... done
Exchange-correlation gradient    ... done

------------------
CARTESIAN GRADIENT
------------------

   1   H   :    0.000000000   -0.000000000    0.003163139
   2   H   :    0.000000000   -0.000000000    0.004041480
   3   H   :   -0.000000000    0.000000000   -0.007204620

Difference to translation invariance:
           :    0.0000000000   -0.0000000000   -0.0000000000

Norm of the cartesian gradient     ...    0.0088456520
RMS gradient                       ...    0.0029485507
MAX gradient                       ...    0.0072046197

-------
TIMINGS
-------

Total SCF gradient time            ...        0.274 sec

One electron gradient       ....       0.000 sec  (  0.1%)
Prescreening matrices       ....       0.000 sec  (  0.1%)
RI-J Coulomb gradient       ....       0.065 sec  ( 23.8%)
XC gradient                 ....       0.052 sec  ( 19.1%)
------------------------------------------------------------------------------
                         ORCA GEOMETRY RELAXATION STEP
------------------------------------------------------------------------------

Reading the OPT-File                    .... done
Getting information on internals        .... done
Copying old internal coords+grads       .... done
Making the new internal coordinates     .... (new redundants).... done
Validating the new internal coordinates .... (new redundants).... done
Calculating the B-matrix                .... done
Calculating the G,G- and P matrices     .... done
Transforming gradient to internals      .... done
Projecting the internal gradient        .... done
Number of atoms                         ....   3
Number of internal coordinates          ....   4
Current Energy                          ....    -1.656532412 Eh
Current gradient norm                   ....     0.008845652 Eh/bohr
Maximum allowed component of the step   ....  0.300
Current trust radius                    ....  0.300
Updating the Hessian (BFGS)             .... done
Forming the augmented Hessian           .... done
Diagonalizing the augmented Hessian     .... done
Last element of RFO vector              ....  0.815614290
Lowest eigenvalues of augmented Hessian:
 -0.002243928  0.004458900  0.165462145  0.165462145
Length of the computed step             ....  0.709399046
Warning: the length of the step is outside the trust region - taking restricted step instead
The input lambda is                     ....    -0.002244
   iter:   1  x=   -0.004075  g=  225.727000 f(x)=     0.413247
   iter:   2  x=   -0.006100  g=   80.424751 f(x)=     0.162921
   iter:   3  x=   -0.007672  g=   34.803065 f(x)=     0.054701
   iter:   4  x=   -0.008269  g=   20.704153 f(x)=     0.012352
   iter:   5  x=   -0.008328  g=   17.366808 f(x)=     0.001034
   iter:   6  x=   -0.008329  g=   17.074137 f(x)=     0.000009
   iter:   7  x=   -0.008329  g=   17.071648 f(x)=     0.000000
   iter:   8  x=   -0.008329  g=   17.071648 f(x)=     0.000000
The output lambda is                    ....    -0.008329 (8 iterations)
The final length of the internal step   ....  0.300000000
Converting the step to cartesian space:
 Initial RMS(Int)=    0.1500000000
Transforming coordinates:
 Iter   0:  RMS(Cart)=    0.0544331054 RMS(Int)=    0.1000000000
 Iter   1:  RMS(Cart)=    0.0272165527 RMS(Int)=    0.0500000000
 Iter   2:  RMS(Cart)=    0.0000000010 RMS(Int)=    0.0000000037
Imposing constraints:
 Iter   0:  RMS(Cart)=    0.0000000000 RMS(Int)=    0.0000000000
CONVERGED
done
Storing new coordinates                 .... done

                                .--------------------.
          ----------------------|Geometry convergence|-------------------------
          Item                value                   Tolerance       Converged
          ---------------------------------------------------------------------
          Energy change      -0.0010960270            0.0000050000      NO
          RMS gradient        0.0015815697            0.0001000000      NO
          MAX gradient        0.0031631394            0.0003000000      NO
          RMS step            0.1500000000            0.0020000000      NO
          MAX step            0.3000000000            0.0040000000      NO
[...]
 Storage of shell pair data              ... done (   0.000 sec)
 Shell pair data done in (   0.000 sec)
 Computing two index integrals           ... done
 Cholesky decomposition of the V-matrix  ... done


Timings:
 Total evaluation time                   ...   0.178 sec (  0.003 min)
 One electron matrix time                ...   0.007 sec (  0.000 min) =  3.8%
 Schwartz matrix evaluation time         ...   0.149 sec (  0.002 min) = 83.7%
 Two index repulsion integral time       ...   0.000 sec (  0.000 min) =  0.1%
 Cholesky decomposition of V             ...   0.000 sec (  0.000 min) =  0.2%
 Three index repulsion integral time     ...   0.000 sec (  0.000 min) =  0.0%



           ************************************************************
           *        Program running with 2 parallel MPI-processes     *
           *              working on a common directory               *
           ************************************************************
-------------------------------------------------------------------------------
                                 ORCA SCF
-------------------------------------------------------------------------------

------------
SCF SETTINGS
------------
Hamiltonian:
 Density Functional     Method          .... DFT(GTOs)
 Exchange Functional    Exchange        .... PBE
   PBE kappa parameter   XKappa         ....  0.804000
   PBE mue parameter    XMuePBE         ....  0.219520
 Correlation Functional Correlation     .... PBE
   PBE beta parameter  CBetaPBE         ....  0.066725
 LDA part of GGA corr.  LDAOpt          .... PW91-LDA
 Gradients option       PostSCFGGA      .... off
   Density functional embedding theory  .... OFF
   NL short-range parameter             ....  6.400000
 RI-approximation to the Coulomb term is turned on
   Number of auxiliary basis functions  .... 33


General Settings:
 Integral files         IntName         .... H+H2_H2+H_scan_3_orca
 Hartree-Fock type      HFTyp           .... UHF
 Total Charge           Charge          ....    0
 Multiplicity           Mult            ....    2
 Number of Electrons    NEL             ....    3
 Basis Dimension        Dim             ....   15
 Nuclear Repulsion      ENuc            ....      0.9998479838 Eh

Convergence Acceleration:
 DIIS                   CNVDIIS         .... on
   Start iteration      DIISMaxIt       ....    12
   Startup error        DIISStart       ....  0.200000
   # of expansion vecs  DIISMaxEq       ....     5
   Bias factor          DIISBfac        ....   1.050
   Max. coefficient     DIISMaxC        ....  10.000
 Newton-Raphson         CNVNR           .... off
 SOSCF                  CNVSOSCF        .... off
 Level Shifting         CNVShift        .... on
   Level shift para.    LevelShift      ....    0.2500
   Turn off err/grad.   ShiftErr        ....    0.0010
 Zerner damping         CNVZerner       .... off
 Static damping         CNVDamp         .... on
   Fraction old density DampFac         ....    0.7000
   Max. Damping (<1)    DampMax         ....    0.9800
   Min. Damping (>=0)   DampMin         ....    0.0000
   Turn off err/grad.   DampErr         ....    0.1000
 Fernandez-Rico         CNVRico         .... off

SCF Procedure:
 Maximum # iterations   MaxIter         ....   250
 SCF integral mode      SCFMode         .... Direct
   Integral package                     .... LIBINT
 Reset frequency        DirectResetFreq ....    20
 Integral Threshold     Thresh          ....  2.500e-11 Eh
 Primitive CutOff       TCut            ....  2.500e-12 Eh

Convergence Tolerance:
 Convergence Check Mode ConvCheckMode   .... Total+1el-Energy
 Convergence forced     ConvForced      .... 0
 Energy Change          TolE            ....  1.000e-08 Eh
 1-El. energy change                    ....  1.000e-05 Eh
 DIIS Error             TolErr          ....  5.000e-07


Diagonalization of the overlap matrix:
Smallest eigenvalue                        ... 5.715e-02
Time for diagonalization                   ...    0.001 sec
Threshold for overlap eigenvalues          ... 1.000e-08
Number of eigenvalues below threshold      ... 0
Time for construction of square roots      ...    0.000 sec
Total time needed                          ...    0.001 sec

---------------------
INITIAL GUESS: MOREAD
---------------------
Guess MOs are being read from file: H+H2_H2+H_scan_3_orca.gbw
Input Geometry matches current geometry (good)
Input basis set matches current basis set (good)
MOs were renormalized
MOs were reorthogonalized (Cholesky)
                      ------------------
                      INITIAL GUESS DONE (   0.0 sec)
                      ------------------
-------------------
DFT GRID GENERATION
-------------------

General Integration Accuracy     IntAcc      ...  4.340
Radial Grid Type                 RadialGrid  ... Gauss-Chebyshev
Angular Grid (max. acc.)         AngularGrid ... Lebedev-110
Angular grid pruning method      GridPruning ... 3 (G Style)
Weight generation scheme         WeightScheme... Becke
Basis function cutoff            BFCut       ...    1.0000e-11
Integration weight cutoff        WCut        ...    1.0000e-14
Grids for H and He will be reduced by one unit

# of grid points (after initial pruning)     ...   2382 (   0.0 sec)
# of grid points (after weights+screening)   ...   2348 (   0.0 sec)
nearest neighbour list constructed           ...    0.0 sec
Grid point re-assignment to atoms done       ...    0.0 sec
Grid point division into batches done        ...    0.0 sec
Reduced shell lists constructed in    0.0 sec

Total number of grid points                  ...     2348
Total number of batches                      ...       38
Average number of points per batch           ...       61
Average number of grid points per atom       ...      783
Average number of shells per batch           ...     8.10 (90.00%)
Average number of basis functions per batch  ...    13.00 (86.67%)
Average number of large shells per batch     ...     6.95 (85.80%)
Average number of large basis fcns per batch ...    10.55 (81.15%)
Maximum spatial batch extension              ...  17.62, 21.59, 14.26 au
Average spatial batch extension              ...   3.15,  4.04,  2.64 au

Time for grid setup =    0.009 sec

--------------
SCF ITERATIONS
--------------
ITER       Energy         Delta-E        Max-DP      RMS-DP      [F,P]     Damp
               ***  Starting incremental Fock matrix formation  ***
  0     -1.6591504699   0.000000000000 0.00000855  0.00000088  0.0000209 0.7000
                 **** Energy Check signals convergence ****

               *****************************************************
               *                     SUCCESS                       *
               *           SCF CONVERGED AFTER   1 CYCLES          *
               *****************************************************

Setting up the final grid:

General Integration Accuracy     IntAcc      ...  4.670
Radial Grid Type                 RadialGrid  ... Gauss-Chebyshev
Angular Grid (max. acc.)         AngularGrid ... Lebedev-302
Angular grid pruning method      GridPruning ... 3 (G Style)
Weight generation scheme         WeightScheme... Becke
Basis function cutoff            BFCut       ...    1.0000e-11
Integration weight cutoff        WCut        ...    1.0000e-14
Grids for H and He will be reduced by one unit

# of grid points (after initial pruning)     ...  10182 (   0.0 sec)
# of grid points (after weights+screening)   ...  10114 (   0.0 sec)
nearest neighbour list constructed           ...    0.0 sec
Grid point re-assignment to atoms done       ...    0.0 sec
Grid point division into batches done        ...    0.0 sec
Reduced shell lists constructed in    0.0 sec

Total number of grid points                  ...    10114
Total number of batches                      ...      160
Average number of points per batch           ...       63
Average number of grid points per atom       ...     3371
Average number of shells per batch           ...     7.59 (84.36%)
Average number of basis functions per batch  ...    11.64 (77.61%)
Average number of large shells per batch     ...     6.00 (79.02%)
Average number of large basis fcns per batch ...     8.59 (73.81%)
Maximum spatial batch extension              ...  17.51, 17.51, 11.25 au
Average spatial batch extension              ...   2.20,  2.18,  1.54 au

Final grid set up in    0.0 sec
Final integration                            ... done (   0.0 sec)
Change in XC energy                          ...    -0.000325583
Integrated number of electrons               ...     2.999989516
Previous integrated no of electrons          ...     2.997905520

----------------
TOTAL SCF ENERGY
----------------

Total Energy       :           -1.65947605 Eh             -45.15664 eV

Components:
Nuclear Repulsion  :            0.99984798 Eh              27.20725 eV
Electronic Energy  :           -2.65932404 Eh             -72.36389 eV
One Electron Energy:           -3.59135923 Eh             -97.72585 eV
Two Electron Energy:            0.93203519 Eh              25.36197 eV

Virial components:
Potential Energy   :           -3.22862371 Eh             -87.85532 eV
Kinetic Energy     :            1.56914766 Eh              42.69868 eV
Virial Ratio       :            2.05756526


DFT components:
N(Alpha)           :        1.999990626905 electrons
N(Beta)            :        0.999998889495 electrons
N(Total)           :        2.999989516400 electrons
E(X)               :       -0.940182507712 Eh       
E(C)               :       -0.050804123415 Eh       
E(XC)              :       -0.990986631127 Eh       
DFET-embed. en.    :        0.000000000000 Eh       

---------------
SCF CONVERGENCE
---------------

  Last Energy change         ...   -6.5089e-10  Tolerance :   1.0000e-08
  Last MAX-Density change    ...    2.8206e-06  Tolerance :   1.0000e-07
  Last RMS-Density change    ...    3.1241e-07  Tolerance :   5.0000e-09
  Last DIIS Error            ...    1.6571e-05  Tolerance :   5.0000e-07

             **** THE GBW FILE WAS UPDATED (H+H2_H2+H_scan_3_orca.gbw) ****
             **** DENSITY FILE WAS UPDATED (H+H2_H2+H_scan_3_orca.scfp) ****
             **** ENERGY FILE WAS UPDATED (H+H2_H2+H_scan_3_orca.en.tmp) ****
----------------------
UHF SPIN CONTAMINATION
----------------------

Warning: in a DFT calculation there is little theoretical justification to 
         calculate <S**2> as in Hartree-Fock theory. We will do it anyways
         but you should keep in mind that the values have only limited relevance

Expectation value of <S**2>     :     0.750001
Ideal value S*(S+1) for S=0.5   :     0.750000
Deviation                       :     0.000001

             **** THE GBW FILE WAS UPDATED (H+H2_H2+H_scan_3_orca.gbw) ****
             **** DENSITY FILE WAS UPDATED (H+H2_H2+H_scan_3_orca.scfp) ****
----------------
ORBITAL ENERGIES
----------------
                 SPIN UP ORBITALS
  NO   OCC          E(Eh)            E(eV) 
   0   1.0000      -0.370273       -10.0756 
   1   1.0000      -0.276780        -7.5316 
   2   0.0000       0.050209         1.3663 
   3   0.0000       0.302417         8.2292 
   4   0.0000       0.415653        11.3105 
   5   0.0000       0.678584        18.4652 
   6   0.0000       1.107976        30.1496 
   7   0.0000       1.107976        30.1496 
   8   0.0000       1.284357        34.9491 
   9   0.0000       1.284357        34.9491 
  10   0.0000       1.293384        35.1948 
  11   0.0000       1.713525        46.6274 
  12   0.0000       1.858107        50.5617 
  13   0.0000       1.858107        50.5617 
  14   0.0000       3.208048        87.2954 

                 SPIN DOWN ORBITALS
  NO   OCC          E(Eh)            E(eV) 
   0   1.0000      -0.369867       -10.0646 
   1   0.0000       0.037311         1.0153 
   2   0.0000       0.138859         3.7785 
   3   0.0000       0.326265         8.8781 
   4   0.0000       0.674809        18.3625 
   5   0.0000       0.952720        25.9248 
   6   0.0000       1.108131        30.1538 
   7   0.0000       1.108131        30.1538 
   8   0.0000       1.712965        46.6121 
   9   0.0000       1.858317        50.5674 
  10   0.0000       1.858317        50.5674 
  11   0.0000       1.885724        51.3131 
  12   0.0000       1.885724        51.3131 
  13   0.0000       1.906712        51.8843 
  14   0.0000       3.208598        87.3104 

                    ********************************
                    * MULLIKEN POPULATION ANALYSIS *
                    ********************************

--------------------------------------------
MULLIKEN ATOMIC CHARGES AND SPIN POPULATIONS
--------------------------------------------
   0 H :    0.002967    0.996476
   1 H :   -0.001589    0.001547
   2 H :   -0.001378    0.001977
Sum of atomic charges         :   -0.0000000
Sum of atomic spin populations:    1.0000000

-----------------------------------------------------
MULLIKEN REDUCED ORBITAL CHARGES AND SPIN POPULATIONS
-----------------------------------------------------
CHARGE
  0 H s       :     0.997020  s :     0.997020
      pz      :     0.000013  p :     0.000013
      px      :     0.000000
      py      :     0.000000
  1 H s       :     0.993204  s :     0.993204
      pz      :     0.008385  p :     0.008385
      px      :     0.000000
      py      :     0.000000
  2 H s       :     0.992873  s :     0.992873
      pz      :     0.008505  p :     0.008505
      px      :     0.000000
      py      :     0.000000

SPIN
  0 H s       :     0.996467  s :     0.996467
      pz      :     0.000009  p :     0.000009
      px      :     0.000000
      py      :     0.000000
  1 H s       :     0.001494  s :     0.001494
      pz      :     0.000054  p :     0.000054
      px      :    -0.000000
      py      :    -0.000000
  2 H s       :     0.001973  s :     0.001973
      pz      :     0.000003  p :     0.000003
      px      :     0.000000
      py      :     0.000000


                     *******************************
                     * LOEWDIN POPULATION ANALYSIS *
                     *******************************

-------------------------------------------
LOEWDIN ATOMIC CHARGES AND SPIN POPULATIONS
-------------------------------------------
   0 H :    0.002738    0.996568
   1 H :   -0.001886    0.001668
   2 H :   -0.000853    0.001764

----------------------------------------------------
LOEWDIN REDUCED ORBITAL CHARGES AND SPIN POPULATIONS
----------------------------------------------------
CHARGE
  0 H s       :     0.997251  s :     0.997251
      pz      :     0.000011  p :     0.000011
      px      :     0.000000
      py      :     0.000000
  1 H s       :     0.976633  s :     0.976633
      pz      :     0.025253  p :     0.025253
      px      :     0.000000
      py      :     0.000000
  2 H s       :     0.975804  s :     0.975804
      pz      :     0.025049  p :     0.025049
      px      :     0.000000
      py      :     0.000000

SPIN
  0 H s       :     0.996562  s :     0.996562
      pz      :     0.000006  p :     0.000006
      px      :     0.000000
      py      :     0.000000
  1 H s       :     0.001349  s :     0.001349
      pz      :     0.000319  p :     0.000319
      px      :     0.000000
      py      :     0.000000
  2 H s       :     0.001804  s :     0.001804
      pz      :    -0.000040  p :    -0.000040
      px      :    -0.000000
      py      :    -0.000000


                      *****************************
                      * MAYER POPULATION ANALYSIS *
                      *****************************

  NA   - Mulliken gross atomic population
  ZA   - Total nuclear charge
  QA   - Mulliken gross atomic charge
  VA   - Mayer's total valence
  BVA  - Mayer's bonded valence
  FA   - Mayer's free valence

  ATOM       NA         ZA         QA         VA         BVA        FA
  0 H      0.9970     1.0000     0.0030     1.0005     0.0075     0.9930
  1 H      1.0016     1.0000    -0.0016     1.0044     1.0044     0.0000
  2 H      1.0014     1.0000    -0.0014     0.9988     0.9988     0.0000

  Mayer bond orders larger than 0.100000
B(  1-H ,  2-H ) :   0.9979 

-------
TIMINGS
-------

Total SCF time: 0 days 0 hours 0 min 0 sec 

Total time                  ....       0.415 sec
Sum of individual times     ....       0.272 sec  ( 65.5%)

Fock matrix formation       ....       0.220 sec  ( 53.0%)
  Split-RI-J                ....       0.184 sec  ( 83.6% of F)
  XC integration            ....       0.027 sec  ( 12.1% of F)
    Basis function eval.    ....       0.007 sec  ( 25.7% of XC)
    Density eval.           ....       0.005 sec  ( 19.0% of XC)
    XC-Functional eval.     ....       0.009 sec  ( 34.4% of XC)
    XC-Potential eval.      ....       0.002 sec  (  7.7% of XC)
Diagonalization             ....       0.000 sec  (  0.1%)
Density matrix formation    ....       0.000 sec  (  0.0%)
Population analysis         ....       0.002 sec  (  0.5%)
Initial guess               ....       0.002 sec  (  0.4%)
Orbital Transformation      ....       0.000 sec  (  0.0%)
Orbital Orthonormalization  ....       0.000 sec  (  0.1%)
DIIS solution               ....       0.000 sec  (  0.0%)
Grid generation             ....       0.047 sec  ( 11.4%)

-------------------------   --------------------
FINAL SINGLE POINT ENERGY        -1.659476053938
-------------------------   --------------------

                                *** OPTIMIZATION RUN DONE ***

                            ***************************************
                            *     ORCA property calculations      *
                            ***************************************

                                    ---------------------
                                    Active property flags
                                    ---------------------
   (+) Dipole Moment


------------------------------------------------------------------------------
                       ORCA ELECTRIC PROPERTIES CALCULATION
------------------------------------------------------------------------------

Dipole Moment Calculation                       ... on
Quadrupole Moment Calculation                   ... off
Polarizability Calculation                      ... off
GBWName                                         ... H+H2_H2+H_scan_3_orca.gbw
Electron density file                           ... H+H2_H2+H_scan_3_orca.scfp
The origin for moment calculation is the CENTER OF MASS  = (-0.000000,  0.000000  1.511781)

-------------
DIPOLE MOMENT
-------------
                                X             Y             Z
Electronic contribution:      0.00000      -0.00000      -0.01697
Nuclear contribution   :      0.00000      -0.00000      -0.00000
                        -----------------------------------------
Total Dipole Moment    :      0.00000      -0.00000      -0.01697
                        -----------------------------------------
Magnitude (a.u.)       :      0.01697
Magnitude (Debye)      :      0.04313



--------------------
Rotational spectrum 
--------------------
 
Rotational constants in cm-1:     0.000000     2.109338     2.109338 
Rotational constants in MHz :     0.000000 63236.375095 63236.375095 

 Dipole components along the rotational axes: 
x,y,z [a.u.] :     0.016969    -0.000000     0.000000 
x,y,z [Debye]:     0.043132    -0.000000     0.000000 

 

Timings for individual modules:

Sum of individual times         ...       66.606 sec (=   1.110 min)
GTO integral calculation        ...       17.924 sec (=   0.299 min)  26.9 %
SCF iterations                  ...       29.591 sec (=   0.493 min)  44.4 %
SCF Gradient evaluation         ...       18.285 sec (=   0.305 min)  27.5 %
Geometry relaxation             ...        0.805 sec (=   0.013 min)   1.2 %
                             ****ORCA TERMINATED NORMALLY****
TOTAL RUN TIME: 0 days 0 hours 1 minutes 7 seconds 980 msec
