      -----------------------------------------------------------      
     |                   =====================                   |     
     |                           x T B                           |     
     |                   =====================                   |     
     |                         S. Grimme                         |     
     |          Mulliken Center for Theoretical Chemistry        |     
     |                    University of Bonn                     |     
      -----------------------------------------------------------      

   * xtb version 6.2.3 (830e466) compiled by 'ehlert@majestix' on 2020-03-16

   xtb is free software: you can redistribute it and/or modify it under
   the terms of the GNU Lesser General Public License as published by
   the Free Software Foundation, either version 3 of the License, or
   (at your option) any later version.
   
   xtb is distributed in the hope that it will be useful,
   but WITHOUT ANY WARRANTY; without even the implied warranty of
   MERCHANTABILITY or FITNESS FOR A PARTICULAR PURPOSE.  See the
   GNU Lesser General Public License for more details.
   
   Cite this work as:
   * S. Grimme, C. Bannwarth, P. Shushkov, J. Chem. Theory Comput., 2017,
     13, 1989-2009. DOI: 10.1021/acs.jctc.7b00118
   * C. Bannwarth, S. Ehlert and S. Grimme., J. Chem. Theory Comput., 2019,
     15, 1652-1671. DOI: 10.1021/acs.jctc.8b01176
   * P. Pracht, E. Caldeweyher, S. Ehlert, S. Grimme, ChemRxiv, 2019, preprint.
     DOI: 10.26434/chemrxiv.8326202.v1
   
   for DFT-D4:
   * E. Caldeweyher, C. Bannwarth and S. Grimme, J. Chem. Phys., 2017,
     147, 034112. DOI: 10.1063/1.4993215
   * E. Caldeweyher, S. Ehlert, A. Hansen, H. Neugebauer, S. Spicher,
     C. Bannwarth and S. Grimme, J. Chem. Phys., 2019, 150, 154122.
     DOI: 10.1063/1.5090222
   
   for sTDA-xTB:
   * S. Grimme and C. Bannwarth, J. Chem. Phys., 2016, 145, 054103.
     DOI: 10.1063/1.4959605
   
   in the mass-spec context:
   * V. Asgeirsson, C. Bauer and S. Grimme, Chem. Sci., 2017, 8, 4879.
     DOI: 10.1039/c7sc00601b
   
   for metadynamics refer to:
   * S. Grimme, J. Chem. Theory Comput., 2019, 155, 2847-2862
     DOI: 10.1021/acs.jctc.9b00143
   
   with help from (in alphabetical order)
   C. Bannwarth, F. Bohle, G. Brandenburg, E. Caldeweyher, M. Checinski,
   S. Dohm, S. Ehlert, S. Ehrlich, F. März, H. Neugebauer, J. Pisarek,
   P. Pracht, P. Shushkov, and S. Spicher.
   
 * started run on 2020/08/20 at 17:46:31.909     

           -------------------------------------------------
          |                Calculation Setup                |
           -------------------------------------------------

          program call               : /u/fd/ball4935/opt/bin/xtb 9_7_xtb.xyz --chrg -1 --grad --gbsa Water
          hostname                   : comp0810
          coordinate file            : 9_7_xtb.xyz
          omp threads                :                     1
          number of atoms            :                     6
          number of electrons        :                    22
          charge                     :                    -1
          spin                       :                   0.0
          first test random number   :      0.07634472124712


molecular fragmentation (1/2 indicates fragments):
121111
# atoms in fragment 1/2:     5     1
 fragment masses (1/2) :       34.03       35.45
CMA distance (Bohr)    :   6.896
constraining FC (au)   :  0.0500
########################################################################
[WARNING] Please study the warnings concerning your input carefully
-2- prog_main: XTBPATH is not set, using XTBHOME instead
-1- prog_main: XTBHOME is not set, using HOME instead
########################################################################
           ------------------------------------------------- 
          |                 G F N 2 - x T B                 |
          | Geometry, Frequencies, Noncovalent interactions |
          |            JCTC 2019 parametrisation            |
           ------------------------------------------------- 
             k(s)              :                1.8500
             k(p)              :                2.2300
             k(d)              :                2.2300
             k(f)              :                2.0000
             kEN (H0ij)        :               -2.0000
             D4 a1             :                0.5200
             D4 a2             :                5.0000
             D4 s6             :                1.0000
             D4 s8             :                2.7000
             D4 s9             :                5.0000
             alphaj            :                2.0000

  Z AO/shell   Hii/eV     exponent
  1     Wed Apr 25 08:07:45 CEST 2018   EN: 2.200 GM2: 0.406  GM3: 0.0800  RAES: 1.40
     1s    -10.707211    1.230000
  6     Wed Apr 25 08:07:45 CEST 2018   EN: 2.550 GM2: 0.538  GM3: 0.1500  RAES: 3.00
     2s    -13.970922    2.096432
     2p    -10.063292    1.800000
  9     Mon Apr 23 13:58:50 CEST 2018   EN: 3.980 GM2: 0.532  GM3: 0.1426  RAES: 2.40
     2s    -23.458179    2.416361
     2p    -15.746583    2.308399
 17     Mon Apr 23 14:09:22 CEST 2018   EN: 3.160 GM2: 0.249  GM3: 0.1495  RAES: 2.50
     3s    -29.278781    2.485265
     3p    -12.673758    2.199650
     3d     -0.240338    2.476089

 Solvent             : Water
 Using internal parameter file: .param_gbsa2_Water
 Gsolv ref. state (COSMO-RS): gsolv [1 M gas/solution]
 temperature (mdtemp)       :    298.150000000000     
 dielectric constant        :    80.2000000000000     
 rho                        :    1.00000000000000     
 mass                       :    18.0000000000000     
 surface tension            :    15.5689454083859     
 probe radius               :   0.975313790000000     
 Gshift (Eh)                :   1.857443126794793E-003
 c1                         :    1.55243817000000     
 soset                      :   0.130326360000000     
 HB correction              :  T
           ------------------------------------------------- 
          |        Self-Consistent Charge Iterations        |
           ------------------------------------------------- 

          ...................................................
          :                      SETUP                      :
          :.................................................:
          :  # basis functions                  21          :
          :  # atomic orbitals                  20          :
          :  # shells                           10          :
          :  # electrons                        22          :
          :  max. iterations                   250          :
          :  Hamiltonian                  GFN2-xTB          :
          :  restarted?                      false          :
          :  GBSA solvation                   true          :
          :  PC potential                    false          :
          :  electronic temp.          300.0000000     K    :
          :  accuracy                    1.0000000          :
          :  -> integral cutoff          0.2500000E+02      :
          :  -> integral neglect         0.1000000E-07      :
          :  -> SCF convergence          0.1000000E-05 Eh   :
          :  -> wf. convergence          0.1000000E-03 e    :
          :  Broyden damping             0.4000000          :
          ...................................................

 iter      E             dE          RMSdq      gap      omega  full diag
   1    -13.3005026 -0.133005E+02  0.566E+00   11.94       0.0  T
   2    -13.3555416 -0.550389E-01  0.274E+00    9.81       1.0  T
   3    -13.3563345 -0.792984E-03  0.143E+00    9.44       1.0  T
   4    -13.3564996 -0.165076E-03  0.177E-01    9.24       1.0  T
   5    -13.3565315 -0.318288E-04  0.805E-02    9.33       1.0  T
   6    -13.3565382 -0.671906E-05  0.544E-02    9.34       1.0  T
   7    -13.3565442 -0.600868E-05  0.165E-02    9.36       2.5  T
   8    -13.3565442 -0.416074E-07  0.105E-03    9.36      38.8  T
   9    -13.3565442 -0.100219E-08  0.431E-04    9.36      94.8  T
  10    -13.3565442 -0.197105E-10  0.181E-05    9.36    2255.2  T

   *** convergence criteria satisfied after 10 iterations ***

         #    Occupation            Energy/Eh            Energy/eV
      -------------------------------------------------------------
         1        2.0000           -0.9861208             -26.8337
       ...           ...                  ...                  ...
         5        2.0000           -0.5257330             -14.3059
         6        2.0000           -0.5256194             -14.3028
         7        2.0000           -0.4577941             -12.4572
         8        2.0000           -0.4577313             -12.4555
         9        2.0000           -0.3885605             -10.5733
        10        2.0000           -0.3881802             -10.5629
        11        2.0000           -0.3881788             -10.5629 (HOMO)
        12                         -0.0443600              -1.2071 (LUMO)
        13                          0.1398231               3.8048
        14                          0.1398326               3.8050
        15                          0.1407662               3.8304
        16                          0.1412506               3.8436
       ...                                ...                  ...
        20                          0.2638799               7.1805
      -------------------------------------------------------------
                  HL-Gap            0.3438188 Eh            9.3558 eV
             Fermi-level           -0.2162694 Eh           -5.8850 eV

 SCC (total)                   0 d,  0 h,  0 min,  0.006 sec
 SCC setup                      ...        0 min,  0.000 sec (  5.091%)
 Dispersion                     ...        0 min,  0.000 sec (  0.489%)
 integral evaluation            ...        0 min,  0.001 sec ( 19.031%)
 zeroth order Hamiltonian       ...        0 min,  0.000 sec (  0.682%)
 iterations                     ...        0 min,  0.003 sec ( 54.416%)
 molecular gradient             ...        0 min,  0.001 sec ( 17.743%)
 printout                       ...        0 min,  0.000 sec (  1.772%)

         :::::::::::::::::::::::::::::::::::::::::::::::::::::
         ::                     SUMMARY                     ::
         :::::::::::::::::::::::::::::::::::::::::::::::::::::
         :: total energy             -13.285807167506 Eh    ::
         :: total w/o Gsasa/hb       -13.286078239418 Eh    ::
         :: gradient norm              0.064230967362 Eh/a0 ::
         :: HOMO-LUMO gap              9.355785655597 eV    ::
         ::.................................................::
         :: SCC energy               -13.354307311239 Eh    ::
         :: -> isotropic ES            0.165739587178 Eh    ::
         :: -> anisotropic ES         -0.001459822717 Eh    ::
         :: -> anisotropic XC         -0.000491636518 Eh    ::
         :: -> dispersion             -0.001882195931 Eh    ::
         :: -> Gsolv                  -0.097547436799 Eh    ::
         ::    -> Gborn               -0.097818508711 Eh    ::
         ::    -> Gsasa                0.000379468720 Eh    ::
         ::    -> Ghb                 -0.001965839935 Eh    ::
         ::    -> Gshift               0.001857443127 Eh    ::
         :: repulsion energy           0.068500271142 Eh    ::
         :: add. restraining           0.000000000000 Eh    ::
         :::::::::::::::::::::::::::::::::::::::::::::::::::::

           -------------------------------------------------
          |                Property Printout                |
           -------------------------------------------------

    * Orbital Energies and Occupations

         #    Occupation            Energy/Eh            Energy/eV
      -------------------------------------------------------------
         1        2.0000           -0.9861208             -26.8337
         2        2.0000           -0.7968212             -21.6826
         3        2.0000           -0.6073147             -16.5259
         4        2.0000           -0.5272903             -14.3483
         5        2.0000           -0.5257330             -14.3059
         6        2.0000           -0.5256194             -14.3028
         7        2.0000           -0.4577941             -12.4572
         8        2.0000           -0.4577313             -12.4555
         9        2.0000           -0.3885605             -10.5733
        10        2.0000           -0.3881802             -10.5629
        11        2.0000           -0.3881788             -10.5629 (HOMO)
        12                         -0.0443600              -1.2071 (LUMO)
        13                          0.1398231               3.8048
        14                          0.1398326               3.8050
        15                          0.1407662               3.8304
        16                          0.1412506               3.8436
        17                          0.1412508               3.8436
        18                          0.1868916               5.0856
        19                          0.2628204               7.1517
        20                          0.2638799               7.1805
      -------------------------------------------------------------
                  HL-Gap            0.3438188 Eh            9.3558 eV
             Fermi-level           -0.2162694 Eh           -5.8850 eV

     #   Z        covCN         q      C6AA      α(0)
     1   9 F      0.777    -0.313    12.471     4.171
     2  17 Cl     0.006    -0.993   126.725    17.132
     3   6 C      3.564     0.068    20.256     6.557
     4   1 H      0.927     0.079     1.986     2.204
     5   1 H      0.927     0.079     1.986     2.204
     6   1 H      0.927     0.079     1.985     2.203

 Mol. C6AA /au·bohr⁶  :        548.088791
 Mol. C8AA /au·bohr⁸  :      15819.571389
 Mol. α(0) /au        :         34.471581


Wiberg/Mayer (AO) data.
largest (>0.10) Wiberg bond orders for each atom
          total WBO             WBO to atom ...
     1  F   0.931        C    3 0.900
     2  Cl  0.013
     3  C   3.862        H    5 0.984    H    6 0.984    H    4 0.984    F    1 0.900
     4  H   0.994        C    3 0.984
     5  H   0.994        C    3 0.984
     6  H   0.994        C    3 0.984

molecular dipole:
                 x           y           z       tot (Debye)
 q only:       -2.527      -0.062       0.029
   full:       -2.355      -0.058       0.027       5.987
molecular quadrupole (traceless):
                xx          xy          yy          xz          yz          zz
 q only:      -19.015      -0.654       9.502       0.341       0.007       9.513
  q+dip:      -21.440      -0.733      10.714       0.385       0.003      10.726
   full:      -20.662      -0.706      10.325       0.373       0.005      10.337


           -------------------------------------------------
          | TOTAL ENERGY              -13.285807167506 Eh   |
          | GRADIENT NORM               0.064230967362 Eh/α |
          | HOMO-LUMO GAP               9.355785655597 eV   |
           -------------------------------------------------

------------------------------------------------------------------------
 * finished run on 2020/08/20 at 17:46:31.965     
------------------------------------------------------------------------
 total:
 * wall-time:     0 d,  0 h,  0 min,  0.056 sec
 *  cpu-time:     0 d,  0 h,  0 min,  0.018 sec
 * ratio c/w:     0.314 speedup
 SCF:
 * wall-time:     0 d,  0 h,  0 min,  0.006 sec
 *  cpu-time:     0 d,  0 h,  0 min,  0.006 sec
 * ratio c/w:     0.997 speedup

