      -----------------------------------------------------------      
     |                   =====================                   |     
     |                           x T B                           |     
     |                   =====================                   |     
     |                         S. Grimme                         |     
     |          Mulliken Center for Theoretical Chemistry        |     
     |                    University of Bonn                     |     
      -----------------------------------------------------------      

   * xtb version 6.2.3 (830e466) compiled by 'ehlert@majestix' on 2020-03-16

   xtb is free software: you can redistribute it and/or modify it under
   the terms of the GNU Lesser General Public License as published by
   the Free Software Foundation, either version 3 of the License, or
   (at your option) any later version.
   
   xtb is distributed in the hope that it will be useful,
   but WITHOUT ANY WARRANTY; without even the implied warranty of
   MERCHANTABILITY or FITNESS FOR A PARTICULAR PURPOSE.  See the
   GNU Lesser General Public License for more details.
   
   Cite this work as:
   * S. Grimme, C. Bannwarth, P. Shushkov, J. Chem. Theory Comput., 2017,
     13, 1989-2009. DOI: 10.1021/acs.jctc.7b00118
   * C. Bannwarth, S. Ehlert and S. Grimme., J. Chem. Theory Comput., 2019,
     15, 1652-1671. DOI: 10.1021/acs.jctc.8b01176
   * P. Pracht, E. Caldeweyher, S. Ehlert, S. Grimme, ChemRxiv, 2019, preprint.
     DOI: 10.26434/chemrxiv.8326202.v1
   
   for DFT-D4:
   * E. Caldeweyher, C. Bannwarth and S. Grimme, J. Chem. Phys., 2017,
     147, 034112. DOI: 10.1063/1.4993215
   * E. Caldeweyher, S. Ehlert, A. Hansen, H. Neugebauer, S. Spicher,
     C. Bannwarth and S. Grimme, J. Chem. Phys., 2019, 150, 154122.
     DOI: 10.1063/1.5090222
   
   for sTDA-xTB:
   * S. Grimme and C. Bannwarth, J. Chem. Phys., 2016, 145, 054103.
     DOI: 10.1063/1.4959605
   
   in the mass-spec context:
   * V. Asgeirsson, C. Bauer and S. Grimme, Chem. Sci., 2017, 8, 4879.
     DOI: 10.1039/c7sc00601b
   
   for metadynamics refer to:
   * S. Grimme, J. Chem. Theory Comput., 2019, 155, 2847-2862
     DOI: 10.1021/acs.jctc.9b00143
   
   with help from (in alphabetical order)
   C. Bannwarth, F. Bohle, G. Brandenburg, E. Caldeweyher, M. Checinski,
   S. Dohm, S. Ehlert, S. Ehrlich, F. März, H. Neugebauer, J. Pisarek,
   P. Pracht, P. Shushkov, and S. Spicher.
   
 * started run on 2020/08/20 at 17:46:32.240     

           -------------------------------------------------
          |                Calculation Setup                |
           -------------------------------------------------

          program call               : /u/fd/ball4935/opt/bin/xtb 9_8_xtb.xyz --chrg -1 --grad --gbsa Water
          hostname                   : comp0810
          coordinate file            : 9_8_xtb.xyz
          omp threads                :                     1
          number of atoms            :                     6
          number of electrons        :                    22
          charge                     :                    -1
          spin                       :                   0.0
          first test random number   :      0.69289876795206


molecular fragmentation (1/2 indicates fragments):
121111
# atoms in fragment 1/2:     5     1
 fragment masses (1/2) :       34.03       35.45
CMA distance (Bohr)    :   6.811
constraining FC (au)   :  0.0500
########################################################################
[WARNING] Please study the warnings concerning your input carefully
-2- prog_main: XTBPATH is not set, using XTBHOME instead
-1- prog_main: XTBHOME is not set, using HOME instead
########################################################################
           ------------------------------------------------- 
          |                 G F N 2 - x T B                 |
          | Geometry, Frequencies, Noncovalent interactions |
          |            JCTC 2019 parametrisation            |
           ------------------------------------------------- 
             k(s)              :                1.8500
             k(p)              :                2.2300
             k(d)              :                2.2300
             k(f)              :                2.0000
             kEN (H0ij)        :               -2.0000
             D4 a1             :                0.5200
             D4 a2             :                5.0000
             D4 s6             :                1.0000
             D4 s8             :                2.7000
             D4 s9             :                5.0000
             alphaj            :                2.0000

  Z AO/shell   Hii/eV     exponent
  1     Wed Apr 25 08:07:45 CEST 2018   EN: 2.200 GM2: 0.406  GM3: 0.0800  RAES: 1.40
     1s    -10.707211    1.230000
  6     Wed Apr 25 08:07:45 CEST 2018   EN: 2.550 GM2: 0.538  GM3: 0.1500  RAES: 3.00
     2s    -13.970922    2.096432
     2p    -10.063292    1.800000
  9     Mon Apr 23 13:58:50 CEST 2018   EN: 3.980 GM2: 0.532  GM3: 0.1426  RAES: 2.40
     2s    -23.458179    2.416361
     2p    -15.746583    2.308399
 17     Mon Apr 23 14:09:22 CEST 2018   EN: 3.160 GM2: 0.249  GM3: 0.1495  RAES: 2.50
     3s    -29.278781    2.485265
     3p    -12.673758    2.199650
     3d     -0.240338    2.476089

 Solvent             : Water
 Using internal parameter file: .param_gbsa2_Water
 Gsolv ref. state (COSMO-RS): gsolv [1 M gas/solution]
 temperature (mdtemp)       :    298.150000000000     
 dielectric constant        :    80.2000000000000     
 rho                        :    1.00000000000000     
 mass                       :    18.0000000000000     
 surface tension            :    15.5689454083859     
 probe radius               :   0.975313790000000     
 Gshift (Eh)                :   1.857443126794793E-003
 c1                         :    1.55243817000000     
 soset                      :   0.130326360000000     
 HB correction              :  T
           ------------------------------------------------- 
          |        Self-Consistent Charge Iterations        |
           ------------------------------------------------- 

          ...................................................
          :                      SETUP                      :
          :.................................................:
          :  # basis functions                  21          :
          :  # atomic orbitals                  20          :
          :  # shells                           10          :
          :  # electrons                        22          :
          :  max. iterations                   250          :
          :  Hamiltonian                  GFN2-xTB          :
          :  restarted?                      false          :
          :  GBSA solvation                   true          :
          :  PC potential                    false          :
          :  electronic temp.          300.0000000     K    :
          :  accuracy                    1.0000000          :
          :  -> integral cutoff          0.2500000E+02      :
          :  -> integral neglect         0.1000000E-07      :
          :  -> SCF convergence          0.1000000E-05 Eh   :
          :  -> wf. convergence          0.1000000E-03 e    :
          :  Broyden damping             0.4000000          :
          ...................................................

 iter      E             dE          RMSdq      gap      omega  full diag
   1    -13.2888663 -0.132889E+02  0.554E+00   12.38       0.0  T
   2    -13.3463923 -0.575260E-01  0.279E+00   12.10       1.0  T
   3    -13.3471646 -0.772287E-03  0.150E+00   11.76       1.0  T
   4    -13.3473216 -0.157015E-03  0.162E-01   11.58       1.0  T
   5    -13.3473500 -0.283817E-04  0.679E-02   11.66       1.0  T
   6    -13.3473535 -0.352016E-05  0.512E-02   11.67       1.0  T
   7    -13.3473588 -0.529153E-05  0.155E-02   11.68       2.6  T
   8    -13.3473588 -0.363647E-07  0.157E-03   11.68      25.9  T
   9    -13.3473588 -0.576869E-08  0.435E-04   11.68      94.0  T
  10    -13.3473588 -0.547526E-10  0.750E-05   11.68     544.0  T

   *** convergence criteria satisfied after 10 iterations ***

         #    Occupation            Energy/Eh            Energy/eV
      -------------------------------------------------------------
         1        2.0000           -0.9861420             -26.8343
       ...           ...                  ...                  ...
         5        2.0000           -0.5316457             -14.4668
         6        2.0000           -0.5315302             -14.4637
         7        2.0000           -0.4554434             -12.3932
         8        2.0000           -0.4553193             -12.3899
         9        2.0000           -0.3880825             -10.5603
        10        2.0000           -0.3880798             -10.5602
        11        2.0000           -0.3880268             -10.5587 (HOMO)
        12                          0.0412822               1.1233 (LUMO)
        13                          0.1381848               3.7602
        14                          0.1390996               3.7851
        15                          0.1391570               3.7867
        16                          0.1413432               3.8461
       ...                                ...                  ...
        20                          0.2018849               5.4936
      -------------------------------------------------------------
                  HL-Gap            0.4293089 Eh           11.6821 eV
             Fermi-level           -0.1733723 Eh           -4.7177 eV

 SCC (total)                   0 d,  0 h,  0 min,  0.007 sec
 SCC setup                      ...        0 min,  0.000 sec (  4.868%)
 Dispersion                     ...        0 min,  0.000 sec (  0.522%)
 integral evaluation            ...        0 min,  0.001 sec ( 17.419%)
 zeroth order Hamiltonian       ...        0 min,  0.000 sec (  0.566%)
 iterations                     ...        0 min,  0.004 sec ( 55.228%)
 molecular gradient             ...        0 min,  0.001 sec ( 18.718%)
 printout                       ...        0 min,  0.000 sec (  1.912%)

         :::::::::::::::::::::::::::::::::::::::::::::::::::::
         ::                     SUMMARY                     ::
         :::::::::::::::::::::::::::::::::::::::::::::::::::::
         :: total energy             -13.288761163190 Eh    ::
         :: total w/o Gsasa/hb       -13.289213734588 Eh    ::
         :: gradient norm              0.014623398694 Eh/a0 ::
         :: HOMO-LUMO gap             11.682090785503 eV    ::
         ::.................................................::
         :: SCC energy               -13.345156719582 Eh    ::
         :: -> isotropic ES            0.163578179823 Eh    ::
         :: -> anisotropic ES         -0.001311724736 Eh    ::
         :: -> anisotropic XC         -0.001444217306 Eh    ::
         :: -> dispersion             -0.001933230151 Eh    ::
         :: -> Gsolv                  -0.097812288315 Eh    ::
         ::    -> Gborn               -0.098264859713 Eh    ::
         ::    -> Gsasa                0.000344658579 Eh    ::
         ::    -> Ghb                 -0.001749530307 Eh    ::
         ::    -> Gshift               0.001857443127 Eh    ::
         :: repulsion energy           0.056395641277 Eh    ::
         :: add. restraining           0.000000000000 Eh    ::
         :::::::::::::::::::::::::::::::::::::::::::::::::::::

           -------------------------------------------------
          |                Property Printout                |
           -------------------------------------------------

    * Orbital Energies and Occupations

         #    Occupation            Energy/Eh            Energy/eV
      -------------------------------------------------------------
         1        2.0000           -0.9861420             -26.8343
         2        2.0000           -0.8094727             -22.0269
         3        2.0000           -0.6063535             -16.4997
         4        2.0000           -0.5330977             -14.5063
         5        2.0000           -0.5316457             -14.4668
         6        2.0000           -0.5315302             -14.4637
         7        2.0000           -0.4554434             -12.3932
         8        2.0000           -0.4553193             -12.3899
         9        2.0000           -0.3880825             -10.5603
        10        2.0000           -0.3880798             -10.5602
        11        2.0000           -0.3880268             -10.5587 (HOMO)
        12                          0.0412822               1.1233 (LUMO)
        13                          0.1381848               3.7602
        14                          0.1390996               3.7851
        15                          0.1391570               3.7867
        16                          0.1413432               3.8461
        17                          0.1413437               3.8462
        18                          0.1455663               3.9611
        19                          0.2003039               5.4505
        20                          0.2018849               5.4936
      -------------------------------------------------------------
                  HL-Gap            0.4293089 Eh           11.6821 eV
             Fermi-level           -0.1733723 Eh           -4.7177 eV

     #   Z        covCN         q      C6AA      α(0)
     1   9 F      0.782    -0.284    12.135     4.115
     2  17 Cl     0.006    -0.994   126.777    17.136
     3   6 C      3.560     0.084    20.027     6.526
     4   1 H      0.924     0.065     2.146     2.291
     5   1 H      0.924     0.065     2.144     2.290
     6   1 H      0.924     0.065     2.146     2.291

 Mol. C6AA /au·bohr⁶  :        552.591528
 Mol. C8AA /au·bohr⁸  :      15885.522014
 Mol. α(0) /au        :         34.648186


Wiberg/Mayer (AO) data.
largest (>0.10) Wiberg bond orders for each atom
          total WBO             WBO to atom ...
     1  F   0.969        C    3 0.924
     2  Cl  0.011
     3  C   3.874        H    5 0.981    H    6 0.981    H    4 0.981    F    1 0.924
     4  H   0.996        C    3 0.981
     5  H   0.996        C    3 0.981
     6  H   0.996        C    3 0.981

molecular dipole:
                 x           y           z       tot (Debye)
 q only:       -2.578      -0.063       0.032
   full:       -2.423      -0.059       0.030       6.160
molecular quadrupole (traceless):
                xx          xy          yy          xz          yz          zz
 q only:      -17.674      -0.609       8.832       0.319       0.006       8.842
  q+dip:      -20.352      -0.697      10.170       0.365       0.003      10.182
   full:      -19.577      -0.670       9.783       0.354       0.005       9.794


           -------------------------------------------------
          | TOTAL ENERGY              -13.288761163190 Eh   |
          | GRADIENT NORM               0.014623398694 Eh/α |
          | HOMO-LUMO GAP              11.682090785503 eV   |
           -------------------------------------------------

------------------------------------------------------------------------
 * finished run on 2020/08/20 at 17:46:32.331     
------------------------------------------------------------------------
 total:
 * wall-time:     0 d,  0 h,  0 min,  0.090 sec
 *  cpu-time:     0 d,  0 h,  0 min,  0.019 sec
 * ratio c/w:     0.213 speedup
 SCF:
 * wall-time:     0 d,  0 h,  0 min,  0.007 sec
 *  cpu-time:     0 d,  0 h,  0 min,  0.007 sec
 * ratio c/w:     0.998 speedup

