
                                 *****************
                                 * O   R   C   A *
                                 *****************

           --- An Ab Initio, DFT and Semiempirical electronic structure package ---

                  #######################################################
                  #                        -***-                        #
                  #          Department of theory and spectroscopy      #
                  #               Directorship: Frank Neese             #
                  #        Max Planck Institute fuer Kohlenforschung    #
                  #                Kaiser Wilhelm Platz 1               #
                  #                 D-45470 Muelheim/Ruhr               #
                  #                      Germany                        #
                  #                                                     #
                  #                  All rights reserved                #
                  #                        -***-                        #
                  #######################################################


                         Program Version 4.2.1 -  RELEASE  -


 With contributions from (in alphabetic order):
   Daniel Aravena         : Magnetic Suceptibility
   Michael Atanasov       : Ab Initio Ligand Field Theory (pilot matlab implementation)
   Alexander A. Auer      : GIAO ZORA, VPT2
   Ute Becker             : Parallelization
   Giovanni Bistoni       : ED, misc. LED, open-shell LED, HFLD
   Martin Brehm           : Molecular dynamics
   Dmytro Bykov           : SCF Hessian
   Vijay G. Chilkuri      : MRCI spin determinant printing, contributions to CSF-ICE
   Dipayan Datta          : RHF DLPNO-CCSD density
   Achintya Kumar Dutta   : EOM-CC, STEOM-CC
   Dmitry Ganyushin       : Spin-Orbit,Spin-Spin,Magnetic field MRCI
   Miquel Garcia          : C-PCM Hessian, Gaussian charge scheme
   Yang Guo               : DLPNO-NEVPT2, CIM, IAO-localization
   Andreas Hansen         : Spin unrestricted coupled pair/coupled cluster methods
   Benjamin Helmich-Paris : CASSCF linear response (MC-RPA)
   Lee Huntington         : MR-EOM, pCC
   Robert Izsak           : Overlap fitted RIJCOSX, COSX-SCS-MP3, EOM
   Christian Kollmar      : KDIIS, OOCD, Brueckner-CCSD(T), CCSD density
   Simone Kossmann        : Meta GGA functionals, TD-DFT gradient, OOMP2, MP2 Hessian
   Martin Krupicka        : AUTO-CI
   Lucas Lang             : DCDCAS
   Dagmar Lenk            : GEPOL surface, SMD
   Dimitrios Liakos       : Extrapolation schemes; Compound Job, initial MDCI parallelization
   Dimitrios Manganas     : Further ROCIS development; embedding schemes
   Dimitrios Pantazis     : SARC Basis sets
   Taras Petrenko         : DFT Hessian,TD-DFT gradient, ASA, ECA, R-Raman, ABS, FL, XAS/XES, NRVS
   Peter Pinski           : DLPNO-MP2, DLPNO-MP2 Gradient
   Christoph Reimann      : Effective Core Potentials
   Marius Retegan         : Local ZFS, SOC
   Christoph Riplinger    : Optimizer, TS searches, QM/MM, DLPNO-CCSD(T), (RO)-DLPNO pert. Triples
   Tobias Risthaus        : Range-separated hybrids, TD-DFT gradient, RPA, STAB
   Michael Roemelt        : Original ROCIS implementation
   Masaaki Saitow         : Open-shell DLPNO-CCSD energy and density
   Barbara Sandhoefer     : DKH picture change effects
   Avijit Sen             : IP-ROCIS
   Kantharuban Sivalingam : CASSCF convergence, NEVPT2, FIC-MRCI
   Bernardo de Souza      : ESD, SOC TD-DFT
   Georgi Stoychev        : AutoAux, RI-MP2 NMR
   Willem Van den Heuvel  : Paramagnetic NMR
   Boris Wezisla          : Elementary symmetry handling
   Frank Wennmohs         : Technical directorship


 We gratefully acknowledge several colleagues who have allowed us to
 interface, adapt or use parts of their codes:
   Stefan Grimme, W. Hujo, H. Kruse,             : VdW corrections, initial TS optimization,
                  C. Bannwarth                     DFT functionals, gCP, sTDA/sTD-DF
   Ed Valeev, F. Pavosevic, A. Kumar             : LibInt (2-el integral package), F12 methods
   Garnet Chan, S. Sharma, J. Yang, R. Olivares  : DMRG
   Ulf Ekstrom                                   : XCFun DFT Library
   Mihaly Kallay                                 : mrcc  (arbitrary order and MRCC methods)
   Andreas Klamt, Michael Diedenhofen            : otool_cosmo (COSMO solvation model)
   Jiri Pittner, Ondrej Demel                    : Mk-CCSD
   Frank Weinhold                                : gennbo (NPA and NBO analysis)
   Christopher J. Cramer and Donald G. Truhlar   : smd solvation model
   Lars Goerigk                                  : TD-DFT with DH, B97 family of functionals
   V. Asgeirsson, H. Jonsson                     : NEB implementation
   FAccTs GmbH                                   : IRC, NEB, NEB-TS, Multilevel, MM, QM/MM, CI optimization
   S Lehtola, MJT Oliveira, MAL Marques          : LibXC Library


 Your calculation uses the libint2 library for the computation of 2-el integrals
 For citations please refer to: http://libint.valeyev.net

 Your ORCA version has been built with support for libXC version: 4.2.3
 For citations please refer to: https://tddft.org/programs/libxc/

 This ORCA versions uses:
   CBLAS   interface :  Fast vector & matrix operations
   LAPACKE interface :  Fast linear algebra routines
   SCALAPACK package :  Parallel linear algebra routines


Your calculation utilizes the atom-pairwise dispersion correction
with the Becke-Johnson damping scheme (D3BJ)
Cite in your paper:
S.Grimme, S.Ehrlich, L.Goerigk, J Comput Chem, (2011), 32, 1456–1465 
S.Grimme, J.Antony, S.Ehrlich and H.Krieg, J.Chem.Phys., 132, (2010), 154104 
   

----- Orbital basis set information -----
Your calculation utilizes the basis: def2-SVP
   F. Weigend and R. Ahlrichs, Phys. Chem. Chem. Phys. 7, 3297 (2005).

----- AuxJ basis set information -----
Your calculation utilizes the auxiliary basis: def2/J
   F. Weigend, Phys. Chem. Chem. Phys. 8, 1057 (2006).

================================================================================
                                        WARNINGS
                       Please study these warnings very carefully!
================================================================================


WARNING: your system is open-shell and RHF/RKS was chosen
  ===> : WILL SWITCH to UHF/UKS


WARNING: Geometry Optimization
  ===> : Switching off AutoStart
         For restart on a previous wavefunction, please use MOREAD

INFO   : the flag for use of LIBINT has been found!

================================================================================
                                       INPUT FILE
================================================================================
NAME = m-mfaV_2-6_hl1d_fbond_scan_3_orca.inp
|  1> ! LooseOpt PBE RI D3BJ def2-SVP def2/J CPCM(Water)
|  2> %cpcm
|  3>  surfacetype vdw_gaussian
|  4> end
|  5> %geom Constraints
|  6> { B 2 6 1.8872432992239334 C }
|  7>     end
|  8> end
|  9> %geom MaxIter 100 end
| 10> %pal nprocs 4
| 11> end
| 12> %output 
| 13> xyzfile=True 
| 14> end 
| 15> %scf 
| 16> maxiter 250 
| 17> end
| 18> %output
| 19> Print[P_Hirshfeld] = 1
| 20> end
| 21> % maxcore
| 22> 4000
| 23> *xyz 0 2
| 24> C   -1.18661537   0.11817484   0.01930314 
| 25> C    0.20653315  -0.48737791   0.18226355 
| 26> C    1.33115898   0.32352797  -0.31054967 
| 27> H   -1.23645232   1.13204068   0.46726492 
| 28> H   -1.96084427  -0.50542939   0.50888540 
| 29> H   -1.45311485   0.21481088  -1.05355103 
| 30> H    0.48196675  -0.57038269   1.24795347 
| 31> H    0.24398765  -1.52720957  -0.21320012 
| 32> H    1.23662970   1.41585108  -0.43212883 
| 33> H    2.33665060  -0.11410590  -0.41624082 
| 34> *
| 35> 
| 36>                          ****END OF INPUT****
================================================================================

                       *****************************
                       * Geometry Optimization Run *
                       *****************************

Geometry optimization settings:
Update method            Update   .... BFGS
Choice of coordinates    CoordSys .... Z-matrix Internals
Initial Hessian          InHess   .... Almoef's Model

Convergence Tolerances:
Energy Change            TolE     ....  3.0000e-05 Eh
Max. Gradient            TolMAXG  ....  2.0000e-03 Eh/bohr
RMS Gradient             TolRMSG  ....  5.0000e-04 Eh/bohr
Max. Displacement        TolMAXD  ....  1.0000e-02 bohr
RMS Displacement         TolRMSD  ....  7.0000e-03 bohr
Strict Convergence                ....  False
------------------------------------------------------------------------------
                        ORCA OPTIMIZATION COORDINATE SETUP
------------------------------------------------------------------------------

The optimization will be done in new redundant internal coordinates
Making redundant internal coordinates   ...  (new redundants) done
Evaluating the initial hessian          ...  (Almloef) done
Evaluating the coordinates              ...  done
Calculating the B-matrix                .... done
Calculating the G-matrix                .... done
Diagonalizing the G-matrix              .... done
Imposing constraints:
 Iter   0:  RMS(Cart)=    0.0238488123 RMS(Int)=    0.0590872496
 Iter   1:  RMS(Cart)=    0.0074569607 RMS(Int)=    0.0184968939
 Iter   2:  RMS(Cart)=    0.0023343549 RMS(Int)=    0.0057925711
 Iter   3:  RMS(Cart)=    0.0007310372 RMS(Int)=    0.0018142504
 Iter   4:  RMS(Cart)=    0.0002289630 RMS(Int)=    0.0005682505
 Iter   5:  RMS(Cart)=    0.0000717147 RMS(Int)=    0.0001779868
 Iter   6:  RMS(Cart)=    0.0000224624 RMS(Int)=    0.0000557490
 Iter   7:  RMS(Cart)=    0.0000070357 RMS(Int)=    0.0000174617
 Iter   8:  RMS(Cart)=    0.0000022037 RMS(Int)=    0.0000054694
 Iter   9:  RMS(Cart)=    0.0000006902 RMS(Int)=    0.0000017131
 Iter  10:  RMS(Cart)=    0.0000002162 RMS(Int)=    0.0000005366
 Iter  11:  RMS(Cart)=    0.0000000677 RMS(Int)=    0.0000001681
 Iter  12:  RMS(Cart)=    0.0000000212 RMS(Int)=    0.0000000526
CONVERGED
The first mode is                       ....   16
The number of degrees of freedom        ....   24
Storing new coordinates                 .... done

    -----------------------------------------------------------------
                    Redundant Internal Coordinates


    -----------------------------------------------------------------
         Definition                    Initial Value    Approx d2E/dq
    -----------------------------------------------------------------
      1. B(C   1,C   0)                  1.5279         0.376633   
      2. B(C   2,C   1)                  1.4336         0.463193   
      3. B(H   3,C   0)                  1.1096         0.335158   
      4. B(H   4,C   0)                  1.1083         0.336869   
      5. B(H   5,C   0)                  1.1098         0.334992   
      6. B(H   6,C   1)                  1.0739         0.342257   
      7. B(H   6,C   2)                  1.8872         0.013333 C 
      8. B(H   7,C   1)                  1.1131         0.330774   
      9. B(H   8,C   2)                  1.1032         0.343148   
     10. B(H   9,C   2)                  1.1018         0.344971   
     11. A(H   4,C   0,H   5)          107.9588         0.284590   
     12. A(C   1,C   0,H   4)          111.5248         0.321222   
     13. A(C   1,C   0,H   3)          111.1007         0.320954   
     14. A(H   3,C   0,H   5)          107.4518         0.284365   
     15. A(C   1,C   0,H   5)          110.8999         0.320928   
     16. A(H   3,C   0,H   4)          107.7312         0.284612   
     17. A(C   0,C   1,C   2)          117.8714         0.377566   
     18. A(C   0,C   1,H   6)          112.8158         0.322057   
     19. A(C   2,C   1,H   6)           96.5861         0.333229   
     20. A(C   0,C   1,H   7)          110.6658         0.320264   
     21. A(C   2,C   1,H   7)          111.7479         0.331350   
     22. A(H   6,C   1,H   7)          105.8261         0.284731   
     23. A(C   1,C   2,H   8)          121.1272         0.333373   
     24. A(C   1,C   2,H   9)          120.7330         0.333666   
     25. A(H   8,C   2,H   9)          117.4475         0.286718   
     26. D(H   7,C   1,C   0,H   4)     56.6268         0.011316   
     27. D(C   2,C   1,C   0,H   4)   -173.0245         0.011316   
     28. D(C   2,C   1,C   0,H   3)    -52.8186         0.011316   
     29. D(H   7,C   1,C   0,H   3)    176.8327         0.011316   
     30. D(H   6,C   1,C   0,H   3)     58.4803         0.011316   
     31. D(H   6,C   1,C   0,H   5)    177.9163         0.011316   
     32. D(H   7,C   1,C   0,H   5)    -63.7313         0.011316   
     33. D(H   6,C   1,C   0,H   4)    -61.7256         0.011316   
     34. D(C   2,C   1,C   0,H   5)     66.6174         0.011316   
     35. D(H   9,C   2,C   1,H   7)    -37.9427         0.016949   
     36. D(H   8,C   2,C   1,H   6)    -98.1881         0.016949   
     37. D(H   8,C   2,C   1,H   7)    151.8358         0.016949   
     38. D(H   9,C   2,C   1,C   0)   -167.7928         0.016949   
     39. D(H   8,C   2,C   1,C   0)     21.9858         0.016949   
     40. D(H   9,C   2,C   1,H   6)     72.0333         0.016949   
    -----------------------------------------------------------------

Number of atoms                         .... 10
Number of degrees of freedom            .... 40

         *************************************************************
         *                GEOMETRY OPTIMIZATION CYCLE   1            *
         *************************************************************
---------------------------------
CARTESIAN COORDINATES (ANGSTROEM)
---------------------------------
  C     -1.190940    0.117840    0.017895
  C      0.210442   -0.471192    0.171855
  C      1.320076    0.309112   -0.291888
  H     -1.247810    1.134151    0.459542
  H     -1.953676   -0.511064    0.518903
  H     -1.468561    0.204348   -1.053108
  H      0.524847   -0.535517    1.196702
  H      0.244670   -1.511728   -0.222063
  H      1.239309    1.403347   -0.406987
  H      2.321542   -0.139396   -0.390850

----------------------------
CARTESIAN COORDINATES (A.U.)
----------------------------
  NO LB      ZA    FRAG     MASS         X           Y           Z
   0 C     6.0000    0    12.011   -2.250551    0.222686    0.033817
   1 C     6.0000    0    12.011    0.397677   -0.890425    0.324758
   2 C     6.0000    0    12.011    2.494583    0.584137   -0.551588
   3 H     1.0000    0     1.008   -2.358018    2.143234    0.868409
   4 H     1.0000    0     1.008   -3.691912   -0.965771    0.980584
   5 H     1.0000    0     1.008   -2.775179    0.386162   -1.990087
   6 H     1.0000    0     1.008    0.991817   -1.011981    2.261439
   7 H     1.0000    0     1.008    0.462359   -2.856753   -0.419638
   8 H     1.0000    0     1.008    2.341955    2.651942   -0.769095
   9 H     1.0000    0     1.008    4.387079   -0.263420   -0.738599

--------------------------------
INTERNAL COORDINATES (ANGSTROEM)
--------------------------------
 C      0   0   0     0.000000000000     0.00000000     0.00000000
 C      1   0   0     1.527780425008     0.00000000     0.00000000
 C      2   1   0     1.471467455817   116.28170326     0.00000000
 H      1   2   3     1.109539282515   111.10497194   306.15130408
 H      1   2   3     1.108153154837   111.52604934   185.94828948
 H      1   2   3     1.109674081500   110.89394869    65.59172689
 H      2   1   3     1.103833532332   111.11984246   113.50755697
 H      2   1   3     1.113123638685   111.28768928   230.54973343
 H      3   2   1     1.103126037026   121.13846111    22.04299022
 H      3   2   1     1.101683902601   120.71524777   192.24320951

---------------------------
INTERNAL COORDINATES (A.U.)
---------------------------
 C      0   0   0     0.000000000000     0.00000000     0.00000000
 C      1   0   0     2.887086596031     0.00000000     0.00000000
 C      2   1   0     2.780670506472   116.28170326     0.00000000
 H      1   2   3     2.096725378782   111.10497194   306.15130408
 H      1   2   3     2.094105977083   111.52604934   185.94828948
 H      1   2   3     2.096980111946   110.89394869    65.59172689
 H      2   1   3     2.085943073547   111.11984246   113.50755697
 H      2   1   3     2.103498830308   111.28768928   230.54973343
 H      3   2   1     2.084606101176   121.13846111    22.04299022
 H      3   2   1     2.081880862065   120.71524777   192.24320951

---------------------
BASIS SET INFORMATION
---------------------
There are 2 groups of distinct atoms

 Group   1 Type C   : 7s4p1d contracted to 3s2p1d pattern {511/31/1}
 Group   2 Type H   : 4s1p contracted to 2s1p pattern {31/1}

Atom   0C    basis set group =>   1
Atom   1C    basis set group =>   1
Atom   2C    basis set group =>   1
Atom   3H    basis set group =>   2
Atom   4H    basis set group =>   2
Atom   5H    basis set group =>   2
Atom   6H    basis set group =>   2
Atom   7H    basis set group =>   2
Atom   8H    basis set group =>   2
Atom   9H    basis set group =>   2
---------------------------------
AUXILIARY/J BASIS SET INFORMATION
---------------------------------
There are 2 groups of distinct atoms

 Group   1 Type C   : 12s5p4d2f1g contracted to 6s4p3d1f1g pattern {711111/2111/211/2/1}
 Group   2 Type H   : 5s2p1d contracted to 3s1p1d pattern {311/2/1}

Atom   0C    basis set group =>   1
Atom   1C    basis set group =>   1
Atom   2C    basis set group =>   1
Atom   3H    basis set group =>   2
Atom   4H    basis set group =>   2
Atom   5H    basis set group =>   2
Atom   6H    basis set group =>   2
Atom   7H    basis set group =>   2
Atom   8H    basis set group =>   2
Atom   9H    basis set group =>   2
[1589382181.286219] [ty2019:9237 :0]            sys.c:618  UCX  ERROR shmget(size=2097152 flags=0xfb0) for mm_recv_desc failed: Operation not permitted, please check shared memory limits by 'ipcs -l'
[1589382181.292594] [ty2019:9238 :0]            sys.c:618  UCX  ERROR shmget(size=2097152 flags=0xfb0) for mm_recv_desc failed: Operation not permitted, please check shared memory limits by 'ipcs -l'
[1589382181.300270] [ty2019:9236 :0]            sys.c:618  UCX  ERROR shmget(size=2097152 flags=0xfb0) for mm_recv_desc failed: Operation not permitted, please check shared memory limits by 'ipcs -l'
[1589382181.302180] [ty2019:9239 :0]            sys.c:618  UCX  ERROR shmget(size=2097152 flags=0xfb0) for mm_recv_desc failed: Operation not permitted, please check shared memory limits by 'ipcs -l'
[1589382181.309397] [ty2019:9238 :0]            sys.c:618  UCX  ERROR shmget(size=2097152 flags=0xb80) for ucp_am_bufs failed: Operation not permitted, please check shared memory limits by 'ipcs -l'
[1589382181.309389] [ty2019:9236 :0]            sys.c:618  UCX  ERROR shmget(size=2097152 flags=0xb80) for ucp_am_bufs failed: Operation not permitted, please check shared memory limits by 'ipcs -l'
[1589382181.314468] [ty2019:9239 :0]            sys.c:618  UCX  ERROR shmget(size=2097152 flags=0xb80) for ucp_am_bufs failed: Operation not permitted, please check shared memory limits by 'ipcs -l'
[1589382181.314449] [ty2019:9237 :0]            sys.c:618  UCX  ERROR shmget(size=2097152 flags=0xb80) for ucp_am_bufs failed: Operation not permitted, please check shared memory limits by 'ipcs -l'


           ************************************************************
           *        Program running with 4 parallel MPI-processes     *
           *              working on a common directory               *
           ************************************************************
------------------------------------------------------------------------------
                           ORCA GTO INTEGRAL CALCULATION
                           -- RI-GTO INTEGRALS CHOSEN --
------------------------------------------------------------------------------

                         BASIS SET STATISTICS AND STARTUP INFO

Gaussian basis set:
 # of primitive gaussian shells          ...   71
 # of primitive gaussian functions       ...  121
 # of contracted shells                  ...   39
 # of contracted basis functions         ...   77
 Highest angular momentum                ...    2
 Maximum contraction depth               ...    5
Auxiliary gaussian basis set:
 # of primitive gaussian shells          ...  128
 # of primitive gaussian functions       ...  322
 # of contracted shells                  ...   80
 # of contracted aux-basis functions     ...  224
 Highest angular momentum                ...    4
 Maximum contraction depth               ...    7
Ratio of auxiliary to basis functions    ...  2.91
Integral package used                  ... LIBINT
 One Electron integrals                  ... done
 Ordering auxiliary basis shells         ... done
 Integral threshhold             Thresh  ...  2.500e-11
 Primitive cut-off               TCut    ...  2.500e-12
 Pre-screening matrix                    ... done
 Shell pair data                         ... 
 Ordering of the shell pairs             ... done (   0.000 sec) 778 of 780 pairs
 Determination of significant pairs      ... done (   0.000 sec)
 Creation of shell pair data             ... done (   0.000 sec)
 Storage of shell pair data              ... done (   0.043 sec)
 Shell pair data done in (   0.043 sec)
 Computing two index integrals           ... done
 Cholesky decomposition of the V-matrix  ... done


Timings:
 Total evaluation time                   ...   0.142 sec (  0.002 min)
 One electron matrix time                ...   0.005 sec (  0.000 min) =  3.3%
 Schwartz matrix evaluation time         ...   0.067 sec (  0.001 min) = 47.4%
 Two index repulsion integral time       ...   0.001 sec (  0.000 min) =  1.0%
 Cholesky decomposition of V             ...   0.001 sec (  0.000 min) =  0.8%
 Three index repulsion integral time     ...   0.000 sec (  0.000 min) =  0.0%

[1589382182.324796] [ty2019:9259 :0]            sys.c:618  UCX  ERROR shmget(size=2097152 flags=0xfb0) for mm_recv_desc failed: Operation not permitted, please check shared memory limits by 'ipcs -l'
[1589382182.334350] [ty2019:9260 :0]            sys.c:618  UCX  ERROR shmget(size=2097152 flags=0xfb0) for mm_recv_desc failed: Operation not permitted, please check shared memory limits by 'ipcs -l'
[1589382182.342343] [ty2019:9258 :0]            sys.c:618  UCX  ERROR shmget(size=2097152 flags=0xfb0) for mm_recv_desc failed: Operation not permitted, please check shared memory limits by 'ipcs -l'
[1589382182.342785] [ty2019:9261 :0]            sys.c:618  UCX  ERROR shmget(size=2097152 flags=0xfb0) for mm_recv_desc failed: Operation not permitted, please check shared memory limits by 'ipcs -l'
[1589382182.349691] [ty2019:9258 :0]            sys.c:618  UCX  ERROR shmget(size=2097152 flags=0xb80) for ucp_am_bufs failed: Operation not permitted, please check shared memory limits by 'ipcs -l'
[1589382182.350346] [ty2019:9259 :0]            sys.c:618  UCX  ERROR shmget(size=2097152 flags=0xb80) for ucp_am_bufs failed: Operation not permitted, please check shared memory limits by 'ipcs -l'


           ************************************************************
           *        Program running with 4 parallel MPI-processes     *
           *              working on a common directory               *
           ************************************************************
[1589382182.353905] [ty2019:9260 :0]            sys.c:618  UCX  ERROR shmget(size=2097152 flags=0xb80) for ucp_am_bufs failed: Operation not permitted, please check shared memory limits by 'ipcs -l'
[1589382182.354070] [ty2019:9261 :0]            sys.c:618  UCX  ERROR shmget(size=2097152 flags=0xb80) for ucp_am_bufs failed: Operation not permitted, please check shared memory limits by 'ipcs -l'
-------------------------------------------------------------------------------
                                 ORCA SCF
-------------------------------------------------------------------------------

------------
SCF SETTINGS
------------
Hamiltonian:
 Density Functional     Method          .... DFT(GTOs)
 Exchange Functional    Exchange        .... PBE
   PBE kappa parameter   XKappa         ....  0.804000
   PBE mue parameter    XMuePBE         ....  0.219520
 Correlation Functional Correlation     .... PBE
   PBE beta parameter  CBetaPBE         ....  0.066725
 LDA part of GGA corr.  LDAOpt          .... PW91-LDA
 Gradients option       PostSCFGGA      .... off
   Density functional embedding theory  .... OFF
   NL short-range parameter             ....  6.400000
 RI-approximation to the Coulomb term is turned on
   Number of auxiliary basis functions  .... 224


General Settings:
 Integral files         IntName         .... m-mfaV_2-6_hl1d_fbond_scan_3_orca
 Hartree-Fock type      HFTyp           .... UHF
 Total Charge           Charge          ....    0
 Multiplicity           Mult            ....    2
 Number of Electrons    NEL             ....   25
 Basis Dimension        Dim             ....   77
 Nuclear Repulsion      ENuc            ....     76.2688804375 Eh

Convergence Acceleration:
 DIIS                   CNVDIIS         .... on
   Start iteration      DIISMaxIt       ....    12
   Startup error        DIISStart       ....  0.200000
   # of expansion vecs  DIISMaxEq       ....     5
   Bias factor          DIISBfac        ....   1.050
   Max. coefficient     DIISMaxC        ....  10.000
 Newton-Raphson         CNVNR           .... off
 SOSCF                  CNVSOSCF        .... off
 Level Shifting         CNVShift        .... on
   Level shift para.    LevelShift      ....    0.2500
   Turn off err/grad.   ShiftErr        ....    0.0010
 Zerner damping         CNVZerner       .... off
 Static damping         CNVDamp         .... on
   Fraction old density DampFac         ....    0.7000
   Max. Damping (<1)    DampMax         ....    0.9800
   Min. Damping (>=0)   DampMin         ....    0.0000
   Turn off err/grad.   DampErr         ....    0.1000
 Fernandez-Rico         CNVRico         .... off

SCF Procedure:
 Maximum # iterations   MaxIter         ....   250
 SCF integral mode      SCFMode         .... Direct
   Integral package                     .... LIBINT
 Reset frequency        DirectResetFreq ....    20
 Integral Threshold     Thresh          ....  2.500e-11 Eh
 Primitive CutOff       TCut            ....  2.500e-12 Eh

Convergence Tolerance:
 Convergence Check Mode ConvCheckMode   .... Total+1el-Energy
 Convergence forced     ConvForced      .... 0
 Energy Change          TolE            ....  1.000e-08 Eh
 1-El. energy change                    ....  1.000e-05 Eh
 DIIS Error             TolErr          ....  5.000e-07


Diagonalization of the overlap matrix:
Smallest eigenvalue                        ... 2.794e-03
Time for diagonalization                   ...    0.003 sec
Threshold for overlap eigenvalues          ... 1.000e-08
Number of eigenvalues below threshold      ... 0
Time for construction of square roots      ...    0.001 sec
Total time needed                          ...    0.004 sec

-------------------
DFT GRID GENERATION
-------------------

General Integration Accuracy     IntAcc      ...  4.340
Radial Grid Type                 RadialGrid  ... Gauss-Chebyshev
Angular Grid (max. acc.)         AngularGrid ... Lebedev-110
Angular grid pruning method      GridPruning ... 3 (G Style)
Weight generation scheme         WeightScheme... Becke
Basis function cutoff            BFCut       ...    1.0000e-11
Integration weight cutoff        WCut        ...    1.0000e-14
Grids for H and He will be reduced by one unit

# of grid points (after initial pruning)     ...  10526 (   0.0 sec)
# of grid points (after weights+screening)   ...  10039 (   0.0 sec)
nearest neighbour list constructed           ...    0.0 sec
Grid point re-assignment to atoms done       ...    0.0 sec
Grid point division into batches done        ...    0.0 sec
Reduced shell lists constructed in    0.0 sec

Total number of grid points                  ...    10039
Total number of batches                      ...      163
Average number of points per batch           ...       61
Average number of grid points per atom       ...     1004
Average number of shells per batch           ...    36.02 (92.37%)
Average number of basis functions per batch  ...    71.26 (92.55%)
Average number of large shells per batch     ...    33.67 (93.46%)
Average number of large basis fcns per batch ...    66.33 (93.08%)
Maximum spatial batch extension              ...  17.55, 15.16, 18.31 au
Average spatial batch extension              ...   0.56,  0.54,  0.64 au

Time for grid setup =    0.028 sec

------------------------------
INITIAL GUESS: MODEL POTENTIAL
------------------------------
Loading Hartree-Fock densities                     ... done
Calculating cut-offs                               ... done
Setting up the integral package                    ... done
Initializing the effective Hamiltonian             ... done
Starting the Coulomb interaction                   ... done (   0.0 sec)
Reading the grid                                   ... done
Mapping shells                                     ... done
Starting the XC term evaluation                    ... done (   0.0 sec)
  promolecular density results
     # of electrons  =     24.992375197
     EX              =    -17.358189269
     EC              =     -0.782200367
     EX+EC           =    -18.140389636
Transforming the Hamiltonian                       ... done (   0.0 sec)
Diagonalizing the Hamiltonian                      ... done (   0.0 sec)
Back transforming the eigenvectors                 ... done (   0.0 sec)
Now organizing SCF variables                       ... done
                      ------------------
                      INITIAL GUESS DONE (   0.1 sec)
                      ------------------

--------------------
CPCM SOLVATION MODEL
--------------------
CPCM parameters:
  Epsilon                                         ...      80.4000
  Refrac                                          ...       1.3300
  Rsolv                                           ...       1.3000
  Surface type                                    ... GAUSSIAN VDW
  Epsilon function type                           ...         CPCM
Radii:
 Radius for C  used is    3.8550 Bohr (=   2.0400 Ang.)
 Radius for H  used is    2.4944 Bohr (=   1.3200 Ang.)
Calculating surface                               ...        done! (  0.0s)
GEPOL surface points                              ...          614
GEPOL Volume                                      ...     535.4137
GEPOL Surface-area                                ...     352.9994
Calculating surface distance matrix               ...        done! (  0.0s)
Performing Cholesky decomposition & store         ...        done! (  0.0s)
Overall time for CPCM initialization              ...                 0.0s
--------------
SCF ITERATIONS
--------------
ITER       Energy         Delta-E        Max-DP      RMS-DP      [F,P]     Damp
               ***  Starting incremental Fock matrix formation  ***
  0   -118.0966164863   0.000000000000 0.03792575  0.00161215  0.1522881 0.7000
  1   -118.1451598372  -0.048543350902 0.02581645  0.00116835  0.0726032 0.7000
                               ***Turning on DIIS***
  2   -118.1627406761  -0.017580838900 0.03155971  0.00190454  0.0202922 0.0000
  3   -118.1865522543  -0.023811578125 0.02015544  0.00078238  0.0461125 0.0000
  4   -118.1954517038  -0.008899449565 0.00645351  0.00025604  0.0091170 0.0000
  5   -118.1959459348  -0.000494230931 0.00135349  0.00009951  0.0024602 0.0000
  6   -118.1959877688  -0.000041834021 0.00129019  0.00006632  0.0008576 0.0000
  7   -118.1959934361  -0.000005667290 0.00036296  0.00000833  0.0004046 0.0000
  8   -118.1959940147  -0.000000578631 0.00007532  0.00000277  0.0000403 0.0000
  9   -118.1959940595  -0.000000044816 0.00002256  0.00000080  0.0000090 0.0000
                 **** Energy Check signals convergence ****

               *****************************************************
               *                     SUCCESS                       *
               *           SCF CONVERGED AFTER  10 CYCLES          *
               *****************************************************

Setting up the final grid:

General Integration Accuracy     IntAcc      ...  4.670
Radial Grid Type                 RadialGrid  ... Gauss-Chebyshev
Angular Grid (max. acc.)         AngularGrid ... Lebedev-302
Angular grid pruning method      GridPruning ... 3 (G Style)
Weight generation scheme         WeightScheme... Becke
Basis function cutoff            BFCut       ...    1.0000e-11
Integration weight cutoff        WCut        ...    1.0000e-14
Grids for H and He will be reduced by one unit

# of grid points (after initial pruning)     ...  42394 (   0.0 sec)
# of grid points (after weights+screening)   ...  39954 (   0.0 sec)
nearest neighbour list constructed           ...    0.0 sec
Grid point re-assignment to atoms done       ...    0.0 sec
Grid point division into batches done        ...    0.1 sec
Reduced shell lists constructed in    0.1 sec

Total number of grid points                  ...    39954
Total number of batches                      ...      629
Average number of points per batch           ...       63
Average number of grid points per atom       ...     3995
Average number of shells per batch           ...    34.97 (89.68%)
Average number of basis functions per batch  ...    69.05 (89.68%)
Average number of large shells per batch     ...    31.75 (90.79%)
Average number of large basis fcns per batch ...    61.92 (89.67%)
Maximum spatial batch extension              ...  14.40, 15.80, 17.60 au
Average spatial batch extension              ...   0.43,  0.44,  0.47 au

Final grid set up in    0.1 sec
Final integration                            ... done (   0.1 sec)
Change in XC energy                          ...    -0.000595584
Integrated number of electrons               ...    24.999979830
Previous integrated no of electrons          ...    24.996493468

----------------
TOTAL SCF ENERGY
----------------

Total Energy       :         -118.19658965 Eh           -3216.29272 eV

Components:
Nuclear Repulsion  :           76.26888044 Eh            2075.38175 eV
Electronic Energy  :         -194.46547009 Eh           -5291.67446 eV
One Electron Energy:         -308.36371768 Eh           -8391.00335 eV
Two Electron Energy:          113.89824760 Eh            3099.32888 eV
CPCM Dielectric    :           -0.00126362 Eh              -0.03438 eV

Virial components:
Potential Energy   :         -235.00993153 Eh           -6394.94535 eV
Kinetic Energy     :          116.81334188 Eh            3178.65263 eV
Virial Ratio       :            2.01184152


DFT components:
N(Alpha)           :       12.999986172767 electrons
N(Beta)            :       11.999993656957 electrons
N(Total)           :       24.999979829724 electrons
E(X)               :      -17.861734231079 Eh       
E(C)               :       -0.791652140872 Eh       
E(XC)              :      -18.653386371950 Eh       
DFET-embed. en.    :        0.000000000000 Eh       
CPCM Solvation Model Properties:
Surface-charge          :           -0.01991835
Charge-correction       :            0.00002376 Eh               0.00065 eV
Free-energy (cav+disp)  :            0.00317065 Eh               0.08628 eV
Corrected G(solv)       :         -118.19339523 Eh           -3216.20579 eV

---------------
SCF CONVERGENCE
---------------

  Last Energy change         ...   -4.7889e-09  Tolerance :   1.0000e-08
  Last MAX-Density change    ...    5.8874e-06  Tolerance :   1.0000e-07
  Last RMS-Density change    ...    2.5489e-07  Tolerance :   5.0000e-09
  Last DIIS Error            ...    7.2929e-06  Tolerance :   5.0000e-07

             **** THE GBW FILE WAS UPDATED (m-mfaV_2-6_hl1d_fbond_scan_3_orca.gbw) ****
             **** DENSITY FILE WAS UPDATED (m-mfaV_2-6_hl1d_fbond_scan_3_orca.scfp) ****
             **** ENERGY FILE WAS UPDATED (m-mfaV_2-6_hl1d_fbond_scan_3_orca.en.tmp) ****
----------------------
UHF SPIN CONTAMINATION
----------------------

Warning: in a DFT calculation there is little theoretical justification to 
         calculate <S**2> as in Hartree-Fock theory. We will do it anyways
         but you should keep in mind that the values have only limited relevance

Expectation value of <S**2>     :     0.753228
Ideal value S*(S+1) for S=0.5   :     0.750000
Deviation                       :     0.003228

             **** THE GBW FILE WAS UPDATED (m-mfaV_2-6_hl1d_fbond_scan_3_orca.gbw) ****
             **** DENSITY FILE WAS UPDATED (m-mfaV_2-6_hl1d_fbond_scan_3_orca.scfp) ****
----------------
ORBITAL ENERGIES
----------------
                 SPIN UP ORBITALS
  NO   OCC          E(Eh)            E(eV) 
   0   1.0000      -9.890504      -269.1343 
   1   1.0000      -9.889772      -269.1144 
   2   1.0000      -9.886997      -269.0389 
   3   1.0000      -0.709186       -19.2979 
   4   1.0000      -0.599715       -16.3191 
   5   1.0000      -0.505247       -13.7485 
   6   1.0000      -0.403422       -10.9777 
   7   1.0000      -0.389927       -10.6105 
   8   1.0000      -0.360693        -9.8150 
   9   1.0000      -0.315561        -8.5869 
  10   1.0000      -0.302008        -8.2181 
  11   1.0000      -0.293218        -7.9789 
  12   1.0000      -0.147586        -4.0160 
  13   0.0000       0.048954         1.3321 
  14   0.0000       0.083731         2.2784 
  15   0.0000       0.086585         2.3561 
  16   0.0000       0.098714         2.6861 
  17   0.0000       0.119579         3.2539 
  18   0.0000       0.132070         3.5938 
  19   0.0000       0.140071         3.8115 
  20   0.0000       0.201446         5.4816 
  21   0.0000       0.251270         6.8374 
  22   0.0000       0.364078         9.9071 
  23   0.0000       0.386094        10.5061 
  24   0.0000       0.399775        10.8784 
  25   0.0000       0.447489        12.1768 
  26   0.0000       0.458843        12.4858 
  27   0.0000       0.480835        13.0842 
  28   0.0000       0.564327        15.3561 
  29   0.0000       0.584377        15.9017 
  30   0.0000       0.600987        16.3537 
  31   0.0000       0.607627        16.5344 
  32   0.0000       0.621936        16.9237 
  33   0.0000       0.625517        17.0212 
  34   0.0000       0.642155        17.4739 
  35   0.0000       0.653283        17.7767 
  36   0.0000       0.663429        18.0528 
  37   0.0000       0.690215        18.7817 
  38   0.0000       0.737637        20.0721 
  39   0.0000       0.838509        22.8170 
  40   0.0000       0.919314        25.0158 
  41   0.0000       1.102230        29.9932 
  42   0.0000       1.164501        31.6877 
  43   0.0000       1.175841        31.9963 
  44   0.0000       1.290820        35.1250 
  45   0.0000       1.445709        39.3397 
  46   0.0000       1.473408        40.0935 
  47   0.0000       1.522379        41.4260 
  48   0.0000       1.541894        41.9571 
  49   0.0000       1.621904        44.1342 
  50   0.0000       1.663424        45.2641 
  51   0.0000       1.687091        45.9081 
  52   0.0000       1.714527        46.6547 
  53   0.0000       1.724592        46.9285 
  54   0.0000       1.725686        46.9583 
  55   0.0000       1.781995        48.4906 
  56   0.0000       1.801157        49.0120 
  57   0.0000       1.836565        49.9755 
  58   0.0000       1.872329        50.9487 
  59   0.0000       1.933040        52.6007 
  60   0.0000       1.986720        54.0614 
  61   0.0000       2.094854        57.0039 
  62   0.0000       2.131418        57.9988 
  63   0.0000       2.169599        59.0378 
  64   0.0000       2.286820        62.2275 
  65   0.0000       2.324658        63.2572 
  66   0.0000       2.364431        64.3394 
  67   0.0000       2.445184        66.5368 
  68   0.0000       2.490493        67.7698 
  69   0.0000       2.523967        68.6806 
  70   0.0000       2.659616        72.3718 
  71   0.0000       2.753289        74.9208 
  72   0.0000       2.828328        76.9627 
  73   0.0000       2.879219        78.3475 
  74   0.0000       2.898624        78.8756 
  75   0.0000       2.962806        80.6220 
  76   0.0000       3.027157        82.3731 

                 SPIN DOWN ORBITALS
  NO   OCC          E(Eh)            E(eV) 
   0   1.0000      -9.890198      -269.1260 
   1   1.0000      -9.886873      -269.0355 
   2   1.0000      -9.877230      -268.7731 
   3   1.0000      -0.699986       -19.0476 
   4   1.0000      -0.588779       -16.0215 
   5   1.0000      -0.490745       -13.3538 
   6   1.0000      -0.396923       -10.8008 
   7   1.0000      -0.382926       -10.4200 
   8   1.0000      -0.355756        -9.6806 
   9   1.0000      -0.310947        -8.4613 
  10   1.0000      -0.295197        -8.0327 
  11   1.0000      -0.289749        -7.8845 
  12   0.0000      -0.066437        -1.8078 
  13   0.0000       0.051799         1.4095 
  14   0.0000       0.086184         2.3452 
  15   0.0000       0.093606         2.5471 
  16   0.0000       0.105975         2.8837 
  17   0.0000       0.121617         3.3094 
  18   0.0000       0.134635         3.6636 
  19   0.0000       0.143944         3.9169 
  20   0.0000       0.204839         5.5739 
  21   0.0000       0.258975         7.0471 
  22   0.0000       0.369571        10.0565 
  23   0.0000       0.389564        10.6006 
  24   0.0000       0.402477        10.9519 
  25   0.0000       0.463998        12.6260 
  26   0.0000       0.478492        13.0204 
  27   0.0000       0.534367        14.5409 
  28   0.0000       0.570407        15.5216 
  29   0.0000       0.592277        16.1167 
  30   0.0000       0.604366        16.4456 
  31   0.0000       0.617994        16.8165 
  32   0.0000       0.627553        17.0766 
  33   0.0000       0.635240        17.2858 
  34   0.0000       0.646375        17.5888 
  35   0.0000       0.657097        17.8805 
  36   0.0000       0.669948        18.2302 
  37   0.0000       0.698346        19.0030 
  38   0.0000       0.741620        20.1805 
  39   0.0000       0.846151        23.0249 
  40   0.0000       0.925444        25.1826 
  41   0.0000       1.115265        30.3479 
  42   0.0000       1.176594        32.0168 
  43   0.0000       1.189245        32.3610 
  44   0.0000       1.294804        35.2334 
  45   0.0000       1.450383        39.4669 
  46   0.0000       1.473521        40.0965 
  47   0.0000       1.531494        41.6741 
  48   0.0000       1.544462        42.0269 
  49   0.0000       1.630909        44.3793 
  50   0.0000       1.668320        45.3973 
  51   0.0000       1.693717        46.0884 
  52   0.0000       1.717154        46.7261 
  53   0.0000       1.726940        46.9924 
  54   0.0000       1.751418        47.6585 
  55   0.0000       1.792149        48.7669 
  56   0.0000       1.808552        49.2132 
  57   0.0000       1.845488        50.2183 
  58   0.0000       1.889223        51.4084 
  59   0.0000       1.952312        53.1251 
  60   0.0000       2.009584        54.6835 
  61   0.0000       2.111274        57.4507 
  62   0.0000       2.160642        58.7941 
  63   0.0000       2.184084        59.4319 
  64   0.0000       2.296553        62.4924 
  65   0.0000       2.330212        63.4083 
  66   0.0000       2.371180        64.5231 
  67   0.0000       2.452379        66.7326 
  68   0.0000       2.504021        68.1379 
  69   0.0000       2.532773        68.9203 
  70   0.0000       2.667133        72.5764 
  71   0.0000       2.759740        75.0963 
  72   0.0000       2.833032        77.0907 
  73   0.0000       2.882885        78.4473 
  74   0.0000       2.902787        78.9888 
  75   0.0000       2.970085        80.8201 
  76   0.0000       3.033750        82.5525 

                    ********************************
                    * MULLIKEN POPULATION ANALYSIS *
                    ********************************

--------------------------------------------
MULLIKEN ATOMIC CHARGES AND SPIN POPULATIONS
--------------------------------------------
   0 C :   -0.059280    0.002487
   1 C :   -0.019496   -0.061750
   2 C :   -0.187182    1.059755
   3 H :    0.032021    0.000272
   4 H :    0.034680   -0.000538
   5 H :    0.035303    0.006684
   6 H :    0.039988    0.060770
   7 H :    0.037887    0.028117
   8 H :    0.042053   -0.048124
   9 H :    0.044025   -0.047674
Sum of atomic charges         :   -0.0000000
Sum of atomic spin populations:    1.0000000

-----------------------------------------------------
MULLIKEN REDUCED ORBITAL CHARGES AND SPIN POPULATIONS
-----------------------------------------------------
CHARGE
  0 C s       :     3.034406  s :     3.034406
      pz      :     1.015907  p :     3.000418
      px      :     0.976425
      py      :     1.008086
      dz2     :     0.005454  d :     0.024456
      dxz     :     0.004765
      dyz     :     0.003228
      dx2y2   :     0.005717
      dxy     :     0.005291
  1 C s       :     2.993868  s :     2.993868
      pz      :     1.009931  p :     2.987518
      px      :     0.959551
      py      :     1.018035
      dz2     :     0.008871  d :     0.038110
      dxz     :     0.007787
      dyz     :     0.003668
      dx2y2   :     0.009869
      dxy     :     0.007916
  2 C s       :     3.205441  s :     3.205441
      pz      :     1.043223  p :     2.959607
      px      :     0.956025
      py      :     0.960360
      dz2     :     0.003416  d :     0.022134
      dxz     :     0.002751
      dyz     :     0.001983
      dx2y2   :     0.008357
      dxy     :     0.005626
  3 H s       :     0.945095  s :     0.945095
      pz      :     0.006555  p :     0.022884
      px      :     0.004386
      py      :     0.011944
  4 H s       :     0.942563  s :     0.942563
      pz      :     0.006926  p :     0.022757
      px      :     0.008201
      py      :     0.007630
  5 H s       :     0.941880  s :     0.941880
      pz      :     0.012687  p :     0.022816
      px      :     0.004871
      py      :     0.005258
  6 H s       :     0.932862  s :     0.932862
      pz      :     0.013997  p :     0.027150
      px      :     0.006557
      py      :     0.006596
  7 H s       :     0.939901  s :     0.939901
      pz      :     0.006186  p :     0.022212
      px      :     0.003956
      py      :     0.012069
  8 H s       :     0.934741  s :     0.934741
      pz      :     0.005577  p :     0.023206
      px      :     0.004207
      py      :     0.013422
  9 H s       :     0.933017  s :     0.933017
      pz      :     0.005409  p :     0.022958
      px      :     0.011945
      py      :     0.005604

SPIN
  0 C s       :    -0.000502  s :    -0.000502
      pz      :    -0.000657  p :     0.002872
      px      :     0.001583
      py      :     0.001946
      dz2     :     0.000104  d :     0.000117
      dxz     :    -0.000042
      dyz     :     0.000097
      dx2y2   :    -0.000022
      dxy     :    -0.000019
  1 C s       :    -0.020767  s :    -0.020767
      pz      :    -0.007516  p :    -0.048462
      px      :    -0.023711
      py      :    -0.017235
      dz2     :     0.004783  d :     0.007480
      dxz     :     0.000732
      dyz     :     0.001547
      dx2y2   :     0.000093
      dxy     :     0.000325
  2 C s       :     0.096914  s :     0.096914
      pz      :     0.847049  p :     0.964993
      px      :     0.062286
      py      :     0.055658
      dz2     :    -0.001915  d :    -0.002152
      dxz     :    -0.000192
      dyz     :    -0.000042
      dx2y2   :     0.000075
      dxy     :    -0.000077
  3 H s       :     0.000238  s :     0.000238
      pz      :    -0.000000  p :     0.000033
      px      :     0.000044
      py      :    -0.000011
  4 H s       :    -0.000537  s :    -0.000537
      pz      :    -0.000011  p :    -0.000001
      px      :     0.000012
      py      :    -0.000002
  5 H s       :     0.006722  s :     0.006722
      pz      :    -0.000033  p :    -0.000038
      px      :    -0.000014
      py      :     0.000009
  6 H s       :     0.059458  s :     0.059458
      pz      :    -0.000450  p :     0.001312
      px      :     0.001437
      py      :     0.000324
  7 H s       :     0.028255  s :     0.028255
      pz      :    -0.000095  p :    -0.000138
      px      :     0.000151
      py      :    -0.000194
  8 H s       :    -0.053356  s :    -0.053356
      pz      :     0.004955  p :     0.005233
      px      :     0.000020
      py      :     0.000257
  9 H s       :    -0.052644  s :    -0.052644
      pz      :     0.004692  p :     0.004969
      px      :     0.000232
      py      :     0.000046


                     *******************************
                     * LOEWDIN POPULATION ANALYSIS *
                     *******************************

-------------------------------------------
LOEWDIN ATOMIC CHARGES AND SPIN POPULATIONS
-------------------------------------------
   0 C :   -0.072520    0.005877
   1 C :   -0.072359    0.011154
   2 C :   -0.072206    0.894686
   3 H :    0.030334    0.000724
   4 H :    0.032436   -0.000568
   5 H :    0.029881    0.003514
   6 H :    0.047426    0.060594
   7 H :    0.040058    0.024761
   8 H :    0.017377   -0.000200
   9 H :    0.019574   -0.000543

----------------------------------------------------
LOEWDIN REDUCED ORBITAL CHARGES AND SPIN POPULATIONS
----------------------------------------------------
CHARGE
  0 C s       :     2.852581  s :     2.852581
      pz      :     1.069245  p :     3.153894
      px      :     1.021763
      py      :     1.062885
      dz2     :     0.015983  d :     0.066045
      dxz     :     0.011239
      dyz     :     0.008901
      dx2y2   :     0.015590
      dxy     :     0.014333
  1 C s       :     2.823115  s :     2.823115
      pz      :     1.058537  p :     3.149503
      px      :     1.032987
      py      :     1.057978
      dz2     :     0.024714  d :     0.099741
      dxz     :     0.017592
      dyz     :     0.010056
      dx2y2   :     0.025519
      dxy     :     0.021861
  2 C s       :     2.922575  s :     2.922575
      pz      :     1.001273  p :     3.091833
      px      :     1.040641
      py      :     1.049918
      dz2     :     0.006298  d :     0.057799
      dxz     :     0.005944
      dyz     :     0.004288
      dx2y2   :     0.024168
      dxy     :     0.017100
  3 H s       :     0.905630  s :     0.905630
      pz      :     0.016470  p :     0.064036
      px      :     0.012186
      py      :     0.035380
  4 H s       :     0.903534  s :     0.903534
      pz      :     0.017930  p :     0.064030
      px      :     0.025159
      py      :     0.020941
  5 H s       :     0.906033  s :     0.906033
      pz      :     0.037711  p :     0.064087
      px      :     0.013837
      py      :     0.012539
  6 H s       :     0.875003  s :     0.875003
      pz      :     0.041039  p :     0.077571
      px      :     0.019572
      py      :     0.016960
  7 H s       :     0.896639  s :     0.896639
      pz      :     0.016105  p :     0.063302
      px      :     0.011611
      py      :     0.035586
  8 H s       :     0.909016  s :     0.909016
      pz      :     0.020872  p :     0.073607
      px      :     0.011092
      py      :     0.041643
  9 H s       :     0.907359  s :     0.907359
      pz      :     0.020300  p :     0.073068
      px      :     0.036645
      py      :     0.016123

SPIN
  0 C s       :     0.001456  s :     0.001456
      pz      :    -0.000026  p :     0.003955
      px      :     0.002456
      py      :     0.001525
      dz2     :     0.000285  d :     0.000466
      dxz     :    -0.000013
      dyz     :     0.000297
      dx2y2   :    -0.000031
      dxy     :    -0.000072
  1 C s       :    -0.003549  s :    -0.003549
      pz      :     0.009636  p :    -0.004705
      px      :    -0.007095
      py      :    -0.007245
      dz2     :     0.011883  d :     0.019407
      dxz     :     0.002000
      dyz     :     0.003761
      dx2y2   :     0.000478
      dxy     :     0.001285
  2 C s       :     0.029096  s :     0.029096
      pz      :     0.788286  p :     0.868609
      px      :     0.046489
      py      :     0.033834
      dz2     :    -0.001402  d :    -0.003019
      dxz     :    -0.000139
      dyz     :     0.000032
      dx2y2   :    -0.000785
      dxy     :    -0.000725
  3 H s       :     0.000619  s :     0.000619
      pz      :    -0.000002  p :     0.000105
      px      :     0.000102
      py      :     0.000005
  4 H s       :    -0.000688  s :    -0.000688
      pz      :     0.000020  p :     0.000120
      px      :     0.000082
      py      :     0.000018
  5 H s       :     0.003098  s :     0.003098
      pz      :     0.000178  p :     0.000416
      px      :     0.000096
      py      :     0.000142
  6 H s       :     0.057739  s :     0.057739
      pz      :    -0.000543  p :     0.002855
      px      :     0.002636
      py      :     0.000761
  7 H s       :     0.024929  s :     0.024929
      pz      :     0.000189  p :    -0.000168
      px      :     0.000171
      py      :    -0.000529
  8 H s       :    -0.023375  s :    -0.023375
      pz      :     0.019186  p :     0.023175
      px      :     0.000894
      py      :     0.003095
  9 H s       :    -0.022993  s :    -0.022993
      pz      :     0.018467  p :     0.022450
      px      :     0.002902
      py      :     0.001081


                      *****************************
                      * MAYER POPULATION ANALYSIS *
                      *****************************

  NA   - Mulliken gross atomic population
  ZA   - Total nuclear charge
  QA   - Mulliken gross atomic charge
  VA   - Mayer's total valence
  BVA  - Mayer's bonded valence
  FA   - Mayer's free valence

  ATOM       NA         ZA         QA         VA         BVA        FA
  0 C      6.0593     6.0000    -0.0593     4.0098     4.0097     0.0000
  1 C      6.0195     6.0000    -0.0195     4.1100     4.1070     0.0029
  2 C      6.1872     6.0000    -0.1872     3.9486     3.1301     0.8186
  3 H      0.9680     1.0000     0.0320     0.9874     0.9874     0.0000
  4 H      0.9653     1.0000     0.0347     0.9845     0.9845     0.0000
  5 H      0.9647     1.0000     0.0353     0.9854     0.9854     0.0001
  6 H      0.9600     1.0000     0.0400     0.9770     0.9729     0.0041
  7 H      0.9621     1.0000     0.0379     0.9741     0.9732     0.0008
  8 H      0.9579     1.0000     0.0421     0.9868     0.9839     0.0029
  9 H      0.9560     1.0000     0.0440     0.9786     0.9758     0.0028

  Mayer bond orders larger than 0.100000
B(  0-C ,  1-C ) :   1.1061 B(  0-C ,  3-H ) :   0.9648 B(  0-C ,  4-H ) :   0.9626 
B(  0-C ,  5-H ) :   0.9706 B(  1-C ,  2-C ) :   1.1284 B(  1-C ,  6-H ) :   0.9050 
B(  1-C ,  7-H ) :   0.9277 B(  2-C ,  8-H ) :   0.9632 B(  2-C ,  9-H ) :   0.9589 



------------------
HIRSHFELD ANALYSIS
------------------

Total integrated alpha density =     12.997937190
Total integrated beta density  =     11.998556279

  ATOM     CHARGE      SPIN    
   0 C   -0.069495    0.010825
   1 C   -0.046096    0.075184
   2 C   -0.073314    0.724142
   3 H    0.028156    0.001124
   4 H    0.029799    0.000201
   5 H    0.025374    0.004876
   6 H    0.034879    0.062128
   7 H    0.034856    0.025581
   8 H    0.017759    0.048909
   9 H    0.021590    0.046410

  TOTAL   0.003507    0.999381

-------
TIMINGS
-------

Total SCF time: 0 days 0 hours 0 min 3 sec 

Total time                  ....       3.000 sec
Sum of individual times     ....       2.911 sec  ( 97.0%)

Fock matrix formation       ....       2.625 sec  ( 87.5%)
  Split-RI-J                ....       0.752 sec  ( 28.7% of F)
  XC integration            ....       0.258 sec  (  9.8% of F)
    Basis function eval.    ....       0.075 sec  ( 29.3% of XC)
    Density eval.           ....       0.049 sec  ( 19.1% of XC)
    XC-Functional eval.     ....       0.024 sec  (  9.4% of XC)
    XC-Potential eval.      ....       0.089 sec  ( 34.5% of XC)
Diagonalization             ....       0.012 sec  (  0.4%)
Density matrix formation    ....       0.001 sec  (  0.0%)
Population analysis         ....       0.017 sec  (  0.6%)
Initial guess               ....       0.079 sec  (  2.6%)
Orbital Transformation      ....       0.000 sec  (  0.0%)
Orbital Orthonormalization  ....       0.000 sec  (  0.0%)
DIIS solution               ....       0.004 sec  (  0.1%)
Grid generation             ....       0.173 sec  (  5.8%)


-------------------------------------------------------------------------------
                          DFT DISPERSION CORRECTION                            
                                                                               
                              DFTD3 V3.1  Rev 1                                
                          USING Becke-Johnson damping                          
-------------------------------------------------------------------------------
The PBE functional is recognized
Active option DFTDOPT                   ...         4   

molecular C6(AA) [au] = 669.978280 


            DFT-D V3
 parameters
 s6 scaling factor         :     1.0000 
 a1 scaling factor         :     0.4289 
 s8 scaling factor         :     0.7875 
 a2 scaling factor         :     4.4407 
 ad hoc parameters k1-k3   :    16.0000     1.3333    -4.0000 

 Edisp/kcal,au: -3.411341404251  -0.005436317986 
 E6   /kcal   :  -2.479006834 
 E8   /kcal   :  -0.932334570 
 % E8         :  27.330438665 

-------------------------   ----------------
Dispersion correction           -0.005436318
-------------------------   ----------------


-------------------------   --------------------
FINAL SINGLE POINT ENERGY      -118.202025966054
-------------------------   --------------------

[1589382186.258453] [ty2019:9284 :0]            sys.c:618  UCX  ERROR shmget(size=2097152 flags=0xfb0) for mm_recv_desc failed: Operation not permitted, please check shared memory limits by 'ipcs -l'
[1589382186.267507] [ty2019:9283 :0]            sys.c:618  UCX  ERROR shmget(size=2097152 flags=0xfb0) for mm_recv_desc failed: Operation not permitted, please check shared memory limits by 'ipcs -l'
[1589382186.267782] [ty2019:9282 :0]            sys.c:618  UCX  ERROR shmget(size=2097152 flags=0xfb0) for mm_recv_desc failed: Operation not permitted, please check shared memory limits by 'ipcs -l'
[1589382186.268318] [ty2019:9285 :0]            sys.c:618  UCX  ERROR shmget(size=2097152 flags=0xfb0) for mm_recv_desc failed: Operation not permitted, please check shared memory limits by 'ipcs -l'
[1589382186.275226] [ty2019:9284 :0]            sys.c:618  UCX  ERROR shmget(size=2097152 flags=0xb80) for ucp_am_bufs failed: Operation not permitted, please check shared memory limits by 'ipcs -l'
[1589382186.275215] [ty2019:9282 :0]            sys.c:618  UCX  ERROR shmget(size=2097152 flags=0xb80) for ucp_am_bufs failed: Operation not permitted, please check shared memory limits by 'ipcs -l'


           ************************************************************
           *        Program running with 4 parallel MPI-processes     *
           *              working on a common directory               *
           ************************************************************
[1589382186.279012] [ty2019:9283 :0]            sys.c:618  UCX  ERROR shmget(size=2097152 flags=0xb80) for ucp_am_bufs failed: Operation not permitted, please check shared memory limits by 'ipcs -l'
------------------------------------------------------------------------------
                         ORCA SCF GRADIENT CALCULATION
------------------------------------------------------------------------------

Gradient of the Kohn-Sham DFT energy:
Kohn-Sham wavefunction type      ... UKS
Hartree-Fock exchange scaling    ...    0.000
Number of operators              ...    2
Number of atoms                  ...   10
Basis set dimensions             ...   77
Integral neglect threshold       ... 2.5e-11
Integral primitive cutoff        ... 2.5e-12

[1589382186.453601] [ty2019:9285 :0]            sys.c:618  UCX  ERROR shmget(size=2097152 flags=0xb80) for ucp_am_bufs failed: Operation not permitted, please check shared memory limits by 'ipcs -l'
Nuclear repulsion gradient       ... done
One Electron Gradient            ... done
Pre-screening matrix             ... done
RI-J gradient                    ... done
Exchange-correlation gradient    ... done
Dispersion correction            ... done

------------------
CARTESIAN GRADIENT
------------------

   1   C   :   -0.000900059   -0.001068285   -0.001266994
   2   C   :    0.022140976    0.014238052    0.010504066
   3   C   :   -0.027692808   -0.025943570    0.029134506
   4   H   :    0.000092757   -0.000136118    0.000008663
   5   H   :   -0.000144423   -0.000085292    0.000112861
   6   H   :   -0.000268349    0.000069854   -0.000046950
   7   H   :    0.007718295    0.012678857   -0.037490264
   8   H   :   -0.000038062    0.000933022   -0.000776243
   9   H   :   -0.000827316   -0.000321940    0.000019670
  10   H   :   -0.000081011   -0.000364579   -0.000199315

Difference to translation invariance:
           :    0.0000000000    0.0000000000   -0.0000000000

Norm of the cartesian gradient     ...    0.0687317367
RMS gradient                       ...    0.0125486409
MAX gradient                       ...    0.0374902644

-------
TIMINGS
-------

Total SCF gradient time            ...        0.612 sec

One electron gradient       ....       0.005 sec  (  0.8%)
Prescreening matrices       ....       0.006 sec  (  1.0%)
RI-J Coulomb gradient       ....       0.079 sec  ( 12.9%)
XC gradient                 ....       0.286 sec  ( 46.7%)
CPCM gradient               ....       0.107 sec  ( 17.5%)
   A-Matrix (El+Nuc)        ....       0.018 sec  (  2.9%)
   Potential                ....       0.089 sec  ( 14.6%)
------------------------------------------------------------------------------
                         ORCA GEOMETRY RELAXATION STEP
------------------------------------------------------------------------------

Reading the OPT-File                    .... done
Getting information on internals        .... done
Copying old internal coords+grads       .... done
Making the new internal coordinates     .... (new redundants).... done
Validating the new internal coordinates .... (new redundants).... done
Calculating the B-matrix                .... done
Calculating the G,G- and P matrices     .... done
Transforming gradient to internals      .... done
Projecting the internal gradient        .... done
Number of atoms                         ....  10
Number of internal coordinates          ....  40
Current Energy                          ....  -118.202025966 Eh
Current gradient norm                   ....     0.068731737 Eh/bohr
Maximum allowed component of the step   ....  0.300
Current trust radius                    ....  0.300
Evaluating the initial hessian          ....  (Almloef) done
Projecting the Hessian                  .... done
Forming the augmented Hessian           .... done
Diagonalizing the augmented Hessian     .... done
Last element of RFO vector              ....  0.996865421
Lowest eigenvalues of augmented Hessian:
 -0.001283612  0.011305707  0.022526022  0.023861405  0.080432122
Length of the computed step             ....  0.079364715
The final length of the internal step   ....  0.079364715
Converting the step to cartesian space:
 Initial RMS(Int)=    0.0125486632
Transforming coordinates:
 Iter   0:  RMS(Cart)=    0.0127997335 RMS(Int)=    0.0125074959
 Iter   1:  RMS(Cart)=    0.0001061250 RMS(Int)=    0.0001230937
 Iter   2:  RMS(Cart)=    0.0000015103 RMS(Int)=    0.0000014450
 Iter   3:  RMS(Cart)=    0.0000000198 RMS(Int)=    0.0000000197
Imposing constraints:
 Iter   0:  RMS(Cart)=    0.0000410940 RMS(Int)=    0.0001029028
 Iter   1:  RMS(Cart)=    0.0000130077 RMS(Int)=    0.0000325722
 Iter   2:  RMS(Cart)=    0.0000041174 RMS(Int)=    0.0000103102
 Iter   3:  RMS(Cart)=    0.0000013033 RMS(Int)=    0.0000032635
 Iter   4:  RMS(Cart)=    0.0000004125 RMS(Int)=    0.0000010330
 Iter   5:  RMS(Cart)=    0.0000001306 RMS(Int)=    0.0000003270
 Iter   6:  RMS(Cart)=    0.0000000413 RMS(Int)=    0.0000001035
 Iter   7:  RMS(Cart)=    0.0000000131 RMS(Int)=    0.0000000328
CONVERGED
done
Storing new coordinates                 .... done

                                .--------------------.
          ----------------------|Geometry convergence|-------------------------
          Item                value                   Tolerance       Converged
          ---------------------------------------------------------------------
          RMS gradient        0.0030182582            0.0005000000      NO
          MAX gradient        0.0113091123            0.0020000000      NO
          RMS step            0.0125486632            0.0070000000      NO
          MAX step            0.0313590891            0.0100000000      NO
          ........................................................
          Max(Bonds)      0.0166      Max(Angles)    1.67
          Max(Dihed)        1.23      Max(Improp)    0.00
          ---------------------------------------------------------------------

The optimization has not yet converged - more geometry cycles are needed


    ---------------------------------------------------------------------------
                         Redundant Internal Coordinates
                            (Angstroem and degrees)

        Definition                    Value    dE/dq     Step     New-Value
    ----------------------------------------------------------------------------
     1. B(C   1,C   0)                1.5279  0.000775 -0.0011    1.5268   
     2. B(C   2,C   1)                1.4336 -0.022282  0.0166    1.4502   
     3. B(H   3,C   0)                1.1096 -0.000123  0.0002    1.1098   
     4. B(H   4,C   0)                1.1083  0.000195 -0.0003    1.1080   
     5. B(H   5,C   0)                1.1098  0.000120 -0.0002    1.1096   
     6. B(H   6,C   1)                1.0739 -0.015403  0.0152    1.0891   
     7. B(H   6,C   2)                1.8872 -0.028758 -0.0000    1.8872 C 
     8. B(H   7,C   1)                1.1131 -0.000601  0.0010    1.1141   
     9. B(H   8,C   2)                1.1032 -0.000268  0.0004    1.1036   
    10. B(H   9,C   2)                1.1018  0.000097 -0.0001    1.1016   
    11. A(H   4,C   0,H   5)          107.96 -0.000154    0.01    107.97   
    12. A(C   1,C   0,H   4)          111.52 -0.000012    0.01    111.53   
    13. A(C   1,C   0,H   3)          111.10 -0.000222    0.05    111.15   
    14. A(H   3,C   0,H   5)          107.45 -0.000062    0.00    107.45   
    15. A(C   1,C   0,H   5)          110.90  0.000405   -0.09    110.81   
    16. A(H   3,C   0,H   4)          107.73  0.000034    0.02    107.75   
    17. A(C   0,C   1,C   2)          117.87  0.001895   -0.06    117.81   
    18. A(C   0,C   1,H   6)          112.82  0.000346   -0.03    112.79   
    19. A(C   2,C   1,H   6)           96.59 -0.000177   -1.67     94.91   
    20. A(C   0,C   1,H   7)          110.67 -0.001005    0.62    111.29   
    21. A(C   2,C   1,H   7)          111.75 -0.001196    0.62    112.37   
    22. A(H   6,C   1,H   7)          105.83  0.000144    0.27    106.10   
    23. A(C   1,C   2,H   8)          121.13 -0.000894    0.13    121.26   
    24. A(C   1,C   2,H   9)          120.73  0.000149   -0.04    120.69   
    25. A(H   8,C   2,H   9)          117.45  0.000773   -0.18    117.27   
    26. D(H   7,C   1,C   0,H   4)     56.63  0.000315   -0.34     56.29   
    27. D(C   2,C   1,C   0,H   4)   -173.02 -0.000678    1.15   -171.87   
    28. D(C   2,C   1,C   0,H   3)    -52.82 -0.000793    1.21    -51.60   
    29. D(H   7,C   1,C   0,H   3)    176.83  0.000199   -0.28    176.55   
    30. D(H   6,C   1,C   0,H   3)     58.48  0.000474   -1.03     57.45   
    31. D(H   6,C   1,C   0,H   5)    177.92  0.000518   -1.05    176.86   
    32. D(H   7,C   1,C   0,H   5)    -63.73  0.000243   -0.30    -64.03   
    33. D(H   6,C   1,C   0,H   4)    -61.73  0.000590   -1.09    -62.82   
    34. D(C   2,C   1,C   0,H   5)     66.62 -0.000750    1.19     67.81   
    35. D(H   9,C   2,C   1,H   7)    -37.94 -0.000074    0.28    -37.67   
    36. D(H   8,C   2,C   1,H   6)    -98.19 -0.000594    0.60    -97.58   
    37. D(H   8,C   2,C   1,H   7)    151.84 -0.000350    0.92    152.75   
    38. D(H   9,C   2,C   1,C   0)   -167.79  0.000818   -1.23   -169.02   
    39. D(H   8,C   2,C   1,C   0)     21.99  0.000542   -0.59     21.40   
    40. D(H   9,C   2,C   1,H   6)     72.03 -0.000317   -0.04     72.00   
    ----------------------------------------------------------------------------

         *************************************************************
         *                GEOMETRY OPTIMIZATION CYCLE   2            *
         *************************************************************
---------------------------------
CARTESIAN COORDINATES (ANGSTROEM)
---------------------------------
  C     -1.196148    0.116110    0.016743
  C      0.201779   -0.480753    0.160873
  C      1.326580    0.313416   -0.294972
  H     -1.244177    1.133968    0.456357
  H     -1.958756   -0.507288    0.524111
  H     -1.480027    0.201665   -1.052499
  H      0.534885   -0.528869    1.196825
  H      0.237005   -1.525730   -0.223800
  H      1.248328    1.409148   -0.401169
  H      2.330431   -0.131767   -0.382470

----------------------------
CARTESIAN COORDINATES (A.U.)
----------------------------
  NO LB      ZA    FRAG     MASS         X           Y           Z
   0 C     6.0000    0    12.011   -2.260393    0.219416    0.031640
   1 C     6.0000    0    12.011    0.381307   -0.908492    0.304006
   2 C     6.0000    0    12.011    2.506873    0.592270   -0.557417
   3 H     1.0000    0     1.008   -2.351153    2.142890    0.862390
   4 H     1.0000    0     1.008   -3.701512   -0.958635    0.990426
   5 H     1.0000    0     1.008   -2.796845    0.381092   -1.988935
   6 H     1.0000    0     1.008    1.010785   -0.999418    2.261672
   7 H     1.0000    0     1.008    0.447874   -2.883212   -0.422921
   8 H     1.0000    0     1.008    2.358999    2.662904   -0.758099
   9 H     1.0000    0     1.008    4.403877   -0.249004   -0.722764

--------------------------------
INTERNAL COORDINATES (ANGSTROEM)
--------------------------------
 C      0   0   0     0.000000000000     0.00000000     0.00000000
 C      1   0   0     1.526833180287     0.00000000     0.00000000
 C      2   1   0     1.450406050127   117.79569993     0.00000000
 H      1   2   3     1.109776151939   111.14734990   308.39099251
 H      1   2   3     1.107978639905   111.53096333   188.12559272
 H      1   2   3     1.109587948875   110.81480774    67.80376537
 H      2   1   3     1.089252787063   112.77041640   109.06427485
 H      2   1   3     1.114087635547   111.28585132   228.16014313
 H      3   2   1     1.103643849327   121.25716805    21.39939458
 H      3   2   1     1.101617344800   120.68857442   190.98139519

---------------------------
INTERNAL COORDINATES (A.U.)
---------------------------
 C      0   0   0     0.000000000000     0.00000000     0.00000000
 C      1   0   0     2.885296562927     0.00000000     0.00000000
 C      2   1   0     2.740870217722   117.79569993     0.00000000
 H      1   2   3     2.097172997122   111.14734990   308.39099251
 H      1   2   3     2.093776191655   111.53096333   188.12559272
 H      1   2   3     2.096817344872   110.81480774    67.80376537
 H      2   1   3     2.058389458159   112.77041640   109.06427485
 H      2   1   3     2.105320520372   111.28585132   228.16014313
 H      3   2   1     2.085584624614   121.25716805    21.39939458
 H      3   2   1     2.081755086049   120.68857442   190.98139519

[1589382187.833135] [ty2019:9308 :0]            sys.c:618  UCX  ERROR shmget(size=2097152 flags=0xfb0) for mm_recv_desc failed: Operation not permitted, please check shared memory limits by 'ipcs -l'
[1589382187.839493] [ty2019:9309 :0]            sys.c:618  UCX  ERROR shmget(size=2097152 flags=0xfb0) for mm_recv_desc failed: Operation not permitted, please check shared memory limits by 'ipcs -l'
[1589382187.841907] [ty2019:9307 :0]            sys.c:618  UCX  ERROR shmget(size=2097152 flags=0xfb0) for mm_recv_desc failed: Operation not permitted, please check shared memory limits by 'ipcs -l'
[1589382187.842773] [ty2019:9306 :0]            sys.c:618  UCX  ERROR shmget(size=2097152 flags=0xfb0) for mm_recv_desc failed: Operation not permitted, please check shared memory limits by 'ipcs -l'
[1589382187.849959] [ty2019:9308 :0]            sys.c:618  UCX  ERROR shmget(size=2097152 flags=0xb80) for ucp_am_bufs failed: Operation not permitted, please check shared memory limits by 'ipcs -l'
[1589382187.850709] [ty2019:9309 :0]            sys.c:618  UCX  ERROR shmget(size=2097152 flags=0xb80) for ucp_am_bufs failed: Operation not permitted, please check shared memory limits by 'ipcs -l'
[1589382187.850984] [ty2019:9306 :0]            sys.c:618  UCX  ERROR shmget(size=2097152 flags=0xb80) for ucp_am_bufs failed: Operation not permitted, please check shared memory limits by 'ipcs -l'


           ************************************************************
           *        Program running with 4 parallel MPI-processes     *
           *              working on a common directory               *
           ************************************************************
[1589382187.852535] [ty2019:9307 :0]            sys.c:618  UCX  ERROR shmget(size=2097152 flags=0xb80) for ucp_am_bufs failed: Operation not permitted, please check shared memory limits by 'ipcs -l'
 One Electron integrals                  ... done
 Pre-screening matrix                    ... done
[1589382188.824551] [ty2019:9330 :0]            sys.c:618  UCX  ERROR shmget(size=2097152 flags=0xfb0) for mm_recv_desc failed: Operation not permitted, please check shared memory limits by 'ipcs -l'
[1589382188.825095] [ty2019:9332 :0]            sys.c:618  UCX  ERROR shmget(size=2097152 flags=0xfb0) for mm_recv_desc failed: Operation not permitted, please check shared memory limits by 'ipcs -l'
[1589382188.825244] [ty2019:9329 :0]            sys.c:618  UCX  ERROR shmget(size=2097152 flags=0xfb0) for mm_recv_desc failed: Operation not permitted, please check shared memory limits by 'ipcs -l'
[1589382188.826088] [ty2019:9331 :0]            sys.c:618  UCX  ERROR shmget(size=2097152 flags=0xfb0) for mm_recv_desc failed: Operation not permitted, please check shared memory limits by 'ipcs -l'
[1589382188.832487] [ty2019:9329 :0]            sys.c:618  UCX  ERROR shmget(size=2097152 flags=0xb80) for ucp_am_bufs failed: Operation not permitted, please check shared memory limits by 'ipcs -l'
[1589382188.832867] [ty2019:9331 :0]            sys.c:618  UCX  ERROR shmget(size=2097152 flags=0xb80) for ucp_am_bufs failed: Operation not permitted, please check shared memory limits by 'ipcs -l'


           ************************************************************
           *        Program running with 4 parallel MPI-processes     *
           *              working on a common directory               *
           ************************************************************
[1589382188.835101] [ty2019:9330 :0]            sys.c:618  UCX  ERROR shmget(size=2097152 flags=0xb80) for ucp_am_bufs failed: Operation not permitted, please check shared memory limits by 'ipcs -l'
[1589382188.836530] [ty2019:9332 :0]            sys.c:618  UCX  ERROR shmget(size=2097152 flags=0xb80) for ucp_am_bufs failed: Operation not permitted, please check shared memory limits by 'ipcs -l'

Diagonalization of the overlap matrix:
Smallest eigenvalue                        ... 2.887e-03
Time for diagonalization                   ...    0.001 sec
Threshold for overlap eigenvalues          ... 1.000e-08
Number of eigenvalues below threshold      ... 0
Time for construction of square roots      ...    0.001 sec
Total time needed                          ...    0.002 sec

-------------------
DFT GRID GENERATION
-------------------

General Integration Accuracy     IntAcc      ...  4.340
Radial Grid Type                 RadialGrid  ... Gauss-Chebyshev
Angular Grid (max. acc.)         AngularGrid ... Lebedev-110
Angular grid pruning method      GridPruning ... 3 (G Style)
Weight generation scheme         WeightScheme... Becke
Basis function cutoff            BFCut       ...    1.0000e-11
Integration weight cutoff        WCut        ...    1.0000e-14
Grids for H and He will be reduced by one unit

# of grid points (after initial pruning)     ...  10526 (   0.0 sec)
# of grid points (after weights+screening)   ...  10039 (   0.0 sec)
nearest neighbour list constructed           ...    0.0 sec
Grid point re-assignment to atoms done       ...    0.0 sec
Grid point division into batches done        ...    0.0 sec
Reduced shell lists constructed in    0.0 sec

Total number of grid points                  ...    10039
Total number of batches                      ...      163
Average number of points per batch           ...       61
Average number of grid points per atom       ...     1004
Average number of shells per batch           ...    36.05 (92.43%)
Average number of basis functions per batch  ...    71.33 (92.64%)
Average number of large shells per batch     ...    33.60 (93.20%)
Average number of large basis fcns per batch ...    66.21 (92.82%)
Maximum spatial batch extension              ...  17.57, 15.16, 18.31 au
Average spatial batch extension              ...   0.55,  0.55,  0.65 au

Time for grid setup =    0.027 sec


--------------------
CPCM SOLVATION MODEL
--------------------
CPCM parameters:
  Epsilon                                         ...      80.4000
  Refrac                                          ...       1.3300
  Rsolv                                           ...       1.3000
  Surface type                                    ... GAUSSIAN VDW
  Epsilon function type                           ...         CPCM
Radii:
 Radius for C  used is    3.8550 Bohr (=   2.0400 Ang.)
 Radius for H  used is    2.4944 Bohr (=   1.3200 Ang.)
Calculating surface                               ...        done! (  0.0s)
GEPOL surface points                              ...          616
GEPOL Volume                                      ...     537.4799
GEPOL Surface-area                                ...     354.2778
Calculating surface distance matrix               ...        done! (  0.0s)
Performing Cholesky decomposition & store         ...        done! (  0.0s)
Overall time for CPCM initialization              ...                 0.0s
--------------
SCF ITERATIONS
--------------
ITER       Energy         Delta-E        Max-DP      RMS-DP      [F,P]     Damp
               ***  Starting incremental Fock matrix formation  ***
  0   -118.1967081793   0.000000000000 0.00149522  0.00005729  0.0049363 0.7000
  1   -118.1967672187  -0.000059039434 0.00120311  0.00005101  0.0032511 0.7000
                               ***Turning on DIIS***
  2   -118.1968107042  -0.000043485456 0.00289499  0.00012921  0.0020608 0.0000
  3   -118.1969121316  -0.000101427400 0.00060253  0.00003327  0.0006066 0.0000
  4   -118.1969134043  -0.000001272708 0.00041781  0.00001497  0.0007056 0.0000
  5   -118.1969147888  -0.000001384544 0.00010812  0.00000390  0.0002079 0.0000
  6   -118.1969149067  -0.000000117904 0.00002775  0.00000102  0.0000299 0.0000
  7   -118.1969149110  -0.000000004227 0.00000648  0.00000027  0.0000075 0.0000
[...]
  34   0.0000       0.645032        17.5522 
  35   0.0000       0.656651        17.8684 
  36   0.0000       0.668949        18.2030 
  37   0.0000       0.687268        18.7015 
  38   0.0000       0.738054        20.0835 
  39   0.0000       0.845057        22.9952 
  40   0.0000       0.918182        24.9850 
  41   0.0000       1.121753        30.5244 
  42   0.0000       1.169482        31.8232 
  43   0.0000       1.189634        32.3716 
  44   0.0000       1.292296        35.1652 
  45   0.0000       1.443160        39.2704 
  46   0.0000       1.473100        40.0851 
  47   0.0000       1.520196        41.3666 
  48   0.0000       1.546642        42.0863 
  49   0.0000       1.639006        44.5996 
  50   0.0000       1.669183        45.4208 
  51   0.0000       1.688642        45.9503 
  52   0.0000       1.715611        46.6842 
  53   0.0000       1.724715        46.9319 
  54   0.0000       1.733338        47.1665 
  55   0.0000       1.780008        48.4365 
  56   0.0000       1.803448        49.0743 
  57   0.0000       1.841253        50.1031 
  58   0.0000       1.884284        51.2740 
  59   0.0000       1.947437        52.9925 
  60   0.0000       2.011644        54.7396 
  61   0.0000       2.102461        57.2109 
  62   0.0000       2.149763        58.4980 
  63   0.0000       2.184280        59.4373 
  64   0.0000       2.281738        62.0892 
  65   0.0000       2.325835        63.2892 
  66   0.0000       2.359287        64.1995 
  67   0.0000       2.444832        66.5273 
  68   0.0000       2.473920        67.3188 
  69   0.0000       2.521089        68.6023 
  70   0.0000       2.668377        72.6102 
  71   0.0000       2.755332        74.9764 
  72   0.0000       2.821340        76.7726 
  73   0.0000       2.878841        78.3372 
  74   0.0000       2.898348        78.8681 
  75   0.0000       2.938917        79.9720 
  76   0.0000       3.016507        82.0833 

                    ********************************
                    * MULLIKEN POPULATION ANALYSIS *
                    ********************************

--------------------------------------------
MULLIKEN ATOMIC CHARGES AND SPIN POPULATIONS
--------------------------------------------
   0 C :   -0.055046    0.001365
   1 C :   -0.040409   -0.055333
   2 C :   -0.187462    1.062451
   3 H :    0.032668    0.000257
   4 H :    0.035476   -0.000831
   5 H :    0.035864    0.006891
   6 H :    0.046730    0.057221
   7 H :    0.042046    0.023342
   8 H :    0.044940   -0.047956
   9 H :    0.045193   -0.047407
Sum of atomic charges         :    0.0000000
Sum of atomic spin populations:    1.0000000

-----------------------------------------------------
MULLIKEN REDUCED ORBITAL CHARGES AND SPIN POPULATIONS
-----------------------------------------------------
CHARGE
  0 C s       :     3.031586  s :     3.031586
      pz      :     1.016645  p :     2.998958
      px      :     0.975302
      py      :     1.007012
      dz2     :     0.005395  d :     0.024502
      dxz     :     0.004911
      dyz     :     0.003217
      dx2y2   :     0.005722
      dxy     :     0.005256
  1 C s       :     3.026464  s :     3.026464
      pz      :     1.008251  p :     2.977384
      px      :     0.955893
      py      :     1.013239
      dz2     :     0.008272  d :     0.036561
      dxz     :     0.007598
      dyz     :     0.003348
      dx2y2   :     0.009555
      dxy     :     0.007788
  2 C s       :     3.212456  s :     3.212456
      pz      :     1.043370  p :     2.953859
      px      :     0.952349
      py      :     0.958140
      dz2     :     0.003339  d :     0.021147
      dxz     :     0.002561
      dyz     :     0.001871
      dx2y2   :     0.008095
      dxy     :     0.005281
  3 H s       :     0.944447  s :     0.944447
      pz      :     0.006532  p :     0.022885
      px      :     0.004359
      py      :     0.011994
  4 H s       :     0.941737  s :     0.941737
      pz      :     0.007008  p :     0.022787
      px      :     0.008257
      py      :     0.007523
  5 H s       :     0.941294  s :     0.941294
      pz      :     0.012644  p :     0.022842
      px      :     0.004949
      py      :     0.005249
  6 H s       :     0.926878  s :     0.926878
      pz      :     0.013551  p :     0.026392
      px      :     0.006556
      py      :     0.006285
  7 H s       :     0.935982  s :     0.935982
      pz      :     0.006029  p :     0.021973
      px      :     0.003793
      py      :     0.012151
  8 H s       :     0.931913  s :     0.931913
      pz      :     0.005542  p :     0.023147
      px      :     0.004173
      py      :     0.013432
  9 H s       :     0.931902  s :     0.931902
      pz      :     0.005377  p :     0.022905
      px      :     0.011950
      py      :     0.005579

SPIN
  0 C s       :    -0.000742  s :    -0.000742
      pz      :    -0.000755  p :     0.001985
      px      :     0.000995
      py      :     0.001745
      dz2     :     0.000105  d :     0.000122
      dxz     :    -0.000026
      dyz     :     0.000097
      dx2y2   :    -0.000033
      dxy     :    -0.000022
  1 C s       :    -0.017813  s :    -0.017813
      pz      :    -0.004011  p :    -0.044080
      px      :    -0.023643
      py      :    -0.016426
      dz2     :     0.004285  d :     0.006560
      dxz     :     0.000600
      dyz     :     0.001309
      dx2y2   :     0.000088
      dxy     :     0.000278
  2 C s       :     0.094806  s :     0.094806
      pz      :     0.862142  p :     0.969781
      px      :     0.055802
      py      :     0.051837
      dz2     :    -0.002003  d :    -0.002136
      dxz     :    -0.000119
      dyz     :    -0.000005
      dx2y2   :     0.000077
      dxy     :    -0.000085
  3 H s       :     0.000230  s :     0.000230
      pz      :    -0.000000  p :     0.000027
      px      :     0.000038
      py      :    -0.000011
  4 H s       :    -0.000828  s :    -0.000828
      pz      :    -0.000009  p :    -0.000004
      px      :     0.000011
      py      :    -0.000006
  5 H s       :     0.006928  s :     0.006928
      pz      :    -0.000035  p :    -0.000037
      px      :    -0.000013
      py      :     0.000011
  6 H s       :     0.055608  s :     0.055608
      pz      :    -0.000437  p :     0.001612
      px      :     0.001589
      py      :     0.000460
  7 H s       :     0.023440  s :     0.023440
      pz      :    -0.000072  p :    -0.000098
      px      :     0.000122
      py      :    -0.000148
  8 H s       :    -0.053185  s :    -0.053185
      pz      :     0.005022  p :     0.005229
      px      :    -0.000022
      py      :     0.000230
  9 H s       :    -0.052366  s :    -0.052366
      pz      :     0.004744  p :     0.004960
      px      :     0.000189
      py      :     0.000027


                     *******************************
                     * LOEWDIN POPULATION ANALYSIS *
                     *******************************

-------------------------------------------
LOEWDIN ATOMIC CHARGES AND SPIN POPULATIONS
-------------------------------------------
   0 C :   -0.073875    0.004940
   1 C :   -0.071552    0.011058
   2 C :   -0.076119    0.901130
   3 H :    0.031259    0.000658
   4 H :    0.032644   -0.000772
   5 H :    0.030181    0.003701
   6 H :    0.052044    0.058948
   7 H :    0.038794    0.020779
   8 H :    0.017751   -0.000114
   9 H :    0.018875   -0.000328

----------------------------------------------------
LOEWDIN REDUCED ORBITAL CHARGES AND SPIN POPULATIONS
----------------------------------------------------
CHARGE
  0 C s       :     2.851723  s :     2.851723
      pz      :     1.069451  p :     3.155755
      px      :     1.023751
      py      :     1.062554
      dz2     :     0.015834  d :     0.066397
      dxz     :     0.011677
      dyz     :     0.008871
      dx2y2   :     0.015611
      dxy     :     0.014404
  1 C s       :     2.834791  s :     2.834791
      pz      :     1.055347  p :     3.141702
      px      :     1.028943
      py      :     1.057412
      dz2     :     0.022899  d :     0.095059
      dxz     :     0.017065
      dyz     :     0.009015
      dx2y2   :     0.024518
      dxy     :     0.021561
  2 C s       :     2.931988  s :     2.931988
      pz      :     1.002480  p :     3.089583
      px      :     1.037667
      py      :     1.049436
      dz2     :     0.005957  d :     0.054548
      dxz     :     0.005323
      dyz     :     0.003851
      dx2y2   :     0.023063
      dxy     :     0.016354
  3 H s       :     0.904762  s :     0.904762
      pz      :     0.016415  p :     0.063978
      px      :     0.012051
      py      :     0.035513
  4 H s       :     0.903318  s :     0.903318
      pz      :     0.018175  p :     0.064038
      px      :     0.025237
      py      :     0.020627
  5 H s       :     0.905773  s :     0.905773
      pz      :     0.037569  p :     0.064046
      px      :     0.013971
      py      :     0.012506
  6 H s       :     0.873703  s :     0.873703
      pz      :     0.039613  p :     0.074254
      px      :     0.019033
      py      :     0.015607
  7 H s       :     0.897567  s :     0.897567
      pz      :     0.015957  p :     0.063639
      px      :     0.011371
      py      :     0.036311
  8 H s       :     0.908389  s :     0.908389
      pz      :     0.020870  p :     0.073860
      px      :     0.010999
      py      :     0.041991
  9 H s       :     0.907784  s :     0.907784
      pz      :     0.020342  p :     0.073342
      px      :     0.037078
      py      :     0.015922

SPIN
  0 C s       :     0.001252  s :     0.001252
      pz      :    -0.000111  p :     0.003198
      px      :     0.001893
      py      :     0.001416
      dz2     :     0.000295  d :     0.000490
      dxz     :     0.000034
      dyz     :     0.000296
      dx2y2   :    -0.000056
      dxy     :    -0.000078
  1 C s       :    -0.003245  s :    -0.003245
      pz      :     0.012152  p :    -0.002470
      px      :    -0.007608
      py      :    -0.007014
      dz2     :     0.010452  d :     0.016773
      dxz     :     0.001635
      dyz     :     0.003094
      dx2y2   :     0.000421
      dxy     :     0.001170
  2 C s       :     0.030128  s :     0.030128
      pz      :     0.803576  p :     0.873981
      px      :     0.040132
      py      :     0.030273
      dz2     :    -0.001463  d :    -0.002979
      dxz     :    -0.000072
      dyz     :     0.000070
      dx2y2   :    -0.000787
      dxy     :    -0.000727
  3 H s       :     0.000570  s :     0.000570
      pz      :    -0.000002  p :     0.000088
      px      :     0.000088
      py      :     0.000002
  4 H s       :    -0.000860  s :    -0.000860
      pz      :     0.000017  p :     0.000088
      px      :     0.000060
      py      :     0.000012
  5 H s       :     0.003305  s :     0.003305
      pz      :     0.000162  p :     0.000395
      px      :     0.000090
      py      :     0.000143
  6 H s       :     0.055232  s :     0.055232
      pz      :    -0.000522  p :     0.003716
      px      :     0.003096
      py      :     0.001142
  7 H s       :     0.020815  s :     0.020815
      pz      :     0.000325  p :    -0.000037
      px      :     0.000097
      py      :    -0.000458
  8 H s       :    -0.023365  s :    -0.023365
      pz      :     0.019479  p :     0.023251
      px      :     0.000754
      py      :     0.003019
  9 H s       :    -0.022866  s :    -0.022866
      pz      :     0.018762  p :     0.022538
      px      :     0.002764
      py      :     0.001012


                      *****************************
                      * MAYER POPULATION ANALYSIS *
                      *****************************

  NA   - Mulliken gross atomic population
  ZA   - Total nuclear charge
  QA   - Mulliken gross atomic charge
  VA   - Mayer's total valence
  BVA  - Mayer's bonded valence
  FA   - Mayer's free valence

  ATOM       NA         ZA         QA         VA         BVA        FA
  0 C      6.0550     6.0000    -0.0550     4.0077     4.0076     0.0000
  1 C      6.0404     6.0000    -0.0404     4.1063     4.1034     0.0029
  2 C      6.1875     6.0000    -0.1875     3.9339     3.1091     0.8248
  3 H      0.9673     1.0000     0.0327     0.9878     0.9878     0.0000
  4 H      0.9645     1.0000     0.0355     0.9844     0.9844     0.0000
  5 H      0.9641     1.0000     0.0359     0.9851     0.9850     0.0001
  6 H      0.9533     1.0000     0.0467     0.9749     0.9712     0.0037
  7 H      0.9580     1.0000     0.0420     0.9743     0.9737     0.0006
  8 H      0.9551     1.0000     0.0449     0.9865     0.9836     0.0029
  9 H      0.9548     1.0000     0.0452     0.9788     0.9760     0.0028

  Mayer bond orders larger than 0.100000
B(  0-C ,  1-C ) :   1.1085 B(  0-C ,  3-H ) :   0.9641 B(  0-C ,  4-H ) :   0.9625 
B(  0-C ,  5-H ) :   0.9699 B(  1-C ,  2-C ) :   1.1131 B(  1-C ,  6-H ) :   0.9074 
B(  1-C ,  7-H ) :   0.9343 B(  2-C ,  8-H ) :   0.9629 B(  2-C ,  9-H ) :   0.9603 



------------------
HIRSHFELD ANALYSIS
------------------

Total integrated alpha density =     12.998479132
Total integrated beta density  =     11.998649860

  ATOM     CHARGE      SPIN    
   0 C   -0.070668    0.009928
   1 C   -0.043123    0.072217
   2 C   -0.075861    0.731858
   3 H    0.029170    0.001136
   4 H    0.029887   -0.000059
   5 H    0.025395    0.004870
   6 H    0.034134    0.061497
   7 H    0.035190    0.021907
   8 H    0.018034    0.049474
   9 H    0.020712    0.047001

  TOTAL   0.002871    0.999829

-------
TIMINGS
-------

Total SCF time: 0 days 0 hours 0 min 2 sec 

Total time                  ....       2.784 sec
Sum of individual times     ....       2.601 sec  ( 93.4%)

Fock matrix formation       ....       2.379 sec  ( 85.5%)
  Split-RI-J                ....       0.663 sec  ( 27.9% of F)
  XC integration            ....       0.218 sec  (  9.2% of F)
    Basis function eval.    ....       0.065 sec  ( 29.6% of XC)
    Density eval.           ....       0.042 sec  ( 19.3% of XC)
    XC-Functional eval.     ....       0.021 sec  (  9.5% of XC)
    XC-Potential eval.      ....       0.066 sec  ( 30.0% of XC)
Diagonalization             ....       0.010 sec  (  0.4%)
Density matrix formation    ....       0.001 sec  (  0.0%)
Population analysis         ....       0.031 sec  (  1.1%)
Initial guess               ....       0.003 sec  (  0.1%)
Orbital Transformation      ....       0.000 sec  (  0.0%)
Orbital Orthonormalization  ....       0.001 sec  (  0.0%)
DIIS solution               ....       0.003 sec  (  0.1%)
Grid generation             ....       0.174 sec  (  6.2%)


-------------------------------------------------------------------------------
                          DFT DISPERSION CORRECTION                            
                                                                               
                              DFTD3 V3.1  Rev 1                                
                          USING Becke-Johnson damping                          
-------------------------------------------------------------------------------
The PBE functional is recognized
Active option DFTDOPT                   ...         4   

molecular C6(AA) [au] = 670.094029 


            DFT-D V3
 parameters
 s6 scaling factor         :     1.0000 
 a1 scaling factor         :     0.4289 
 s8 scaling factor         :     0.7875 
 a2 scaling factor         :     4.4407 
 ad hoc parameters k1-k3   :    16.0000     1.3333    -4.0000 

 Edisp/kcal,au: -3.400735461026  -0.005419416342 
 E6   /kcal   :  -2.471099561 
 E8   /kcal   :  -0.929635900 
 % E8         :  27.336319167 

-------------------------   ----------------
Dispersion correction           -0.005419416
-------------------------   ----------------


-------------------------   --------------------
FINAL SINGLE POINT ENERGY      -118.203138334808
-------------------------   --------------------

                                *** OPTIMIZATION RUN DONE ***

                            ***************************************
                            *     ORCA property calculations      *
                            ***************************************

                                    ---------------------
                                    Active property flags
                                    ---------------------
   (+) Dipole Moment


------------------------------------------------------------------------------
                       ORCA ELECTRIC PROPERTIES CALCULATION
------------------------------------------------------------------------------

Dipole Moment Calculation                       ... on
Quadrupole Moment Calculation                   ... off
Polarizability Calculation                      ... off
GBWName                                         ... m-mfaV_2-6_hl1d_fbond_scan_3_orca.gbw
Electron density file                           ... m-mfaV_2-6_hl1d_fbond_scan_3_orca.scfp
The origin for moment calculation is the CENTER OF MASS  = ( 0.157082, -0.029234 -0.064198)

-------------
DIPOLE MOMENT
-------------
                                X             Y             Z
Electronic contribution:      0.74681      -0.25495      -0.17487
Nuclear contribution   :     -0.85140       0.15833       0.34791
                        -----------------------------------------
Total Dipole Moment    :     -0.10459      -0.09663       0.17304
                        -----------------------------------------
Magnitude (a.u.)       :      0.22409
Magnitude (Debye)      :      0.56960



--------------------
Rotational spectrum 
--------------------
 
Rotational constants in cm-1:     1.162837     0.292605     0.256853 
Rotational constants in MHz : 34860.964477  8772.065147  7700.257648 

 Dipole components along the rotational axes: 
x,y,z [a.u.] :    -0.128933     0.137333     0.121386 
x,y,z [Debye]:    -0.327721     0.349072     0.308539 

 
[1589382206.826350] [ty2019:9505 :0]            sys.c:618  UCX  ERROR shmget(size=2097152 flags=0xfb0) for mm_recv_desc failed: Operation not permitted, please check shared memory limits by 'ipcs -l'
[1589382206.833912] [ty2019:9502 :0]            sys.c:618  UCX  ERROR shmget(size=2097152 flags=0xfb0) for mm_recv_desc failed: Operation not permitted, please check shared memory limits by 'ipcs -l'
[1589382206.834512] [ty2019:9503 :0]            sys.c:618  UCX  ERROR shmget(size=2097152 flags=0xfb0) for mm_recv_desc failed: Operation not permitted, please check shared memory limits by 'ipcs -l'
[1589382206.835608] [ty2019:9504 :0]            sys.c:618  UCX  ERROR shmget(size=2097152 flags=0xfb0) for mm_recv_desc failed: Operation not permitted, please check shared memory limits by 'ipcs -l'
[1589382206.842343] [ty2019:9504 :0]            sys.c:618  UCX  ERROR shmget(size=2097152 flags=0xb80) for ucp_am_bufs failed: Operation not permitted, please check shared memory limits by 'ipcs -l'
[1589382206.842374] [ty2019:9502 :0]            sys.c:618  UCX  ERROR shmget(size=2097152 flags=0xb80) for ucp_am_bufs failed: Operation not permitted, please check shared memory limits by 'ipcs -l'
[1589382206.843088] [ty2019:9503 :0]            sys.c:618  UCX  ERROR shmget(size=2097152 flags=0xb80) for ucp_am_bufs failed: Operation not permitted, please check shared memory limits by 'ipcs -l'

Timings for individual modules:

Sum of individual times         ...       25.198 sec (=   0.420 min)
GTO integral calculation        ...        4.073 sec (=   0.068 min)  16.2 %
SCF iterations                  ...       16.140 sec (=   0.269 min)  64.1 %
SCF Gradient evaluation         ...        4.770 sec (=   0.079 min)  18.9 %
Geometry relaxation             ...        0.216 sec (=   0.004 min)   0.9 %
                             ****ORCA TERMINATED NORMALLY****
TOTAL RUN TIME: 0 days 0 hours 0 minutes 26 seconds 456 msec
