
                                 *****************
                                 * O   R   C   A *
                                 *****************

           --- An Ab Initio, DFT and Semiempirical electronic structure package ---

                  #######################################################
                  #                        -***-                        #
                  #          Department of theory and spectroscopy      #
                  #               Directorship: Frank Neese             #
                  #        Max Planck Institute fuer Kohlenforschung    #
                  #                Kaiser Wilhelm Platz 1               #
                  #                 D-45470 Muelheim/Ruhr               #
                  #                      Germany                        #
                  #                                                     #
                  #                  All rights reserved                #
                  #                        -***-                        #
                  #######################################################


                         Program Version 4.2.1 -  RELEASE  -


 With contributions from (in alphabetic order):
   Daniel Aravena         : Magnetic Suceptibility
   Michael Atanasov       : Ab Initio Ligand Field Theory (pilot matlab implementation)
   Alexander A. Auer      : GIAO ZORA, VPT2
   Ute Becker             : Parallelization
   Giovanni Bistoni       : ED, misc. LED, open-shell LED, HFLD
   Martin Brehm           : Molecular dynamics
   Dmytro Bykov           : SCF Hessian
   Vijay G. Chilkuri      : MRCI spin determinant printing, contributions to CSF-ICE
   Dipayan Datta          : RHF DLPNO-CCSD density
   Achintya Kumar Dutta   : EOM-CC, STEOM-CC
   Dmitry Ganyushin       : Spin-Orbit,Spin-Spin,Magnetic field MRCI
   Miquel Garcia          : C-PCM Hessian, Gaussian charge scheme
   Yang Guo               : DLPNO-NEVPT2, CIM, IAO-localization
   Andreas Hansen         : Spin unrestricted coupled pair/coupled cluster methods
   Benjamin Helmich-Paris : CASSCF linear response (MC-RPA)
   Lee Huntington         : MR-EOM, pCC
   Robert Izsak           : Overlap fitted RIJCOSX, COSX-SCS-MP3, EOM
   Christian Kollmar      : KDIIS, OOCD, Brueckner-CCSD(T), CCSD density
   Simone Kossmann        : Meta GGA functionals, TD-DFT gradient, OOMP2, MP2 Hessian
   Martin Krupicka        : AUTO-CI
   Lucas Lang             : DCDCAS
   Dagmar Lenk            : GEPOL surface, SMD
   Dimitrios Liakos       : Extrapolation schemes; Compound Job, initial MDCI parallelization
   Dimitrios Manganas     : Further ROCIS development; embedding schemes
   Dimitrios Pantazis     : SARC Basis sets
   Taras Petrenko         : DFT Hessian,TD-DFT gradient, ASA, ECA, R-Raman, ABS, FL, XAS/XES, NRVS
   Peter Pinski           : DLPNO-MP2, DLPNO-MP2 Gradient
   Christoph Reimann      : Effective Core Potentials
   Marius Retegan         : Local ZFS, SOC
   Christoph Riplinger    : Optimizer, TS searches, QM/MM, DLPNO-CCSD(T), (RO)-DLPNO pert. Triples
   Tobias Risthaus        : Range-separated hybrids, TD-DFT gradient, RPA, STAB
   Michael Roemelt        : Original ROCIS implementation
   Masaaki Saitow         : Open-shell DLPNO-CCSD energy and density
   Barbara Sandhoefer     : DKH picture change effects
   Avijit Sen             : IP-ROCIS
   Kantharuban Sivalingam : CASSCF convergence, NEVPT2, FIC-MRCI
   Bernardo de Souza      : ESD, SOC TD-DFT
   Georgi Stoychev        : AutoAux, RI-MP2 NMR
   Willem Van den Heuvel  : Paramagnetic NMR
   Boris Wezisla          : Elementary symmetry handling
   Frank Wennmohs         : Technical directorship


 We gratefully acknowledge several colleagues who have allowed us to
 interface, adapt or use parts of their codes:
   Stefan Grimme, W. Hujo, H. Kruse,             : VdW corrections, initial TS optimization,
                  C. Bannwarth                     DFT functionals, gCP, sTDA/sTD-DF
   Ed Valeev, F. Pavosevic, A. Kumar             : LibInt (2-el integral package), F12 methods
   Garnet Chan, S. Sharma, J. Yang, R. Olivares  : DMRG
   Ulf Ekstrom                                   : XCFun DFT Library
   Mihaly Kallay                                 : mrcc  (arbitrary order and MRCC methods)
   Andreas Klamt, Michael Diedenhofen            : otool_cosmo (COSMO solvation model)
   Jiri Pittner, Ondrej Demel                    : Mk-CCSD
   Frank Weinhold                                : gennbo (NPA and NBO analysis)
   Christopher J. Cramer and Donald G. Truhlar   : smd solvation model
   Lars Goerigk                                  : TD-DFT with DH, B97 family of functionals
   V. Asgeirsson, H. Jonsson                     : NEB implementation
   FAccTs GmbH                                   : IRC, NEB, NEB-TS, Multilevel, MM, QM/MM, CI optimization
   S Lehtola, MJT Oliveira, MAL Marques          : LibXC Library


 Your calculation uses the libint2 library for the computation of 2-el integrals
 For citations please refer to: http://libint.valeyev.net

 Your ORCA version has been built with support for libXC version: 4.2.3
 For citations please refer to: https://tddft.org/programs/libxc/

 This ORCA versions uses:
   CBLAS   interface :  Fast vector & matrix operations
   LAPACKE interface :  Fast linear algebra routines
   SCALAPACK package :  Parallel linear algebra routines


Your calculation utilizes the atom-pairwise dispersion correction
with the Becke-Johnson damping scheme (D3BJ)
Cite in your paper:
S.Grimme, S.Ehrlich, L.Goerigk, J Comput Chem, (2011), 32, 1456–1465 
S.Grimme, J.Antony, S.Ehrlich and H.Krieg, J.Chem.Phys., 132, (2010), 154104 
   

----- Orbital basis set information -----
Your calculation utilizes the basis: def2-SVP
   F. Weigend and R. Ahlrichs, Phys. Chem. Chem. Phys. 7, 3297 (2005).

----- AuxJ basis set information -----
Your calculation utilizes the auxiliary basis: def2/J
   F. Weigend, Phys. Chem. Chem. Phys. 8, 1057 (2006).

================================================================================
                                        WARNINGS
                       Please study these warnings very carefully!
================================================================================


WARNING: your system is open-shell and RHF/RKS was chosen
  ===> : WILL SWITCH to UHF/UKS


WARNING: Geometry Optimization
  ===> : Switching off AutoStart
         For restart on a previous wavefunction, please use MOREAD

INFO   : the flag for use of LIBINT has been found!

================================================================================
                                       INPUT FILE
================================================================================
NAME = m-mfaV_2-6_hl1d_fbond_scan_2_orca.inp
|  1> ! LooseOpt PBE RI D3BJ def2-SVP def2/J CPCM(Water)
|  2> %cpcm
|  3>  surfacetype vdw_gaussian
|  4> end
|  5> %geom Constraints
|  6> { B 2 6 1.9872432992239335 C }
|  7>     end
|  8> end
|  9> %geom MaxIter 100 end
| 10> %pal nprocs 4
| 11> end
| 12> %output 
| 13> xyzfile=True 
| 14> end 
| 15> %scf 
| 16> maxiter 250 
| 17> end
| 18> %output
| 19> Print[P_Hirshfeld] = 1
| 20> end
| 21> % maxcore
| 22> 4000
| 23> *xyz 0 2
| 24> C   -1.17579223   0.12109023   0.02242531 
| 25> C    0.21808036  -0.48359767   0.21180554 
| 26> C    1.33459312   0.33107898  -0.32207069 
| 27> H   -1.23761786   1.13045806   0.47943221 
| 28> H   -1.95911631  -0.50814171   0.49017806 
| 29> H   -1.42040459   0.22817880  -1.05450918 
| 30> H    0.42314589  -0.61637991   1.29909250 
| 31> H    0.25494143  -1.51754938  -0.20152671 
| 32> H    1.22480168   1.41912786  -0.46572534 
| 33> H    2.33726852  -0.10436527  -0.45910169 
| 34> *
| 35> 
| 36>                          ****END OF INPUT****
================================================================================

                       *****************************
                       * Geometry Optimization Run *
                       *****************************

Geometry optimization settings:
Update method            Update   .... BFGS
Choice of coordinates    CoordSys .... Z-matrix Internals
Initial Hessian          InHess   .... Almoef's Model

Convergence Tolerances:
Energy Change            TolE     ....  3.0000e-05 Eh
Max. Gradient            TolMAXG  ....  2.0000e-03 Eh/bohr
RMS Gradient             TolRMSG  ....  5.0000e-04 Eh/bohr
Max. Displacement        TolMAXD  ....  1.0000e-02 bohr
RMS Displacement         TolRMSD  ....  7.0000e-03 bohr
Strict Convergence                ....  False
------------------------------------------------------------------------------
                        ORCA OPTIMIZATION COORDINATE SETUP
------------------------------------------------------------------------------

The optimization will be done in new redundant internal coordinates
Making redundant internal coordinates   ...  (new redundants) done
Evaluating the initial hessian          ...  (Almloef) done
Evaluating the coordinates              ...  done
Calculating the B-matrix                .... done
Calculating the G-matrix                .... done
Diagonalizing the G-matrix              .... done
Imposing constraints:
 Iter   0:  RMS(Cart)=    0.0236035337 RMS(Int)=    0.0589663508
 Iter   1:  RMS(Cart)=    0.0073651657 RMS(Int)=    0.0184215777
 Iter   2:  RMS(Cart)=    0.0023009389 RMS(Int)=    0.0057572954
 Iter   3:  RMS(Cart)=    0.0007191124 RMS(Int)=    0.0017995497
 Iter   4:  RMS(Cart)=    0.0002247719 RMS(Int)=    0.0005625045
 Iter   5:  RMS(Cart)=    0.0000702594 RMS(Int)=    0.0001758302
 Iter   6:  RMS(Cart)=    0.0000219620 RMS(Int)=    0.0000549620
 Iter   7:  RMS(Cart)=    0.0000068650 RMS(Int)=    0.0000171804
 Iter   8:  RMS(Cart)=    0.0000021459 RMS(Int)=    0.0000053703
 Iter   9:  RMS(Cart)=    0.0000006708 RMS(Int)=    0.0000016787
 Iter  10:  RMS(Cart)=    0.0000002097 RMS(Int)=    0.0000005247
 Iter  11:  RMS(Cart)=    0.0000000655 RMS(Int)=    0.0000001640
 Iter  12:  RMS(Cart)=    0.0000000205 RMS(Int)=    0.0000000513
CONVERGED
The first mode is                       ....   16
The number of degrees of freedom        ....   24
Storing new coordinates                 .... done

    -----------------------------------------------------------------
                    Redundant Internal Coordinates


    -----------------------------------------------------------------
         Definition                    Initial Value    Approx d2E/dq
    -----------------------------------------------------------------
      1. B(C   1,C   0)                  1.5313         0.372012   
      2. B(C   2,C   1)                  1.4429         0.446167   
      3. B(H   3,C   0)                  1.1098         0.334923   
      4. B(H   4,C   0)                  1.1084         0.336691   
      5. B(H   5,C   0)                  1.1096         0.335150   
      6. B(H   6,C   1)                  1.0823         0.329232   
      7. B(H   6,C   2)                  1.9872         0.009234 C 
      8. B(H   7,C   1)                  1.1141         0.329568   
      9. B(H   8,C   2)                  1.1031         0.343346   
     10. B(H   9,C   2)                  1.1018         0.344948   
     11. A(H   4,C   0,H   5)          107.9751         0.284587   
     12. A(C   1,C   0,H   4)          111.5298         0.320546   
     13. A(C   1,C   0,H   3)          111.0343         0.320270   
     14. A(H   3,C   0,H   5)          107.4324         0.284354   
     15. A(C   1,C   0,H   5)          111.0357         0.320306   
     16. A(H   3,C   0,H   4)          107.6554         0.284557   
     17. A(C   0,C   1,C   2)          116.6116         0.374332   
     18. A(C   0,C   1,H   6)          111.1817         0.319375   
     19. A(C   2,C   1,H   6)          102.8685         0.329051   
     20. A(C   0,C   1,H   7)          109.9586         0.319428   
     21. A(C   2,C   1,H   7)          110.6846         0.329106   
     22. A(H   6,C   1,H   7)          104.7104         0.282860   
     23. A(C   1,C   2,H   8)          120.9416         0.331342   
     24. A(C   1,C   2,H   9)          120.9011         0.331597   
     25. A(H   8,C   2,H   9)          117.6615         0.286741   
     26. D(H   7,C   1,C   0,H   4)     57.0127         0.011056   
     27. D(C   2,C   1,C   0,H   4)   -175.9549         0.011056   
     28. D(C   2,C   1,C   0,H   3)    -55.8870         0.011056   
     29. D(H   7,C   1,C   0,H   3)    177.0806         0.011056   
     30. D(H   6,C   1,C   0,H   3)     61.5840         0.011056   
     31. D(H   6,C   1,C   0,H   5)   -178.9587         0.011056   
     32. D(H   7,C   1,C   0,H   5)    -63.4620         0.011056   
     33. D(H   6,C   1,C   0,H   4)    -58.4839         0.011056   
     34. D(C   2,C   1,C   0,H   5)     63.5704         0.011056   
     35. D(H   9,C   2,C   1,H   7)    -38.5501         0.015726   
     36. D(H   8,C   2,C   1,H   6)    -98.8956         0.015726   
     37. D(H   8,C   2,C   1,H   7)    149.7166         0.015726   
     38. D(H   9,C   2,C   1,C   0)   -165.2238         0.015726   
     39. D(H   8,C   2,C   1,C   0)     23.0429         0.015726   
     40. D(H   9,C   2,C   1,H   6)     72.8377         0.015726   
    -----------------------------------------------------------------

Number of atoms                         .... 10
Number of degrees of freedom            .... 40

         *************************************************************
         *                GEOMETRY OPTIMIZATION CYCLE   1            *
         *************************************************************
---------------------------------
CARTESIAN COORDINATES (ANGSTROEM)
---------------------------------
  C     -1.179784    0.120886    0.020750
  C      0.222005   -0.468406    0.201022
  C      1.322837    0.316489   -0.303102
  H     -1.247621    1.132556    0.471858
  H     -1.952348   -0.513315    0.499838
  H     -1.435520    0.218578   -1.054592
  H      0.466802   -0.581646    1.249217
  H      0.255392   -1.503129   -0.210691
  H      1.226046    1.406686   -0.440418
  H      2.322092   -0.128798   -0.433882

----------------------------
CARTESIAN COORDINATES (A.U.)
----------------------------
  NO LB      ZA    FRAG     MASS         X           Y           Z
   0 C     6.0000    0    12.011   -2.229469    0.228441    0.039212
   1 C     6.0000    0    12.011    0.419529   -0.885159    0.379876
   2 C     6.0000    0    12.011    2.499799    0.598077   -0.572779
   3 H     1.0000    0     1.008   -2.357662    2.140221    0.891683
   4 H     1.0000    0     1.008   -3.689403   -0.970025    0.944556
   5 H     1.0000    0     1.008   -2.712741    0.413052   -1.992890
   6 H     1.0000    0     1.008    0.882128   -1.099152    2.360679
   7 H     1.0000    0     1.008    0.482621   -2.840503   -0.398148
   8 H     1.0000    0     1.008    2.316891    2.658252   -0.832270
   9 H     1.0000    0     1.008    4.388118   -0.243393   -0.819919

--------------------------------
INTERNAL COORDINATES (ANGSTROEM)
--------------------------------
 C      0   0   0     0.000000000000     0.00000000     0.00000000
 C      1   0   0     1.531141118602     0.00000000     0.00000000
 C      2   1   0     1.481662112716   115.10537367     0.00000000
 H      1   2   3     1.109730206587   111.03826668   303.14131303
 H      1   2   3     1.108296929418   111.53064356   183.07573212
 H      1   2   3     1.109545431355   111.03045460    62.60269431
 H      2   1   3     1.114394870878   109.58781302   119.54242165
 H      2   1   3     1.114117779224   110.53270479   233.82965952
 H      3   2   1     1.102969257973   120.95210580    23.05954611
 H      3   2   1     1.101701932278   120.88495342   194.77196629

---------------------------
INTERNAL COORDINATES (A.U.)
---------------------------
 C      0   0   0     0.000000000000     0.00000000     0.00000000
 C      1   0   0     2.893437386544     0.00000000     0.00000000
 C      2   1   0     2.799935616040   115.10537367     0.00000000
 H      1   2   3     2.097086172989   111.03826668   303.14131303
 H      1   2   3     2.094377671665   111.53064356   183.07573212
 H      1   2   3     2.096736998405   111.03045460    62.60269431
 H      2   1   3     2.105901111006   109.58781302   119.54242165
 H      2   1   3     2.105377483666   110.53270479   233.82965952
 H      3   2   1     2.084309831703   120.95210580    23.05954611
 H      3   2   1     2.081914933217   120.88495342   194.77196629

---------------------
BASIS SET INFORMATION
---------------------
There are 2 groups of distinct atoms

 Group   1 Type C   : 7s4p1d contracted to 3s2p1d pattern {511/31/1}
 Group   2 Type H   : 4s1p contracted to 2s1p pattern {31/1}

Atom   0C    basis set group =>   1
Atom   1C    basis set group =>   1
Atom   2C    basis set group =>   1
Atom   3H    basis set group =>   2
Atom   4H    basis set group =>   2
Atom   5H    basis set group =>   2
Atom   6H    basis set group =>   2
Atom   7H    basis set group =>   2
Atom   8H    basis set group =>   2
Atom   9H    basis set group =>   2
---------------------------------
AUXILIARY/J BASIS SET INFORMATION
---------------------------------
There are 2 groups of distinct atoms

 Group   1 Type C   : 12s5p4d2f1g contracted to 6s4p3d1f1g pattern {711111/2111/211/2/1}
 Group   2 Type H   : 5s2p1d contracted to 3s1p1d pattern {311/2/1}

Atom   0C    basis set group =>   1
Atom   1C    basis set group =>   1
Atom   2C    basis set group =>   1
Atom   3H    basis set group =>   2
Atom   4H    basis set group =>   2
Atom   5H    basis set group =>   2
Atom   6H    basis set group =>   2
Atom   7H    basis set group =>   2
Atom   8H    basis set group =>   2
Atom   9H    basis set group =>   2
[1589382153.519188] [ty2019:8958 :0]            sys.c:618  UCX  ERROR shmget(size=2097152 flags=0xfb0) for mm_recv_desc failed: Operation not permitted, please check shared memory limits by 'ipcs -l'
[1589382153.520313] [ty2019:8956 :0]            sys.c:618  UCX  ERROR shmget(size=2097152 flags=0xfb0) for mm_recv_desc failed: Operation not permitted, please check shared memory limits by 'ipcs -l'
[1589382153.521120] [ty2019:8957 :0]            sys.c:618  UCX  ERROR shmget(size=2097152 flags=0xfb0) for mm_recv_desc failed: Operation not permitted, please check shared memory limits by 'ipcs -l'
[1589382153.523228] [ty2019:8955 :0]            sys.c:618  UCX  ERROR shmget(size=2097152 flags=0xfb0) for mm_recv_desc failed: Operation not permitted, please check shared memory limits by 'ipcs -l'
[1589382153.529521] [ty2019:8957 :0]            sys.c:618  UCX  ERROR shmget(size=2097152 flags=0xb80) for ucp_am_bufs failed: Operation not permitted, please check shared memory limits by 'ipcs -l'
[1589382153.532617] [ty2019:8955 :0]            sys.c:618  UCX  ERROR shmget(size=2097152 flags=0xb80) for ucp_am_bufs failed: Operation not permitted, please check shared memory limits by 'ipcs -l'
[1589382153.533647] [ty2019:8958 :0]            sys.c:618  UCX  ERROR shmget(size=2097152 flags=0xb80) for ucp_am_bufs failed: Operation not permitted, please check shared memory limits by 'ipcs -l'
[1589382153.533652] [ty2019:8956 :0]            sys.c:618  UCX  ERROR shmget(size=2097152 flags=0xb80) for ucp_am_bufs failed: Operation not permitted, please check shared memory limits by 'ipcs -l'


           ************************************************************
           *        Program running with 4 parallel MPI-processes     *
           *              working on a common directory               *
           ************************************************************
------------------------------------------------------------------------------
                           ORCA GTO INTEGRAL CALCULATION
                           -- RI-GTO INTEGRALS CHOSEN --
------------------------------------------------------------------------------

                         BASIS SET STATISTICS AND STARTUP INFO

Gaussian basis set:
 # of primitive gaussian shells          ...   71
 # of primitive gaussian functions       ...  121
 # of contracted shells                  ...   39
 # of contracted basis functions         ...   77
 Highest angular momentum                ...    2
 Maximum contraction depth               ...    5
Auxiliary gaussian basis set:
 # of primitive gaussian shells          ...  128
 # of primitive gaussian functions       ...  322
 # of contracted shells                  ...   80
 # of contracted aux-basis functions     ...  224
 Highest angular momentum                ...    4
 Maximum contraction depth               ...    7
Ratio of auxiliary to basis functions    ...  2.91
Integral package used                  ... LIBINT
 One Electron integrals                  ... done
 Ordering auxiliary basis shells         ... done
 Integral threshhold             Thresh  ...  2.500e-11
 Primitive cut-off               TCut    ...  2.500e-12
 Pre-screening matrix                    ... done
 Shell pair data                         ... 
 Ordering of the shell pairs             ... done (   0.000 sec) 778 of 780 pairs
 Determination of significant pairs      ... done (   0.000 sec)
 Creation of shell pair data             ... done (   0.000 sec)
 Storage of shell pair data              ... done (   0.000 sec)
 Shell pair data done in (   0.001 sec)
 Computing two index integrals           ... done
 Cholesky decomposition of the V-matrix  ... done


Timings:
 Total evaluation time                   ...   0.128 sec (  0.002 min)
 One electron matrix time                ...   0.008 sec (  0.000 min) =  6.0%
 Schwartz matrix evaluation time         ...   0.102 sec (  0.002 min) = 79.2%
 Two index repulsion integral time       ...   0.001 sec (  0.000 min) =  1.1%
 Cholesky decomposition of V             ...   0.001 sec (  0.000 min) =  0.8%
 Three index repulsion integral time     ...   0.000 sec (  0.000 min) =  0.0%

[1589382154.521286] [ty2019:8977 :0]            sys.c:618  UCX  ERROR shmget(size=2097152 flags=0xfb0) for mm_recv_desc failed: Operation not permitted, please check shared memory limits by 'ipcs -l'
[1589382154.531837] [ty2019:8978 :0]            sys.c:618  UCX  ERROR shmget(size=2097152 flags=0xfb0) for mm_recv_desc failed: Operation not permitted, please check shared memory limits by 'ipcs -l'
[1589382154.535333] [ty2019:8979 :0]            sys.c:618  UCX  ERROR shmget(size=2097152 flags=0xfb0) for mm_recv_desc failed: Operation not permitted, please check shared memory limits by 'ipcs -l'
[1589382154.535333] [ty2019:8980 :0]            sys.c:618  UCX  ERROR shmget(size=2097152 flags=0xfb0) for mm_recv_desc failed: Operation not permitted, please check shared memory limits by 'ipcs -l'
[1589382154.543005] [ty2019:8977 :0]            sys.c:618  UCX  ERROR shmget(size=2097152 flags=0xb80) for ucp_am_bufs failed: Operation not permitted, please check shared memory limits by 'ipcs -l'
[1589382154.543632] [ty2019:8978 :0]            sys.c:618  UCX  ERROR shmget(size=2097152 flags=0xb80) for ucp_am_bufs failed: Operation not permitted, please check shared memory limits by 'ipcs -l'


           ************************************************************
           *        Program running with 4 parallel MPI-processes     *
           *              working on a common directory               *
           ************************************************************
[1589382154.545721] [ty2019:8979 :0]            sys.c:618  UCX  ERROR shmget(size=2097152 flags=0xb80) for ucp_am_bufs failed: Operation not permitted, please check shared memory limits by 'ipcs -l'
[1589382154.546482] [ty2019:8980 :0]            sys.c:618  UCX  ERROR shmget(size=2097152 flags=0xb80) for ucp_am_bufs failed: Operation not permitted, please check shared memory limits by 'ipcs -l'
-------------------------------------------------------------------------------
                                 ORCA SCF
-------------------------------------------------------------------------------

------------
SCF SETTINGS
------------
Hamiltonian:
 Density Functional     Method          .... DFT(GTOs)
 Exchange Functional    Exchange        .... PBE
   PBE kappa parameter   XKappa         ....  0.804000
   PBE mue parameter    XMuePBE         ....  0.219520
 Correlation Functional Correlation     .... PBE
   PBE beta parameter  CBetaPBE         ....  0.066725
 LDA part of GGA corr.  LDAOpt          .... PW91-LDA
 Gradients option       PostSCFGGA      .... off
   Density functional embedding theory  .... OFF
   NL short-range parameter             ....  6.400000
 RI-approximation to the Coulomb term is turned on
   Number of auxiliary basis functions  .... 224


General Settings:
 Integral files         IntName         .... m-mfaV_2-6_hl1d_fbond_scan_2_orca
 Hartree-Fock type      HFTyp           .... UHF
 Total Charge           Charge          ....    0
 Multiplicity           Mult            ....    2
 Number of Electrons    NEL             ....   25
 Basis Dimension        Dim             ....   77
 Nuclear Repulsion      ENuc            ....     76.0695922223 Eh

Convergence Acceleration:
 DIIS                   CNVDIIS         .... on
   Start iteration      DIISMaxIt       ....    12
   Startup error        DIISStart       ....  0.200000
   # of expansion vecs  DIISMaxEq       ....     5
   Bias factor          DIISBfac        ....   1.050
   Max. coefficient     DIISMaxC        ....  10.000
 Newton-Raphson         CNVNR           .... off
 SOSCF                  CNVSOSCF        .... off
 Level Shifting         CNVShift        .... on
   Level shift para.    LevelShift      ....    0.2500
   Turn off err/grad.   ShiftErr        ....    0.0010
 Zerner damping         CNVZerner       .... off
 Static damping         CNVDamp         .... on
   Fraction old density DampFac         ....    0.7000
   Max. Damping (<1)    DampMax         ....    0.9800
   Min. Damping (>=0)   DampMin         ....    0.0000
   Turn off err/grad.   DampErr         ....    0.1000
 Fernandez-Rico         CNVRico         .... off

SCF Procedure:
 Maximum # iterations   MaxIter         ....   250
 SCF integral mode      SCFMode         .... Direct
   Integral package                     .... LIBINT
 Reset frequency        DirectResetFreq ....    20
 Integral Threshold     Thresh          ....  2.500e-11 Eh
 Primitive CutOff       TCut            ....  2.500e-12 Eh

Convergence Tolerance:
 Convergence Check Mode ConvCheckMode   .... Total+1el-Energy
 Convergence forced     ConvForced      .... 0
 Energy Change          TolE            ....  1.000e-08 Eh
 1-El. energy change                    ....  1.000e-05 Eh
 DIIS Error             TolErr          ....  5.000e-07


Diagonalization of the overlap matrix:
Smallest eigenvalue                        ... 2.846e-03
Time for diagonalization                   ...    0.001 sec
Threshold for overlap eigenvalues          ... 1.000e-08
Number of eigenvalues below threshold      ... 0
Time for construction of square roots      ...    0.001 sec
Total time needed                          ...    0.002 sec

-------------------
DFT GRID GENERATION
-------------------

General Integration Accuracy     IntAcc      ...  4.340
Radial Grid Type                 RadialGrid  ... Gauss-Chebyshev
Angular Grid (max. acc.)         AngularGrid ... Lebedev-110
Angular grid pruning method      GridPruning ... 3 (G Style)
Weight generation scheme         WeightScheme... Becke
Basis function cutoff            BFCut       ...    1.0000e-11
Integration weight cutoff        WCut        ...    1.0000e-14
Grids for H and He will be reduced by one unit

# of grid points (after initial pruning)     ...  10526 (   0.0 sec)
# of grid points (after weights+screening)   ...  10043 (   0.0 sec)
nearest neighbour list constructed           ...    0.0 sec
Grid point re-assignment to atoms done       ...    0.0 sec
Grid point division into batches done        ...    0.0 sec
Reduced shell lists constructed in    0.0 sec

Total number of grid points                  ...    10043
Total number of batches                      ...      163
Average number of points per batch           ...       61
Average number of grid points per atom       ...     1004
Average number of shells per batch           ...    35.93 (92.12%)
Average number of basis functions per batch  ...    71.02 (92.24%)
Average number of large shells per batch     ...    33.45 (93.11%)
Average number of large basis fcns per batch ...    65.93 (92.83%)
Maximum spatial batch extension              ...  17.53, 17.47, 17.61 au
Average spatial batch extension              ...   0.59,  0.56,  0.64 au

Time for grid setup =    0.030 sec

------------------------------
INITIAL GUESS: MODEL POTENTIAL
------------------------------
Loading Hartree-Fock densities                     ... done
Calculating cut-offs                               ... done
Setting up the integral package                    ... done
Initializing the effective Hamiltonian             ... done
Starting the Coulomb interaction                   ... done (   0.0 sec)
Reading the grid                                   ... done
Mapping shells                                     ... done
Starting the XC term evaluation                    ... done (   0.0 sec)
  promolecular density results
     # of electrons  =     24.992834187
     EX              =    -17.352053532
     EC              =     -0.781265561
     EX+EC           =    -18.133319093
Transforming the Hamiltonian                       ... done (   0.0 sec)
Diagonalizing the Hamiltonian                      ... done (   0.0 sec)
Back transforming the eigenvectors                 ... done (   0.0 sec)
Now organizing SCF variables                       ... done
                      ------------------
                      INITIAL GUESS DONE (   0.1 sec)
                      ------------------

--------------------
CPCM SOLVATION MODEL
--------------------
CPCM parameters:
  Epsilon                                         ...      80.4000
  Refrac                                          ...       1.3300
  Rsolv                                           ...       1.3000
  Surface type                                    ... GAUSSIAN VDW
  Epsilon function type                           ...         CPCM
Radii:
 Radius for C  used is    3.8550 Bohr (=   2.0400 Ang.)
 Radius for H  used is    2.4944 Bohr (=   1.3200 Ang.)
Calculating surface                               ...        done! (  0.0s)
GEPOL surface points                              ...          612
GEPOL Volume                                      ...     536.8320
GEPOL Surface-area                                ...     354.0300
Calculating surface distance matrix               ...        done! (  0.0s)
Performing Cholesky decomposition & store         ...        done! (  0.0s)
Overall time for CPCM initialization              ...                 0.0s
--------------
SCF ITERATIONS
--------------
ITER       Energy         Delta-E        Max-DP      RMS-DP      [F,P]     Damp
               ***  Starting incremental Fock matrix formation  ***
  0   -118.1032078024   0.000000000000 0.03507625  0.00158551  0.1524770 0.7000
  1   -118.1508325620  -0.047624759668 0.02344869  0.00115004  0.0725037 0.7000
                               ***Turning on DIIS***
  2   -118.1680790781  -0.017246516093 0.02885300  0.00187962  0.0200754 0.0000
  3   -118.1914852355  -0.023406157341 0.01814125  0.00076780  0.0462034 0.0000
  4   -118.2002099631  -0.008724727650 0.00597242  0.00025117  0.0088891 0.0000
  5   -118.2006911334  -0.000481170272 0.00132738  0.00009823  0.0024529 0.0000
  6   -118.2007322530  -0.000041119655 0.00125857  0.00006540  0.0008427 0.0000
  7   -118.2007378714  -0.000005618333 0.00036052  0.00000822  0.0003998 0.0000
  8   -118.2007384437  -0.000000572373 0.00007420  0.00000271  0.0000377 0.0000
  9   -118.2007384881  -0.000000044327 0.00002223  0.00000079  0.0000066 0.0000
                 **** Energy Check signals convergence ****

               *****************************************************
               *                     SUCCESS                       *
               *           SCF CONVERGED AFTER  10 CYCLES          *
               *****************************************************

Setting up the final grid:

General Integration Accuracy     IntAcc      ...  4.670
Radial Grid Type                 RadialGrid  ... Gauss-Chebyshev
Angular Grid (max. acc.)         AngularGrid ... Lebedev-302
Angular grid pruning method      GridPruning ... 3 (G Style)
Weight generation scheme         WeightScheme... Becke
Basis function cutoff            BFCut       ...    1.0000e-11
Integration weight cutoff        WCut        ...    1.0000e-14
Grids for H and He will be reduced by one unit

# of grid points (after initial pruning)     ...  42394 (   0.0 sec)
# of grid points (after weights+screening)   ...  39973 (   0.0 sec)
nearest neighbour list constructed           ...    0.0 sec
Grid point re-assignment to atoms done       ...    0.0 sec
Grid point division into batches done        ...    0.1 sec
Reduced shell lists constructed in    0.2 sec

Total number of grid points                  ...    39973
Total number of batches                      ...      629
Average number of points per batch           ...       63
Average number of grid points per atom       ...     3997
Average number of shells per batch           ...    35.04 (89.86%)
Average number of basis functions per batch  ...    69.25 (89.93%)
Average number of large shells per batch     ...    31.81 (90.78%)
Average number of large basis fcns per batch ...    61.96 (89.48%)
Maximum spatial batch extension              ...  14.39, 17.72, 15.19 au
Average spatial batch extension              ...   0.43,  0.44,  0.45 au

Final grid set up in    0.2 sec
Final integration                            ... done (   0.1 sec)
Change in XC energy                          ...    -0.000535709
Integrated number of electrons               ...    24.999994103
Previous integrated no of electrons          ...    24.996518527

----------------
TOTAL SCF ENERGY
----------------

Total Energy       :         -118.20127420 Eh           -3216.42019 eV

Components:
Nuclear Repulsion  :           76.06959222 Eh            2069.95884 eV
Electronic Energy  :         -194.27086642 Eh           -5286.37903 eV
One Electron Energy:         -307.98942995 Eh           -8380.81846 eV
Two Electron Energy:          113.71856352 Eh            3094.43943 eV
CPCM Dielectric    :           -0.00117371 Eh              -0.03194 eV

Virial components:
Potential Energy   :         -234.97942703 Eh           -6394.11528 eV
Kinetic Energy     :          116.77815283 Eh            3177.69509 eV
Virial Ratio       :            2.01218654


DFT components:
N(Alpha)           :       12.999993979309 electrons
N(Beta)            :       12.000000124025 electrons
N(Total)           :       24.999994103335 electrons
E(X)               :      -17.854306532376 Eh       
E(C)               :       -0.790746199419 Eh       
E(XC)              :      -18.645052731796 Eh       
DFET-embed. en.    :        0.000000000000 Eh       
CPCM Solvation Model Properties:
Surface-charge          :           -0.01993343
Charge-correction       :            0.00002719 Eh               0.00074 eV
Free-energy (cav+disp)  :            0.00317376 Eh               0.08636 eV
Corrected G(solv)       :         -118.19807324 Eh           -3216.33309 eV

---------------
SCF CONVERGENCE
---------------

  Last Energy change         ...   -4.3907e-09  Tolerance :   1.0000e-08
  Last MAX-Density change    ...    7.2302e-06  Tolerance :   1.0000e-07
  Last RMS-Density change    ...    2.5341e-07  Tolerance :   5.0000e-09
  Last DIIS Error            ...    2.6610e-06  Tolerance :   5.0000e-07

             **** THE GBW FILE WAS UPDATED (m-mfaV_2-6_hl1d_fbond_scan_2_orca.gbw) ****
             **** DENSITY FILE WAS UPDATED (m-mfaV_2-6_hl1d_fbond_scan_2_orca.scfp) ****
             **** ENERGY FILE WAS UPDATED (m-mfaV_2-6_hl1d_fbond_scan_2_orca.en.tmp) ****
----------------------
UHF SPIN CONTAMINATION
----------------------

Warning: in a DFT calculation there is little theoretical justification to 
         calculate <S**2> as in Hartree-Fock theory. We will do it anyways
         but you should keep in mind that the values have only limited relevance

Expectation value of <S**2>     :     0.753309
Ideal value S*(S+1) for S=0.5   :     0.750000
Deviation                       :     0.003309

             **** THE GBW FILE WAS UPDATED (m-mfaV_2-6_hl1d_fbond_scan_2_orca.gbw) ****
             **** DENSITY FILE WAS UPDATED (m-mfaV_2-6_hl1d_fbond_scan_2_orca.scfp) ****
----------------
ORBITAL ENERGIES
----------------
                 SPIN UP ORBITALS
  NO   OCC          E(Eh)            E(eV) 
   0   1.0000      -9.892637      -269.1923 
   1   1.0000      -9.890811      -269.1426 
   2   1.0000      -9.886518      -269.0258 
   3   1.0000      -0.705726       -19.2038 
   4   1.0000      -0.597503       -16.2589 
   5   1.0000      -0.506792       -13.7905 
   6   1.0000      -0.401057       -10.9133 
   7   1.0000      -0.389559       -10.6004 
   8   1.0000      -0.359445        -9.7810 
   9   1.0000      -0.313169        -8.5218 
  10   1.0000      -0.303565        -8.2604 
  11   1.0000      -0.292568        -7.9612 
  12   1.0000      -0.153279        -4.1709 
  13   0.0000       0.049045         1.3346 
  14   0.0000       0.084165         2.2903 
  15   0.0000       0.086665         2.3583 
  16   0.0000       0.098079         2.6689 
  17   0.0000       0.119436         3.2500 
  18   0.0000       0.131587         3.5807 
  19   0.0000       0.141741         3.8570 
  20   0.0000       0.200787         5.4637 
  21   0.0000       0.247755         6.7417 
  22   0.0000       0.368089        10.0162 
  23   0.0000       0.388815        10.5802 
  24   0.0000       0.400664        10.9026 
  25   0.0000       0.446954        12.1622 
  26   0.0000       0.455622        12.3981 
  27   0.0000       0.478665        13.0251 
  28   0.0000       0.561903        15.2901 
  29   0.0000       0.584088        15.8938 
  30   0.0000       0.598358        16.2822 
  31   0.0000       0.600987        16.3537 
  32   0.0000       0.620775        16.8921 
  33   0.0000       0.625103        17.0099 
  34   0.0000       0.641805        17.4644 
  35   0.0000       0.654091        17.7987 
  36   0.0000       0.664807        18.0903 
  37   0.0000       0.682455        18.5705 
  38   0.0000       0.738638        20.0994 
  39   0.0000       0.841738        22.9049 
  40   0.0000       0.939597        25.5677 
  41   0.0000       1.081067        29.4173 
  42   0.0000       1.164072        31.6760 
  43   0.0000       1.176152        32.0047 
  44   0.0000       1.296134        35.2696 
  45   0.0000       1.439546        39.1720 
  46   0.0000       1.473660        40.1003 
  47   0.0000       1.520442        41.3733 
  48   0.0000       1.543813        42.0093 
  49   0.0000       1.603267        43.6271 
  50   0.0000       1.668925        45.4137 
  51   0.0000       1.689921        45.9851 
  52   0.0000       1.717798        46.7437 
  53   0.0000       1.726509        46.9807 
  54   0.0000       1.734365        47.1945 
  55   0.0000       1.781288        48.4713 
  56   0.0000       1.798530        48.9405 
  57   0.0000       1.822330        49.5881 
  58   0.0000       1.873334        50.9760 
  59   0.0000       1.916217        52.1429 
  60   0.0000       1.977417        53.8082 
  61   0.0000       2.090322        56.8805 
  62   0.0000       2.129826        57.9555 
  63   0.0000       2.174222        59.1636 
  64   0.0000       2.290696        62.3330 
  65   0.0000       2.320750        63.1508 
  66   0.0000       2.351432        63.9857 
  67   0.0000       2.439480        66.3816 
  68   0.0000       2.500588        68.0444 
  69   0.0000       2.514255        68.4164 
  70   0.0000       2.662635        72.4540 
  71   0.0000       2.755227        74.9735 
  72   0.0000       2.815501        76.6137 
  73   0.0000       2.871914        78.1487 
  74   0.0000       2.893044        78.7237 
  75   0.0000       2.961515        80.5869 
  76   0.0000       3.017700        82.1158 

                 SPIN DOWN ORBITALS
  NO   OCC          E(Eh)            E(eV) 
   0   1.0000      -9.891421      -269.1592 
   1   1.0000      -9.886362      -269.0216 
   2   1.0000      -9.879277      -268.8288 
   3   1.0000      -0.696898       -18.9635 
   4   1.0000      -0.585611       -15.9353 
   5   1.0000      -0.493047       -13.4165 
   6   1.0000      -0.394965       -10.7475 
   7   1.0000      -0.382644       -10.4123 
   8   1.0000      -0.354152        -9.6370 
   9   1.0000      -0.308305        -8.3894 
  10   1.0000      -0.297691        -8.1006 
  11   1.0000      -0.288985        -7.8637 
  12   0.0000      -0.071114        -1.9351 
  13   0.0000       0.051843         1.4107 
  14   0.0000       0.086528         2.3546 
  15   0.0000       0.094667         2.5760 
  16   0.0000       0.104344         2.8394 
  17   0.0000       0.121555         3.3077 
  18   0.0000       0.134127         3.6498 
  19   0.0000       0.145783         3.9669 
  20   0.0000       0.204114         5.5542 
  21   0.0000       0.255300         6.9471 
  22   0.0000       0.373239        10.1564 
  23   0.0000       0.392780        10.6881 
  24   0.0000       0.403586        10.9821 
  25   0.0000       0.463941        12.6245 
  26   0.0000       0.474757        12.9188 
  27   0.0000       0.533125        14.5071 
  28   0.0000       0.567864        15.4524 
  29   0.0000       0.592399        16.1200 
  30   0.0000       0.603144        16.4124 
  31   0.0000       0.614767        16.7287 
  32   0.0000       0.625431        17.0188 
  33   0.0000       0.632906        17.2222 
  34   0.0000       0.645409        17.5625 
  35   0.0000       0.657623        17.8948 
  36   0.0000       0.670988        18.2585 
  37   0.0000       0.689715        18.7681 
  38   0.0000       0.742162        20.1953 
  39   0.0000       0.849403        23.1134 
  40   0.0000       0.945960        25.7409 
  41   0.0000       1.091895        29.7120 
  42   0.0000       1.178228        32.0612 
  43   0.0000       1.187542        32.3146 
  44   0.0000       1.299974        35.3741 
  45   0.0000       1.445506        39.3342 
  46   0.0000       1.473700        40.1014 
  47   0.0000       1.532377        41.6981 
  48   0.0000       1.546177        42.0736 
  49   0.0000       1.612041        43.8659 
  50   0.0000       1.671757        45.4908 
  51   0.0000       1.696135        46.1542 
  52   0.0000       1.719325        46.7852 
  53   0.0000       1.728451        47.0335 
  54   0.0000       1.763875        47.9975 
  55   0.0000       1.794615        48.8340 
  56   0.0000       1.805935        49.1420 
  57   0.0000       1.830128        49.8003 
  58   0.0000       1.889030        51.4031 
  59   0.0000       1.937945        52.7342 
  60   0.0000       1.995343        54.2960 
  61   0.0000       2.107556        57.3495 
  62   0.0000       2.158843        58.7451 
  63   0.0000       2.188630        59.5556 
  64   0.0000       2.302106        62.6435 
  65   0.0000       2.325707        63.2857 
  66   0.0000       2.359259        64.1987 
  67   0.0000       2.446277        66.5666 
  68   0.0000       2.513142        68.3861 
  69   0.0000       2.522782        68.6484 
  70   0.0000       2.670499        72.6680 
  71   0.0000       2.761451        75.1429 
  72   0.0000       2.820741        76.7563 
  73   0.0000       2.875358        78.2425 
  74   0.0000       2.897859        78.8548 
  75   0.0000       2.968339        80.7726 
  76   0.0000       3.024230        82.2935 

                    ********************************
                    * MULLIKEN POPULATION ANALYSIS *
                    ********************************

--------------------------------------------
MULLIKEN ATOMIC CHARGES AND SPIN POPULATIONS
--------------------------------------------
   0 C :   -0.066578    0.003903
   1 C :   -0.025785   -0.071922
   2 C :   -0.174790    1.064544
   3 H :    0.032861    0.000057
   4 H :    0.033781   -0.000055
   5 H :    0.034428    0.005782
   6 H :    0.040754    0.064289
   7 H :    0.036553    0.029339
   8 H :    0.043859   -0.048099
   9 H :    0.044917   -0.047838
Sum of atomic charges         :    0.0000000
Sum of atomic spin populations:    1.0000000

-----------------------------------------------------
MULLIKEN REDUCED ORBITAL CHARGES AND SPIN POPULATIONS
-----------------------------------------------------
CHARGE
  0 C s       :     3.039707  s :     3.039707
      pz      :     1.015730  p :     3.002367
      px      :     0.977013
      py      :     1.009624
      dz2     :     0.005594  d :     0.024504
      dxz     :     0.004577
      dyz     :     0.003294
      dx2y2   :     0.005659
      dxy     :     0.005380
  1 C s       :     2.998469  s :     2.998469
      pz      :     1.008975  p :     2.990020
      px      :     0.965094
      py      :     1.015952
      dz2     :     0.009053  d :     0.037295
      dxz     :     0.007002
      dyz     :     0.004006
      dx2y2   :     0.009609
      dxy     :     0.007626
  2 C s       :     3.204589  s :     3.204589
      pz      :     1.031216  p :     2.948757
      px      :     0.956298
      py      :     0.961243
      dz2     :     0.003274  d :     0.021444
      dxz     :     0.002613
      dyz     :     0.001886
      dx2y2   :     0.008230
      dxy     :     0.005441
  3 H s       :     0.944300  s :     0.944300
      pz      :     0.006604  p :     0.022838
      px      :     0.004394
      py      :     0.011840
  4 H s       :     0.943499  s :     0.943499
      pz      :     0.006755  p :     0.022720
      px      :     0.008294
      py      :     0.007671
  5 H s       :     0.942807  s :     0.942807
      pz      :     0.012738  p :     0.022765
      px      :     0.004770
      py      :     0.005258
  6 H s       :     0.933876  s :     0.933876
      pz      :     0.013658  p :     0.025370
      px      :     0.005625
      py      :     0.006087
  7 H s       :     0.941219  s :     0.941219
      pz      :     0.006308  p :     0.022229
      px      :     0.004026
      py      :     0.011895
  8 H s       :     0.932999  s :     0.932999
      pz      :     0.005519  p :     0.023142
      px      :     0.004236
      py      :     0.013386
  9 H s       :     0.932157  s :     0.932157
      pz      :     0.005405  p :     0.022927
      px      :     0.011931
      py      :     0.005591

SPIN
  0 C s       :    -0.000162  s :    -0.000162
      pz      :    -0.000332  p :     0.004003
      px      :     0.002233
      py      :     0.002101
      dz2     :     0.000086  d :     0.000062
      dxz     :    -0.000075
      dyz     :     0.000081
      dx2y2   :    -0.000020
      dxy     :    -0.000010
  1 C s       :    -0.023317  s :    -0.023317
      pz      :    -0.014648  p :    -0.056380
      px      :    -0.024180
      py      :    -0.017552
      dz2     :     0.004854  d :     0.007774
      dxz     :     0.000884
      dyz     :     0.001652
      dx2y2   :     0.000095
      dxy     :     0.000288
  2 C s       :     0.097666  s :     0.097666
      pz      :     0.826221  p :     0.969086
      px      :     0.079173
      py      :     0.063691
      dz2     :    -0.001758  d :    -0.002208
      dxz     :    -0.000336
      dyz     :    -0.000118
      dx2y2   :     0.000062
      dxy     :    -0.000057
  3 H s       :     0.000012  s :     0.000012
      pz      :     0.000001  p :     0.000045
      px      :     0.000053
      py      :    -0.000009
  4 H s       :    -0.000061  s :    -0.000061
      pz      :    -0.000012  p :     0.000007
      px      :     0.000015
      py      :     0.000004
  5 H s       :     0.005814  s :     0.005814
      pz      :    -0.000022  p :    -0.000032
      px      :    -0.000015
      py      :     0.000005
  6 H s       :     0.063783  s :     0.063783
      pz      :    -0.000451  p :     0.000506
      px      :     0.000856
      py      :     0.000102
  7 H s       :     0.029507  s :     0.029507
      pz      :    -0.000108  p :    -0.000168
      px      :     0.000159
      py      :    -0.000220
  8 H s       :    -0.053285  s :    -0.053285
      pz      :     0.004779  p :     0.005186
      px      :     0.000117
      py      :     0.000290
  9 H s       :    -0.052817  s :    -0.052817
      pz      :     0.004586  p :     0.004979
      px      :     0.000312
      py      :     0.000081


                     *******************************
                     * LOEWDIN POPULATION ANALYSIS *
                     *******************************

-------------------------------------------
LOEWDIN ATOMIC CHARGES AND SPIN POPULATIONS
-------------------------------------------
   0 C :   -0.073277    0.007032
   1 C :   -0.072938    0.003345
   2 C :   -0.065114    0.902116
   3 H :    0.029691    0.000571
   4 H :    0.031807   -0.000239
   5 H :    0.028918    0.002801
   6 H :    0.043534    0.060201
   7 H :    0.040227    0.025811
   8 H :    0.017769   -0.000633
   9 H :    0.019384   -0.001005

----------------------------------------------------
LOEWDIN REDUCED ORBITAL CHARGES AND SPIN POPULATIONS
----------------------------------------------------
CHARGE
  0 C s       :     2.853791  s :     2.853791
      pz      :     1.069206  p :     3.153571
      px      :     1.021558
      py      :     1.062808
      dz2     :     0.016339  d :     0.065915
      dxz     :     0.010610
      dyz     :     0.009018
      dx2y2   :     0.015415
      dxy     :     0.014532
  1 C s       :     2.827761  s :     2.827761
      pz      :     1.056787  p :     3.147342
      px      :     1.034016
      py      :     1.056538
      dz2     :     0.025396  d :     0.097835
      dxz     :     0.015894
      dyz     :     0.010964
      dx2y2   :     0.024490
      dxy     :     0.021091
  2 C s       :     2.926026  s :     2.926026
      pz      :     0.995322  p :     3.082955
      px      :     1.038576
      py      :     1.049057
      dz2     :     0.006030  d :     0.056133
      dxz     :     0.005793
      dyz     :     0.004212
      dx2y2   :     0.023536
      dxy     :     0.016563
  3 H s       :     0.906285  s :     0.906285
      pz      :     0.016653  p :     0.064024
      px      :     0.012258
      py      :     0.035112
  4 H s       :     0.904122  s :     0.904122
      pz      :     0.017434  p :     0.064071
      px      :     0.025559
      py      :     0.021079
  5 H s       :     0.906984  s :     0.906984
      pz      :     0.037909  p :     0.064098
      px      :     0.013579
      py      :     0.012610
  6 H s       :     0.883843  s :     0.883843
      pz      :     0.040275  p :     0.072623
      px      :     0.016719
      py      :     0.015629
  7 H s       :     0.896564  s :     0.896564
      pz      :     0.016164  p :     0.063209
      px      :     0.011854
      py      :     0.035191
  8 H s       :     0.908986  s :     0.908986
      pz      :     0.020279  p :     0.073245
      px      :     0.011269
      py      :     0.041697
  9 H s       :     0.907807  s :     0.907807
      pz      :     0.019877  p :     0.072810
      px      :     0.036811
      py      :     0.016122

SPIN
  0 C s       :     0.001767  s :     0.001767
      pz      :     0.000194  p :     0.004986
      px      :     0.003151
      py      :     0.001641
      dz2     :     0.000223  d :     0.000280
      dxz     :    -0.000119
      dyz     :     0.000259
      dx2y2   :    -0.000028
      dxy     :    -0.000055
  1 C s       :    -0.004278  s :    -0.004278
      pz      :     0.002591  p :    -0.012605
      px      :    -0.007696
      py      :    -0.007500
      dz2     :     0.012188  d :     0.020227
      dxz     :     0.002321
      dyz     :     0.004085
      dx2y2   :     0.000471
      dxy     :     0.001162
  2 C s       :     0.029510  s :     0.029510
      pz      :     0.773499  p :     0.875889
      px      :     0.061265
      py      :     0.041125
      dz2     :    -0.001312  d :    -0.003283
      dxz     :    -0.000357
      dyz     :    -0.000128
      dx2y2   :    -0.000793
      dxy     :    -0.000693
  3 H s       :     0.000435  s :     0.000435
      pz      :    -0.000001  p :     0.000136
      px      :     0.000125
      py      :     0.000012
  4 H s       :    -0.000406  s :    -0.000406
      pz      :     0.000028  p :     0.000166
      px      :     0.000111
      py      :     0.000027
  5 H s       :     0.002382  s :     0.002382
      pz      :     0.000208  p :     0.000419
      px      :     0.000076
      py      :     0.000135
  6 H s       :     0.059522  s :     0.059522
      pz      :    -0.000715  p :     0.000679
      px      :     0.001258
      py      :     0.000137
  7 H s       :     0.026246  s :     0.026246
      pz      :    -0.000062  p :    -0.000435
      px      :     0.000190
      py      :    -0.000563
  8 H s       :    -0.023403  s :    -0.023403
      pz      :     0.018249  p :     0.022770
      px      :     0.001248
      py      :     0.003273
  9 H s       :    -0.023186  s :    -0.023186
      pz      :     0.017694  p :     0.022181
      px      :     0.003267
      py      :     0.001220


                      *****************************
                      * MAYER POPULATION ANALYSIS *
                      *****************************

  NA   - Mulliken gross atomic population
  ZA   - Total nuclear charge
  QA   - Mulliken gross atomic charge
  VA   - Mayer's total valence
  BVA  - Mayer's bonded valence
  FA   - Mayer's free valence

  ATOM       NA         ZA         QA         VA         BVA        FA
  0 C      6.0666     6.0000    -0.0666     4.0127     4.0126     0.0000
  1 C      6.0258     6.0000    -0.0258     4.1136     4.1106     0.0029
  2 C      6.1748     6.0000    -0.1748     3.9584     3.1330     0.8253
  3 H      0.9671     1.0000     0.0329     0.9865     0.9865     0.0000
  4 H      0.9662     1.0000     0.0338     0.9842     0.9842     0.0000
  5 H      0.9656     1.0000     0.0344     0.9857     0.9857     0.0000
  6 H      0.9592     1.0000     0.0408     0.9744     0.9700     0.0044
  7 H      0.9634     1.0000     0.0366     0.9733     0.9724     0.0009
  8 H      0.9561     1.0000     0.0439     0.9864     0.9836     0.0029
  9 H      0.9551     1.0000     0.0449     0.9782     0.9754     0.0028

  Mayer bond orders larger than 0.100000
B(  0-C ,  1-C ) :   1.1043 B(  0-C ,  3-H ) :   0.9660 B(  0-C ,  4-H ) :   0.9625 
B(  0-C ,  5-H ) :   0.9717 B(  1-C ,  2-C ) :   1.1341 B(  1-C ,  6-H ) :   0.9099 
B(  1-C ,  7-H ) :   0.9269 B(  2-C ,  8-H ) :   0.9648 B(  2-C ,  9-H ) :   0.9593 



------------------
HIRSHFELD ANALYSIS
------------------

Total integrated alpha density =     12.997735452
Total integrated beta density  =     11.998783075

  ATOM     CHARGE      SPIN    
   0 C   -0.070706    0.011555
   1 C   -0.045596    0.069368
   2 C   -0.069174    0.731377
   3 H    0.027241    0.000981
   4 H    0.029224    0.000529
   5 H    0.024487    0.004558
   6 H    0.033208    0.059645
   7 H    0.033633    0.026341
   8 H    0.019159    0.048305
   9 H    0.022006    0.046292

  TOTAL   0.003481    0.998952

-------
TIMINGS
-------

Total SCF time: 0 days 0 hours 0 min 3 sec 

Total time                  ....       3.862 sec
Sum of individual times     ....       3.756 sec  ( 97.2%)

Fock matrix formation       ....       3.357 sec  ( 86.9%)
  Split-RI-J                ....       0.907 sec  ( 27.0% of F)
  XC integration            ....       0.434 sec  ( 12.9% of F)
    Basis function eval.    ....       0.126 sec  ( 29.0% of XC)
    Density eval.           ....       0.083 sec  ( 19.2% of XC)
    XC-Functional eval.     ....       0.037 sec  (  8.5% of XC)
    XC-Potential eval.      ....       0.161 sec  ( 37.2% of XC)
Diagonalization             ....       0.017 sec  (  0.4%)
Density matrix formation    ....       0.001 sec  (  0.0%)
Population analysis         ....       0.028 sec  (  0.7%)
Initial guess               ....       0.108 sec  (  2.8%)
Orbital Transformation      ....       0.000 sec  (  0.0%)
Orbital Orthonormalization  ....       0.000 sec  (  0.0%)
DIIS solution               ....       0.006 sec  (  0.2%)
Grid generation             ....       0.238 sec  (  6.2%)


-------------------------------------------------------------------------------
                          DFT DISPERSION CORRECTION                            
                                                                               
                              DFTD3 V3.1  Rev 1                                
                          USING Becke-Johnson damping                          
-------------------------------------------------------------------------------
The PBE functional is recognized
Active option DFTDOPT                   ...         4   

molecular C6(AA) [au] = 670.131603 


            DFT-D V3
 parameters
 s6 scaling factor         :     1.0000 
 a1 scaling factor         :     0.4289 
 s8 scaling factor         :     0.7875 
 a2 scaling factor         :     4.4407 
 ad hoc parameters k1-k3   :    16.0000     1.3333    -4.0000 

 Edisp/kcal,au: -3.411807933496  -0.005437061448 
 E6   /kcal   :  -2.478968131 
 E8   /kcal   :  -0.932839803 
 % E8         :  27.341509871 

-------------------------   ----------------
Dispersion correction           -0.005437061
-------------------------   ----------------


-------------------------   --------------------
FINAL SINGLE POINT ENERGY      -118.206711262832
-------------------------   --------------------

[1589382159.305936] [ty2019:9005 :0]            sys.c:618  UCX  ERROR shmget(size=2097152 flags=0xfb0) for mm_recv_desc failed: Operation not permitted, please check shared memory limits by 'ipcs -l'
[1589382159.308679] [ty2019:9006 :0]            sys.c:618  UCX  ERROR shmget(size=2097152 flags=0xfb0) for mm_recv_desc failed: Operation not permitted, please check shared memory limits by 'ipcs -l'
[1589382159.310146] [ty2019:9004 :0]            sys.c:618  UCX  ERROR shmget(size=2097152 flags=0xfb0) for mm_recv_desc failed: Operation not permitted, please check shared memory limits by 'ipcs -l'
[1589382159.312780] [ty2019:9003 :0]            sys.c:618  UCX  ERROR shmget(size=2097152 flags=0xfb0) for mm_recv_desc failed: Operation not permitted, please check shared memory limits by 'ipcs -l'
[1589382159.320449] [ty2019:9005 :0]            sys.c:618  UCX  ERROR shmget(size=2097152 flags=0xb80) for ucp_am_bufs failed: Operation not permitted, please check shared memory limits by 'ipcs -l'
[1589382159.321067] [ty2019:9006 :0]            sys.c:618  UCX  ERROR shmget(size=2097152 flags=0xb80) for ucp_am_bufs failed: Operation not permitted, please check shared memory limits by 'ipcs -l'
[1589382159.321439] [ty2019:9003 :0]            sys.c:618  UCX  ERROR shmget(size=2097152 flags=0xb80) for ucp_am_bufs failed: Operation not permitted, please check shared memory limits by 'ipcs -l'


           ************************************************************
           *        Program running with 4 parallel MPI-processes     *
           *              working on a common directory               *
           ************************************************************
[1589382159.324625] [ty2019:9004 :0]            sys.c:618  UCX  ERROR shmget(size=2097152 flags=0xb80) for ucp_am_bufs failed: Operation not permitted, please check shared memory limits by 'ipcs -l'
------------------------------------------------------------------------------
                         ORCA SCF GRADIENT CALCULATION
------------------------------------------------------------------------------

Gradient of the Kohn-Sham DFT energy:
Kohn-Sham wavefunction type      ... UKS
Hartree-Fock exchange scaling    ...    0.000
Number of operators              ...    2
Number of atoms                  ...   10
Basis set dimensions             ...   77
Integral neglect threshold       ... 2.5e-11
Integral primitive cutoff        ... 2.5e-12

Nuclear repulsion gradient       ... done
One Electron Gradient            ... done
Pre-screening matrix             ... done
RI-J gradient                    ... done
Exchange-correlation gradient    ... done
Dispersion correction            ... done

------------------
CARTESIAN GRADIENT
------------------

   1   C   :   -0.000612573   -0.000934498   -0.001198414
   2   C   :    0.019522411    0.012359258    0.010103203
   3   C   :   -0.021408097   -0.019695179    0.019324932
   4   H   :    0.000081769   -0.000136893    0.000021929
   5   H   :   -0.000164609   -0.000081206    0.000071315
   6   H   :   -0.000289012    0.000095798   -0.000072386
   7   H   :    0.003900071    0.008167229   -0.027657854
   8   H   :    0.000049908    0.000995946   -0.000678656
   9   H   :   -0.000913915   -0.000315111    0.000227453
  10   H   :   -0.000165953   -0.000455344   -0.000141521

Difference to translation invariance:
           :    0.0000000000    0.0000000000    0.0000000000

Norm of the cartesian gradient     ...    0.0520386857
RMS gradient                       ...    0.0095009207
MAX gradient                       ...    0.0276578545

-------
TIMINGS
-------

Total SCF gradient time            ...        0.781 sec

One electron gradient       ....       0.005 sec  (  0.7%)
Prescreening matrices       ....       0.009 sec  (  1.2%)
RI-J Coulomb gradient       ....       0.113 sec  ( 14.5%)
XC gradient                 ....       0.284 sec  ( 36.3%)
CPCM gradient               ....       0.110 sec  ( 14.0%)
   A-Matrix (El+Nuc)        ....       0.019 sec  (  2.4%)
   Potential                ....       0.091 sec  ( 11.7%)
------------------------------------------------------------------------------
                         ORCA GEOMETRY RELAXATION STEP
------------------------------------------------------------------------------

Reading the OPT-File                    .... done
Getting information on internals        .... done
Copying old internal coords+grads       .... done
Making the new internal coordinates     .... (new redundants).... done
Validating the new internal coordinates .... (new redundants).... done
Calculating the B-matrix                .... done
Calculating the G,G- and P matrices     .... done
Transforming gradient to internals      .... done
Projecting the internal gradient        .... done
Number of atoms                         ....  10
Number of internal coordinates          ....  40
Current Energy                          ....  -118.206711263 Eh
Current gradient norm                   ....     0.052038686 Eh/bohr
Maximum allowed component of the step   ....  0.300
Current trust radius                    ....  0.300
Evaluating the initial hessian          ....  (Almloef) done
Projecting the Hessian                  .... done
Forming the augmented Hessian           .... done
Diagonalizing the augmented Hessian     .... done
Last element of RFO vector              ....  0.997108513
Lowest eigenvalues of augmented Hessian:
 -0.001120357  0.011046439  0.020985566  0.021943203  0.085619437
Length of the computed step             ....  0.076211242
The final length of the internal step   ....  0.076211242
Converting the step to cartesian space:
 Initial RMS(Int)=    0.0120500554
Transforming coordinates:
 Iter   0:  RMS(Cart)=    0.0126945660 RMS(Int)=    0.0120165857
 Iter   1:  RMS(Cart)=    0.0000989941 RMS(Int)=    0.0001110210
 Iter   2:  RMS(Cart)=    0.0000013296 RMS(Int)=    0.0000012805
 Iter   3:  RMS(Cart)=    0.0000000178 RMS(Int)=    0.0000000179
Imposing constraints:
 Iter   0:  RMS(Cart)=    0.0000374268 RMS(Int)=    0.0000943374
 Iter   1:  RMS(Cart)=    0.0000118000 RMS(Int)=    0.0000297430
 Iter   2:  RMS(Cart)=    0.0000037204 RMS(Int)=    0.0000093775
 Iter   3:  RMS(Cart)=    0.0000011730 RMS(Int)=    0.0000029566
 Iter   4:  RMS(Cart)=    0.0000003698 RMS(Int)=    0.0000009322
 Iter   5:  RMS(Cart)=    0.0000001166 RMS(Int)=    0.0000002939
 Iter   6:  RMS(Cart)=    0.0000000368 RMS(Int)=    0.0000000927
CONVERGED
done
Storing new coordinates                 .... done

                                .--------------------.
          ----------------------|Geometry convergence|-------------------------
          Item                value                   Tolerance       Converged
          ---------------------------------------------------------------------
          RMS gradient        0.0027454348            0.0005000000      NO
          MAX gradient        0.0098509932            0.0020000000      NO
          RMS step            0.0120500554            0.0070000000      NO
          MAX step            0.0295417466            0.0100000000      NO
          ........................................................
          Max(Bonds)      0.0151      Max(Angles)    1.69
          Max(Dihed)        1.24      Max(Improp)    0.00
          ---------------------------------------------------------------------

The optimization has not yet converged - more geometry cycles are needed


    ---------------------------------------------------------------------------
                         Redundant Internal Coordinates
                            (Angstroem and degrees)

        Definition                    Value    dE/dq     Step     New-Value
    ----------------------------------------------------------------------------
     1. B(C   1,C   0)                1.5313  0.000638 -0.0009    1.5304   
     2. B(C   2,C   1)                1.4429 -0.017798  0.0151    1.4580   
     3. B(H   3,C   0)                1.1098 -0.000117  0.0002    1.1099   
     4. B(H   4,C   0)                1.1084  0.000189 -0.0003    1.1081   
     5. B(H   5,C   0)                1.1096  0.000145 -0.0002    1.1094   
     6. B(H   6,C   1)                1.0823 -0.012352  0.0139    1.0963   
     7. B(H   6,C   2)                1.9872 -0.020389 -0.0000    1.9872 C 
     8. B(H   7,C   1)                1.1141 -0.000675  0.0011    1.1152   
     9. B(H   8,C   2)                1.1031 -0.000266  0.0004    1.1035   
    10. B(H   9,C   2)                1.1018  0.000054 -0.0001    1.1017   
    11. A(H   4,C   0,H   5)          107.98 -0.000186    0.02    107.99   
    12. A(C   1,C   0,H   4)          111.53  0.000016    0.00    111.53   
    13. A(C   1,C   0,H   3)          111.03 -0.000226    0.05    111.08   
    14. A(H   3,C   0,H   5)          107.43 -0.000077    0.01    107.44   
    15. A(C   1,C   0,H   5)          111.04  0.000436   -0.09    110.94   
    16. A(H   3,C   0,H   4)          107.66  0.000022    0.02    107.68   
    17. A(C   0,C   1,C   2)          116.61  0.000336    0.03    116.64   
    18. A(C   0,C   1,H   6)          111.18 -0.000944    0.03    111.21   
    19. A(C   2,C   1,H   6)          102.87  0.002361   -1.69    101.18   
    20. A(C   0,C   1,H   7)          109.96 -0.000368    0.60    110.56   
    21. A(C   2,C   1,H   7)          110.68 -0.001112    0.65    111.33   
    22. A(H   6,C   1,H   7)          104.71 -0.000200    0.29    105.00   
    23. A(C   1,C   2,H   8)          120.94 -0.001016    0.16    121.11   
    24. A(C   1,C   2,H   9)          120.90  0.000074   -0.02    120.88   
    25. A(H   8,C   2,H   9)          117.66  0.000955   -0.20    117.46   
    26. D(H   7,C   1,C   0,H   4)     57.01  0.000257   -0.28     56.74   
    27. D(C   2,C   1,C   0,H   4)   -175.95 -0.001345    1.18   -174.77   
    28. D(C   2,C   1,C   0,H   3)    -55.89 -0.001460    1.24    -54.64   
    29. D(H   7,C   1,C   0,H   3)    177.08  0.000142   -0.22    176.86   
    30. D(H   6,C   1,C   0,H   3)     61.58  0.001163   -0.95     60.63   
    31. D(H   6,C   1,C   0,H   5)   -178.96  0.001204   -0.97   -179.93   
    32. D(H   7,C   1,C   0,H   5)    -63.46  0.000184   -0.24    -63.70   
    33. D(H   6,C   1,C   0,H   4)    -58.48  0.001278   -1.01    -59.49   
    34. D(C   2,C   1,C   0,H   5)     63.57 -0.001419    1.22     64.79   
    35. D(H   9,C   2,C   1,H   7)    -38.55 -0.000442    0.21    -38.34   
    36. D(H   8,C   2,C   1,H   6)    -98.90 -0.000124    0.43    -98.46   
    37. D(H   8,C   2,C   1,H   7)    149.72 -0.000628    0.68    150.40   
    38. D(H   9,C   2,C   1,C   0)   -165.22  0.000798   -1.23   -166.46   
    39. D(H   8,C   2,C   1,C   0)     23.04  0.000612   -0.76     22.28   
    40. D(H   9,C   2,C   1,H   6)     72.84  0.000062   -0.04     72.80   
    ----------------------------------------------------------------------------

         *************************************************************
         *                GEOMETRY OPTIMIZATION CYCLE   2            *
         *************************************************************
---------------------------------
CARTESIAN COORDINATES (ANGSTROEM)
---------------------------------
  C     -1.185156    0.119277    0.019755
  C      0.213762   -0.477458    0.189872
  C      1.329217    0.320580   -0.305404
  H     -1.244276    1.132600    0.468828
  H     -1.957398   -0.509637    0.505598
  H     -1.447324    0.215645   -1.053921
  H      0.476512   -0.575710    1.249811
  H      0.247843   -1.516585   -0.213535
  H      1.235239    1.412198   -0.436540
  H      2.331481   -0.121010   -0.424465

----------------------------
CARTESIAN COORDINATES (A.U.)
----------------------------
  NO LB      ZA    FRAG     MASS         X           Y           Z
   0 C     6.0000    0    12.011   -2.239621    0.225401    0.037332
   1 C     6.0000    0    12.011    0.403952   -0.902266    0.358805
   2 C     6.0000    0    12.011    2.511856    0.605809   -0.577129
   3 H     1.0000    0     1.008   -2.351341    2.140304    0.885957
   4 H     1.0000    0     1.008   -3.698945   -0.963074    0.955442
   5 H     1.0000    0     1.008   -2.735046    0.407509   -1.991621
   6 H     1.0000    0     1.008    0.900477   -1.087934    2.361801
   7 H     1.0000    0     1.008    0.468355   -2.865930   -0.403523
   8 H     1.0000    0     1.008    2.334263    2.668667   -0.824942
   9 H     1.0000    0     1.008    4.405861   -0.228676   -0.802122

--------------------------------
INTERNAL COORDINATES (ANGSTROEM)
--------------------------------
 C      0   0   0     0.000000000000     0.00000000     0.00000000
 C      1   0   0     1.530361206580     0.00000000     0.00000000
 C      2   1   0     1.458219009515   116.62119087     0.00000000
 H      1   2   3     1.109948649071   111.08180225   305.35259325
 H      1   2   3     1.108121247625   111.53035550   185.22574563
 H      1   2   3     1.109413680689   110.94468165    64.78778861
 H      2   1   3     1.096431907876   111.18994055   115.28590828
 H      2   1   3     1.115205128242   110.55184043   231.50867360
 H      3   2   1     1.103475270904   121.10478111    22.28388743
 H      3   2   1     1.101685607434   120.88083012   193.54434054

---------------------------
INTERNAL COORDINATES (A.U.)
---------------------------
 C      0   0   0     0.000000000000     0.00000000     0.00000000
 C      1   0   0     2.891963566414     0.00000000     0.00000000
 C      2   1   0     2.755634571262   116.62119087     0.00000000
 H      1   2   3     2.097498969461   111.08180225   305.35259325
 H      1   2   3     2.094045681191   111.53035550   185.22574563
 H      1   2   3     2.096488025728   110.94468165    64.78778861
 H      2   1   3     2.071956030378   111.18994055   115.28590828
 H      2   1   3     2.107432275521   110.55184043   231.50867360
 H      3   2   1     2.085266057564   121.10478111    22.28388743
 H      3   2   1     2.081884083733   120.88083012   193.54434054

[1589382161.057044] [ty2019:9027 :0]            sys.c:618  UCX  ERROR shmget(size=2097152 flags=0xfb0) for mm_recv_desc failed: Operation not permitted, please check shared memory limits by 'ipcs -l'
[1589382161.058744] [ty2019:9026 :0]            sys.c:618  UCX  ERROR shmget(size=2097152 flags=0xfb0) for mm_recv_desc failed: Operation not permitted, please check shared memory limits by 'ipcs -l'
[1589382161.066085] [ty2019:9028 :0]            sys.c:618  UCX  ERROR shmget(size=2097152 flags=0xfb0) for mm_recv_desc failed: Operation not permitted, please check shared memory limits by 'ipcs -l'
[1589382161.066700] [ty2019:9029 :0]            sys.c:618  UCX  ERROR shmget(size=2097152 flags=0xfb0) for mm_recv_desc failed: Operation not permitted, please check shared memory limits by 'ipcs -l'
[1589382161.073493] [ty2019:9026 :0]            sys.c:618  UCX  ERROR shmget(size=2097152 flags=0xb80) for ucp_am_bufs failed: Operation not permitted, please check shared memory limits by 'ipcs -l'
[1589382161.074210] [ty2019:9027 :0]            sys.c:618  UCX  ERROR shmget(size=2097152 flags=0xb80) for ucp_am_bufs failed: Operation not permitted, please check shared memory limits by 'ipcs -l'


           ************************************************************
           *        Program running with 4 parallel MPI-processes     *
           *              working on a common directory               *
           ************************************************************
 One Electron integrals                  [1589382161.107430] [ty2019:9029 :0]            sys.c:618  UCX  ERROR shmget(size=2097152 flags=0xb80) for ucp_am_bufs failed: Operation not permitted, please check shared memory limits by 'ipcs -l'
[1589382161.107430] [ty2019:9028 :0]            sys.c:618  UCX  ERROR shmget(size=2097152 flags=0xb80) for ucp_am_bufs failed: Operation not permitted, please check shared memory limits by 'ipcs -l'
... done
 Pre-screening matrix                    ... done
[1589382162.060574] [ty2019:9050 :0]            sys.c:618  UCX  ERROR shmget(size=2097152 flags=0xfb0) for mm_recv_desc failed: Operation not permitted, please check shared memory limits by 'ipcs -l'
[1589382162.063505] [ty2019:9051 :0]            sys.c:618  UCX  ERROR shmget(size=2097152 flags=0xfb0) for mm_recv_desc failed: Operation not permitted, please check shared memory limits by 'ipcs -l'
[1589382162.064196] [ty2019:9049 :0]            sys.c:618  UCX  ERROR shmget(size=2097152 flags=0xfb0) for mm_recv_desc failed: Operation not permitted, please check shared memory limits by 'ipcs -l'
[1589382162.071525] [ty2019:9048 :0]            sys.c:618  UCX  ERROR shmget(size=2097152 flags=0xfb0) for mm_recv_desc failed: Operation not permitted, please check shared memory limits by 'ipcs -l'
[1589382162.077523] [ty2019:9048 :0]            sys.c:618  UCX  ERROR shmget(size=2097152 flags=0xb80) for ucp_am_bufs failed: Operation not permitted, please check shared memory limits by 'ipcs -l'
[1589382162.077843] [ty2019:9051 :0]            sys.c:618  UCX  ERROR shmget(size=2097152 flags=0xb80) for ucp_am_bufs failed: Operation not permitted, please check shared memory limits by 'ipcs -l'
[1589382162.078459] [ty2019:9050 :0]            sys.c:618  UCX  ERROR shmget(size=2097152 flags=0xb80) for ucp_am_bufs failed: Operation not permitted, please check shared memory limits by 'ipcs -l'


           ************************************************************
           *        Program running with 4 parallel MPI-processes     *
           *              working on a common directory               *
           ************************************************************
[1589382162.080757] [ty2019:9049 :0]            sys.c:618  UCX  ERROR shmget(size=2097152 flags=0xb80) for ucp_am_bufs failed: Operation not permitted, please check shared memory limits by 'ipcs -l'

Diagonalization of the overlap matrix:
Smallest eigenvalue                        ... 2.928e-03
Time for diagonalization                   ...    0.001 sec
Threshold for overlap eigenvalues          ... 1.000e-08
Number of eigenvalues below threshold      ... 0
Time for construction of square roots      ...    0.001 sec
Total time needed                          ...    0.002 sec

-------------------
DFT GRID GENERATION
-------------------

General Integration Accuracy     IntAcc      ...  4.340
Radial Grid Type                 RadialGrid  ... Gauss-Chebyshev
Angular Grid (max. acc.)         AngularGrid ... Lebedev-110
Angular grid pruning method      GridPruning ... 3 (G Style)
Weight generation scheme         WeightScheme... Becke
Basis function cutoff            BFCut       ...    1.0000e-11
Integration weight cutoff        WCut        ...    1.0000e-14
Grids for H and He will be reduced by one unit

# of grid points (after initial pruning)     ...  10526 (   0.0 sec)
# of grid points (after weights+screening)   ...  10049 (   0.0 sec)
nearest neighbour list constructed           ...    0.0 sec
Grid point re-assignment to atoms done       ...    0.0 sec
Grid point division into batches done        ...    0.0 sec
Reduced shell lists constructed in    0.0 sec

Total number of grid points                  ...    10049
Total number of batches                      ...      163
Average number of points per batch           ...       61
Average number of grid points per atom       ...     1005
Average number of shells per batch           ...    35.95 (92.19%)
Average number of basis functions per batch  ...    71.14 (92.39%)
Average number of large shells per batch     ...    33.43 (92.98%)
Average number of large basis fcns per batch ...    65.95 (92.70%)
Maximum spatial batch extension              ...  17.55, 17.49, 17.60 au
Average spatial batch extension              ...   0.60,  0.57,  0.64 au

Time for grid setup =    0.026 sec


--------------------
CPCM SOLVATION MODEL
--------------------
CPCM parameters:
  Epsilon                                         ...      80.4000
  Refrac                                          ...       1.3300
  Rsolv                                           ...       1.3000
  Surface type                                    ... GAUSSIAN VDW
  Epsilon function type                           ...         CPCM
Radii:
 Radius for C  used is    3.8550 Bohr (=   2.0400 Ang.)
 Radius for H  used is    2.4944 Bohr (=   1.3200 Ang.)
Calculating surface                               ...        done! (  0.0s)
GEPOL surface points                              ...          612
GEPOL Volume                                      ...     538.8735
GEPOL Surface-area                                ...     355.3676
Calculating surface distance matrix               ...        done! (  0.0s)
Performing Cholesky decomposition & store         ...        done! (  0.0s)
Overall time for CPCM initialization              ...                 0.0s
--------------
SCF ITERATIONS
--------------
ITER       Energy         Delta-E        Max-DP      RMS-DP      [F,P]     Damp
               ***  Starting incremental Fock matrix formation  ***
  0   -118.2013551643   0.000000000000 0.00129132  0.00005092  0.0043660 0.7000
  1   -118.2014078167  -0.000052652445 0.00102986  0.00004596  0.0028726 0.7000
                               ***Turning on DIIS***
  2   -118.2014471245  -0.000039307715 0.00246367  0.00011793  0.0022054 0.0000
  3   -118.2015398599  -0.000092735438 0.00053065  0.00003106  0.0005247 0.0000
  4   -118.2015410870  -0.000001227071 0.00038157  0.00001364  0.0006589 0.0000
  5   -118.2015422901  -0.000001203184 0.00009381  0.00000342  0.0001842 0.0000
  6   -118.2015423849  -0.000000094787 0.00002230  0.00000093  0.0000268 0.0000
  7   -118.2015423884  -0.000000003475 0.00000619  0.00000024  0.0000074 0.0000
  8   -118.2015423893  -0.000000000860 0.00000359  0.00000010  0.0000047 0.0000
[...]
  39   0.0000       0.849141        23.1063 
  40   0.0000       0.938723        25.5440 
  41   0.0000       1.098573        29.8937 
  42   0.0000       1.169378        31.8204 
  43   0.0000       1.186482        32.2858 
  44   0.0000       1.297567        35.3086 
  45   0.0000       1.440275        39.1919 
  46   0.0000       1.473382        40.0928 
  47   0.0000       1.523095        41.4455 
  48   0.0000       1.549079        42.1526 
  49   0.0000       1.617565        44.0162 
  50   0.0000       1.671367        45.4802 
  51   0.0000       1.692230        46.0479 
  52   0.0000       1.717752        46.7424 
  53   0.0000       1.726293        46.9748 
  54   0.0000       1.745578        47.4996 
  55   0.0000       1.785710        48.5916 
  56   0.0000       1.800026        48.9812 
  57   0.0000       1.826522        49.7022 
  58   0.0000       1.884632        51.2834 
  59   0.0000       1.930351        52.5275 
  60   0.0000       1.998703        54.3875 
  61   0.0000       2.099345        57.1261 
  62   0.0000       2.151783        58.5530 
  63   0.0000       2.185790        59.4784 
  64   0.0000       2.288590        62.2757 
  65   0.0000       2.321544        63.1724 
  66   0.0000       2.347761        63.8858 
  67   0.0000       2.440865        66.4193 
  68   0.0000       2.490926        67.7815 
  69   0.0000       2.508598        68.2624 
  70   0.0000       2.669811        72.6493 
  71   0.0000       2.756964        75.0208 
  72   0.0000       2.810445        76.4761 
  73   0.0000       2.873258        78.1853 
  74   0.0000       2.893501        78.7362 
  75   0.0000       2.941667        80.0468 
  76   0.0000       3.009396        81.8898 

                    ********************************
                    * MULLIKEN POPULATION ANALYSIS *
                    ********************************

--------------------------------------------
MULLIKEN ATOMIC CHARGES AND SPIN POPULATIONS
--------------------------------------------
   0 C :   -0.061795    0.002697
   1 C :   -0.043972   -0.068299
   2 C :   -0.175817    1.069151
   3 H :    0.033390    0.000086
   4 H :    0.034549   -0.000481
   5 H :    0.035048    0.005812
   6 H :    0.046141    0.061575
   7 H :    0.040385    0.025304
   8 H :    0.046188   -0.048096
   9 H :    0.045885   -0.047749
Sum of atomic charges         :   -0.0000000
Sum of atomic spin populations:    1.0000000

-----------------------------------------------------
MULLIKEN REDUCED ORBITAL CHARGES AND SPIN POPULATIONS
-----------------------------------------------------
CHARGE
  0 C s       :     3.036538  s :     3.036538
      pz      :     1.016364  p :     3.000731
      px      :     0.976002
      py      :     1.008365
      dz2     :     0.005536  d :     0.024527
      dxz     :     0.004694
      dyz     :     0.003287
      dx2y2   :     0.005671
      dxy     :     0.005339
  1 C s       :     3.026949  s :     3.026949
      pz      :     1.007183  p :     2.981070
      px      :     0.961453
      py      :     1.012435
      dz2     :     0.008539  d :     0.035954
      dxz     :     0.006874
      dyz     :     0.003662
      dx2y2   :     0.009337
      dxy     :     0.007542
  2 C s       :     3.211287  s :     3.211287
      pz      :     1.030999  p :     2.944023
      px      :     0.953461
      py      :     0.959563
      dz2     :     0.003181  d :     0.020507
      dxz     :     0.002411
      dyz     :     0.001772
      dx2y2   :     0.008011
      dxy     :     0.005132
  3 H s       :     0.943771  s :     0.943771
      pz      :     0.006582  p :     0.022839
      px      :     0.004366
      py      :     0.011891
  4 H s       :     0.942701  s :     0.942701
      pz      :     0.006838  p :     0.022750
      px      :     0.008338
      py      :     0.007574
  5 H s       :     0.942157  s :     0.942157
      pz      :     0.012700  p :     0.022795
      px      :     0.004845
      py      :     0.005250
  6 H s       :     0.929299  s :     0.929299
      pz      :     0.013193  p :     0.024560
      px      :     0.005602
      py      :     0.005764
  7 H s       :     0.937647  s :     0.937647
      pz      :     0.006145  p :     0.021969
      px      :     0.003867
      py      :     0.011956
  8 H s       :     0.930717  s :     0.930717
      pz      :     0.005500  p :     0.023095
      px      :     0.004204
      py      :     0.013391
  9 H s       :     0.931233  s :     0.931233
      pz      :     0.005356  p :     0.022882
      px      :     0.011962
      py      :     0.005564

SPIN
  0 C s       :    -0.000369  s :    -0.000369
      pz      :    -0.000399  p :     0.003014
      px      :     0.001509
      py      :     0.001904
      dz2     :     0.000087  d :     0.000053
      dxz     :    -0.000067
      dyz     :     0.000080
      dx2y2   :    -0.000031
      dxy     :    -0.000016
  1 C s       :    -0.021022  s :    -0.021022
      pz      :    -0.012758  p :    -0.054196
      px      :    -0.024423
      py      :    -0.017015
      dz2     :     0.004370  d :     0.006919
      dxz     :     0.000759
      dyz     :     0.001439
      dx2y2   :     0.000092
      dxy     :     0.000260
  2 C s       :     0.096062  s :     0.096062
      pz      :     0.844602  p :     0.975289
      px      :     0.070097
      py      :     0.060589
      dz2     :    -0.001862  d :    -0.002200
      dxz     :    -0.000247
      dyz     :    -0.000087
      dx2y2   :     0.000062
      dxy     :    -0.000067
  3 H s       :     0.000049  s :     0.000049
      pz      :     0.000000  p :     0.000037
      px      :     0.000046
      py      :    -0.000009
  4 H s       :    -0.000484  s :    -0.000484
      pz      :    -0.000011  p :     0.000002
      px      :     0.000014
      py      :    -0.000001
  5 H s       :     0.005843  s :     0.005843
      pz      :    -0.000024  p :    -0.000031
      px      :    -0.000014
      py      :     0.000007
  6 H s       :     0.060857  s :     0.060857
      pz      :    -0.000440  p :     0.000718
      px      :     0.000976
      py      :     0.000181
  7 H s       :     0.025450  s :     0.025450
      pz      :    -0.000101  p :    -0.000146
      px      :     0.000133
      py      :    -0.000179
  8 H s       :    -0.053298  s :    -0.053298
      pz      :     0.004876  p :     0.005202
      px      :     0.000057
      py      :     0.000269
  9 H s       :    -0.052734  s :    -0.052734
      pz      :     0.004664  p :     0.004986
      px      :     0.000257
      py      :     0.000065


                     *******************************
                     * LOEWDIN POPULATION ANALYSIS *
                     *******************************

-------------------------------------------
LOEWDIN ATOMIC CHARGES AND SPIN POPULATIONS
-------------------------------------------
   0 C :   -0.074504    0.005816
   1 C :   -0.072235    0.001789
   2 C :   -0.068197    0.909686
   3 H :    0.030520    0.000519
   4 H :    0.032075   -0.000543
   5 H :    0.029288    0.002861
   6 H :    0.047417    0.059032
   7 H :    0.038851    0.022322
   8 H :    0.018034   -0.000611
   9 H :    0.018752   -0.000872

----------------------------------------------------
LOEWDIN REDUCED ORBITAL CHARGES AND SPIN POPULATIONS
----------------------------------------------------
CHARGE
  0 C s       :     2.852868  s :     2.852868
      pz      :     1.069417  p :     3.155418
      px      :     1.023527
      py      :     1.062474
      dz2     :     0.016195  d :     0.066218
      dxz     :     0.010981
      dyz     :     0.009004
      dx2y2   :     0.015460
      dxy     :     0.014578
  1 C s       :     2.838389  s :     2.838389
      pz      :     1.053228  p :     3.140154
      px      :     1.030773
      py      :     1.056153
      dz2     :     0.023839  d :     0.093691
      dxz     :     0.015420
      dyz     :     0.009879
      dx2y2   :     0.023640
      dxy     :     0.020913
  2 C s       :     2.934501  s :     2.934501
      pz      :     0.994850  p :     3.080574
      px      :     1.036727
      py      :     1.048997
      dz2     :     0.005665  d :     0.053122
      dxz     :     0.005154
      dyz     :     0.003767
      dx2y2   :     0.022630
      dxy     :     0.015907
  3 H s       :     0.905514  s :     0.905514
      pz      :     0.016600  p :     0.063966
      px      :     0.012120
      py      :     0.035246
  4 H s       :     0.903850  s :     0.903850
      pz      :     0.017677  p :     0.064076
      px      :     0.025604
      py      :     0.020795
  5 H s       :     0.906647  s :     0.906647
      pz      :     0.037778  p :     0.064065
      px      :     0.013713
      py      :     0.012574
  6 H s       :     0.883325  s :     0.883325
      pz      :     0.038887  p :     0.069257
      px      :     0.016118
      py      :     0.014253
  7 H s       :     0.897719  s :     0.897719
      pz      :     0.015997  p :     0.063430
      px      :     0.011607
      py      :     0.035826
  8 H s       :     0.908476  s :     0.908476
      pz      :     0.020355  p :     0.073490
      px      :     0.011153
      py      :     0.041983
  9 H s       :     0.908190  s :     0.908190
      pz      :     0.019890  p :     0.073058
      px      :     0.037249
      py      :     0.015919

SPIN
  0 C s       :     0.001479  s :     0.001479
      pz      :     0.000128  p :     0.004074
      px      :     0.002426
      py      :     0.001520
      dz2     :     0.000233  d :     0.000264
      dxz     :    -0.000097
      dyz     :     0.000254
      dx2y2   :    -0.000055
      dxy     :    -0.000071
  1 C s       :    -0.004088  s :    -0.004088
      pz      :     0.003811  p :    -0.011897
      px      :    -0.008255
      py      :    -0.007453
      dz2     :     0.010825  d :     0.017774
      dxz     :     0.001959
      dyz     :     0.003458
      dx2y2   :     0.000429
      dxy     :     0.001103
  2 C s       :     0.030357  s :     0.030357
      pz      :     0.791726  p :     0.882590
      px      :     0.052639
      py      :     0.038225
      dz2     :    -0.001402  d :    -0.003261
      dxz     :    -0.000268
      dyz     :    -0.000089
      dx2y2   :    -0.000803
      dxy     :    -0.000700
  3 H s       :     0.000404  s :     0.000404
      pz      :    -0.000001  p :     0.000115
      px      :     0.000106
      py      :     0.000010
  4 H s       :    -0.000674  s :    -0.000674
      pz      :     0.000027  p :     0.000130
      px      :     0.000083
      py      :     0.000020
  5 H s       :     0.002470  s :     0.002470
      pz      :     0.000187  p :     0.000391
      px      :     0.000070
      py      :     0.000134
  6 H s       :     0.057837  s :     0.057837
      pz      :    -0.000731  p :     0.001195
      px      :     0.001562
      py      :     0.000364
  7 H s       :     0.022699  s :     0.022699
      pz      :     0.000019  p :    -0.000377
      px      :     0.000115
      py      :    -0.000511
  8 H s       :    -0.023498  s :    -0.023498
      pz      :     0.018637  p :     0.022887
      px      :     0.001048
      py      :     0.003202
  9 H s       :    -0.023166  s :    -0.023166
      pz      :     0.018055  p :     0.022295
      px      :     0.003076
      py      :     0.001164


                      *****************************
                      * MAYER POPULATION ANALYSIS *
                      *****************************

  NA   - Mulliken gross atomic population
  ZA   - Total nuclear charge
  QA   - Mulliken gross atomic charge
  VA   - Mayer's total valence
  BVA  - Mayer's bonded valence
  FA   - Mayer's free valence

  ATOM       NA         ZA         QA         VA         BVA        FA
  0 C      6.0618     6.0000    -0.0618     4.0102     4.0101     0.0000
  1 C      6.0440     6.0000    -0.0440     4.1105     4.1076     0.0028
  2 C      6.1758     6.0000    -0.1758     3.9467     3.1130     0.8338
  3 H      0.9666     1.0000     0.0334     0.9869     0.9869     0.0000
  4 H      0.9655     1.0000     0.0345     0.9842     0.9842     0.0000
  5 H      0.9650     1.0000     0.0350     0.9854     0.9854     0.0000
  6 H      0.9539     1.0000     0.0461     0.9723     0.9682     0.0041
  7 H      0.9596     1.0000     0.0404     0.9735     0.9728     0.0007
  8 H      0.9538     1.0000     0.0462     0.9862     0.9833     0.0029
  9 H      0.9541     1.0000     0.0459     0.9784     0.9756     0.0028

  Mayer bond orders larger than 0.100000
B(  0-C ,  1-C ) :   1.1064 B(  0-C ,  3-H ) :   0.9655 B(  0-C ,  4-H ) :   0.9625 
B(  0-C ,  5-H ) :   0.9711 B(  1-C ,  2-C ) :   1.1200 B(  1-C ,  6-H ) :   0.9120 
B(  1-C ,  7-H ) :   0.9329 B(  2-C ,  8-H ) :   0.9645 B(  2-C ,  9-H ) :   0.9603 



------------------
HIRSHFELD ANALYSIS
------------------

Total integrated alpha density =     12.998132498
Total integrated beta density  =     11.998838374

  ATOM     CHARGE      SPIN    
   0 C   -0.071732    0.010296
   1 C   -0.042757    0.065695
   2 C   -0.071177    0.739543
   3 H    0.028174    0.001005
   4 H    0.029389    0.000157
   5 H    0.024619    0.004411
   6 H    0.032153    0.059304
   7 H    0.033819    0.023042
   8 H    0.019364    0.048921
   9 H    0.021176    0.046921

  TOTAL   0.003029    0.999294

-------
TIMINGS
-------

Total SCF time: 0 days 0 hours 0 min 3 sec 

Total time                  ....       3.070 sec
Sum of individual times     ....       2.891 sec  ( 94.2%)

Fock matrix formation       ....       2.621 sec  ( 85.4%)
  Split-RI-J                ....       0.685 sec  ( 26.1% of F)
  XC integration            ....       0.307 sec  ( 11.7% of F)
    Basis function eval.    ....       0.063 sec  ( 20.6% of XC)
    Density eval.           ....       0.038 sec  ( 12.4% of XC)
    XC-Functional eval.     ....       0.018 sec  (  6.0% of XC)
    XC-Potential eval.      ....       0.058 sec  ( 18.8% of XC)
Diagonalization             ....       0.009 sec  (  0.3%)
Density matrix formation    ....       0.001 sec  (  0.0%)
Population analysis         ....       0.032 sec  (  1.0%)
Initial guess               ....       0.004 sec  (  0.1%)
Orbital Transformation      ....       0.000 sec  (  0.0%)
Orbital Orthonormalization  ....       0.001 sec  (  0.0%)
DIIS solution               ....       0.003 sec  (  0.1%)
Grid generation             ....       0.222 sec  (  7.2%)


-------------------------------------------------------------------------------
                          DFT DISPERSION CORRECTION                            
                                                                               
                              DFTD3 V3.1  Rev 1                                
                          USING Becke-Johnson damping                          
-------------------------------------------------------------------------------
The PBE functional is recognized
Active option DFTDOPT                   ...         4   

molecular C6(AA) [au] = 670.252168 


            DFT-D V3
 parameters
 s6 scaling factor         :     1.0000 
 a1 scaling factor         :     0.4289 
 s8 scaling factor         :     0.7875 
 a2 scaling factor         :     4.4407 
 ad hoc parameters k1-k3   :    16.0000     1.3333    -4.0000 

 Edisp/kcal,au: -3.400792792413  -0.005419507705 
 E6   /kcal   :  -2.470745410 
 E8   /kcal   :  -0.930047383 
 % E8         :  27.347957950 

-------------------------   ----------------
Dispersion correction           -0.005419508
-------------------------   ----------------


-------------------------   --------------------
FINAL SINGLE POINT ENERGY      -118.207676493257
-------------------------   --------------------

                                *** OPTIMIZATION RUN DONE ***

                            ***************************************
                            *     ORCA property calculations      *
                            ***************************************

                                    ---------------------
                                    Active property flags
                                    ---------------------
   (+) Dipole Moment


------------------------------------------------------------------------------
                       ORCA ELECTRIC PROPERTIES CALCULATION
------------------------------------------------------------------------------

Dipole Moment Calculation                       ... on
Quadrupole Moment Calculation                   ... off
Polarizability Calculation                      ... off
GBWName                                         ... m-mfaV_2-6_hl1d_fbond_scan_2_orca.gbw
Electron density file                           ... m-mfaV_2-6_hl1d_fbond_scan_2_orca.scfp
The origin for moment calculation is the CENTER OF MASS  = ( 0.169408, -0.022045 -0.052590)

-------------
DIPOLE MOMENT
-------------
                                X             Y             Z
Electronic contribution:      0.82298      -0.21436      -0.14008
Nuclear contribution   :     -0.91820       0.11937       0.28501
                        -----------------------------------------
Total Dipole Moment    :     -0.09522      -0.09499       0.14493
                        -----------------------------------------
Magnitude (a.u.)       :      0.19772
Magnitude (Debye)      :      0.50257



--------------------
Rotational spectrum 
--------------------
 
Rotational constants in cm-1:     1.135645     0.293791     0.256807 
Rotational constants in MHz : 34045.790968  8807.625034  7698.878519 

 Dipole components along the rotational axes: 
x,y,z [a.u.] :    -0.117732     0.130768     0.090180 
x,y,z [Debye]:    -0.299251     0.332386     0.229220 

 
[1589382180.285544] [ty2019:9216 :0]            sys.c:618  UCX  ERROR shmget(size=2097152 flags=0xfb0) for mm_recv_desc failed: Operation not permitted, please check shared memory limits by 'ipcs -l'
[1589382180.294548] [ty2019:9213 :0]            sys.c:618  UCX  ERROR shmget(size=2097152 flags=0xfb0) for mm_recv_desc failed: Operation not permitted, please check shared memory limits by 'ipcs -l'
[1589382180.294943] [ty2019:9214 :0]            sys.c:618  UCX  ERROR shmget(size=2097152 flags=0xfb0) for mm_recv_desc failed: Operation not permitted, please check shared memory limits by 'ipcs -l'
[1589382180.296774] [ty2019:9215 :0]            sys.c:618  UCX  ERROR shmget(size=2097152 flags=0xfb0) for mm_recv_desc failed: Operation not permitted, please check shared memory limits by 'ipcs -l'
[1589382180.304533] [ty2019:9216 :0]            sys.c:618  UCX  ERROR shmget(size=2097152 flags=0xb80) for ucp_am_bufs failed: Operation not permitted, please check shared memory limits by 'ipcs -l'
[1589382180.304528] [ty2019:9215 :0]            sys.c:618  UCX  ERROR shmget(size=2097152 flags=0xb80) for ucp_am_bufs failed: Operation not permitted, please check shared memory limits by 'ipcs -l'
[1589382180.305108] [ty2019:9213 :0]            sys.c:618  UCX  ERROR shmget(size=2097152 flags=0xb80) for ucp_am_bufs failed: Operation not permitted, please check shared memory limits by 'ipcs -l'
[1589382180.307028] [ty2019:9214 :0]            sys.c:618  UCX  ERROR shmget(size=2097152 flags=0xb80) for ucp_am_bufs failed: Operation not permitted, please check shared memory limits by 'ipcs -l'

Timings for individual modules:

Sum of individual times         ...       26.499 sec (=   0.442 min)
GTO integral calculation        ...        3.977 sec (=   0.066 min)  15.0 %
SCF iterations                  ...       17.165 sec (=   0.286 min)  64.8 %
SCF Gradient evaluation         ...        5.151 sec (=   0.086 min)  19.4 %
Geometry relaxation             ...        0.206 sec (=   0.003 min)   0.8 %
                             ****ORCA TERMINATED NORMALLY****
TOTAL RUN TIME: 0 days 0 hours 0 minutes 27 seconds 721 msec
