
                                 *****************
                                 * O   R   C   A *
                                 *****************

           --- An Ab Initio, DFT and Semiempirical electronic structure package ---

                  #######################################################
                  #                        -***-                        #
                  #          Department of theory and spectroscopy      #
                  #               Directorship: Frank Neese             #
                  #        Max Planck Institute fuer Kohlenforschung    #
                  #                Kaiser Wilhelm Platz 1               #
                  #                 D-45470 Muelheim/Ruhr               #
                  #                      Germany                        #
                  #                                                     #
                  #                  All rights reserved                #
                  #                        -***-                        #
                  #######################################################


                         Program Version 4.2.1 -  RELEASE  -


 With contributions from (in alphabetic order):
   Daniel Aravena         : Magnetic Suceptibility
   Michael Atanasov       : Ab Initio Ligand Field Theory (pilot matlab implementation)
   Alexander A. Auer      : GIAO ZORA, VPT2
   Ute Becker             : Parallelization
   Giovanni Bistoni       : ED, misc. LED, open-shell LED, HFLD
   Martin Brehm           : Molecular dynamics
   Dmytro Bykov           : SCF Hessian
   Vijay G. Chilkuri      : MRCI spin determinant printing, contributions to CSF-ICE
   Dipayan Datta          : RHF DLPNO-CCSD density
   Achintya Kumar Dutta   : EOM-CC, STEOM-CC
   Dmitry Ganyushin       : Spin-Orbit,Spin-Spin,Magnetic field MRCI
   Miquel Garcia          : C-PCM Hessian, Gaussian charge scheme
   Yang Guo               : DLPNO-NEVPT2, CIM, IAO-localization
   Andreas Hansen         : Spin unrestricted coupled pair/coupled cluster methods
   Benjamin Helmich-Paris : CASSCF linear response (MC-RPA)
   Lee Huntington         : MR-EOM, pCC
   Robert Izsak           : Overlap fitted RIJCOSX, COSX-SCS-MP3, EOM
   Christian Kollmar      : KDIIS, OOCD, Brueckner-CCSD(T), CCSD density
   Simone Kossmann        : Meta GGA functionals, TD-DFT gradient, OOMP2, MP2 Hessian
   Martin Krupicka        : AUTO-CI
   Lucas Lang             : DCDCAS
   Dagmar Lenk            : GEPOL surface, SMD
   Dimitrios Liakos       : Extrapolation schemes; Compound Job, initial MDCI parallelization
   Dimitrios Manganas     : Further ROCIS development; embedding schemes
   Dimitrios Pantazis     : SARC Basis sets
   Taras Petrenko         : DFT Hessian,TD-DFT gradient, ASA, ECA, R-Raman, ABS, FL, XAS/XES, NRVS
   Peter Pinski           : DLPNO-MP2, DLPNO-MP2 Gradient
   Christoph Reimann      : Effective Core Potentials
   Marius Retegan         : Local ZFS, SOC
   Christoph Riplinger    : Optimizer, TS searches, QM/MM, DLPNO-CCSD(T), (RO)-DLPNO pert. Triples
   Tobias Risthaus        : Range-separated hybrids, TD-DFT gradient, RPA, STAB
   Michael Roemelt        : Original ROCIS implementation
   Masaaki Saitow         : Open-shell DLPNO-CCSD energy and density
   Barbara Sandhoefer     : DKH picture change effects
   Avijit Sen             : IP-ROCIS
   Kantharuban Sivalingam : CASSCF convergence, NEVPT2, FIC-MRCI
   Bernardo de Souza      : ESD, SOC TD-DFT
   Georgi Stoychev        : AutoAux, RI-MP2 NMR
   Willem Van den Heuvel  : Paramagnetic NMR
   Boris Wezisla          : Elementary symmetry handling
   Frank Wennmohs         : Technical directorship


 We gratefully acknowledge several colleagues who have allowed us to
 interface, adapt or use parts of their codes:
   Stefan Grimme, W. Hujo, H. Kruse,             : VdW corrections, initial TS optimization,
                  C. Bannwarth                     DFT functionals, gCP, sTDA/sTD-DF
   Ed Valeev, F. Pavosevic, A. Kumar             : LibInt (2-el integral package), F12 methods
   Garnet Chan, S. Sharma, J. Yang, R. Olivares  : DMRG
   Ulf Ekstrom                                   : XCFun DFT Library
   Mihaly Kallay                                 : mrcc  (arbitrary order and MRCC methods)
   Andreas Klamt, Michael Diedenhofen            : otool_cosmo (COSMO solvation model)
   Jiri Pittner, Ondrej Demel                    : Mk-CCSD
   Frank Weinhold                                : gennbo (NPA and NBO analysis)
   Christopher J. Cramer and Donald G. Truhlar   : smd solvation model
   Lars Goerigk                                  : TD-DFT with DH, B97 family of functionals
   V. Asgeirsson, H. Jonsson                     : NEB implementation
   FAccTs GmbH                                   : IRC, NEB, NEB-TS, Multilevel, MM, QM/MM, CI optimization
   S Lehtola, MJT Oliveira, MAL Marques          : LibXC Library


 Your calculation uses the libint2 library for the computation of 2-el integrals
 For citations please refer to: http://libint.valeyev.net

 Your ORCA version has been built with support for libXC version: 4.2.3
 For citations please refer to: https://tddft.org/programs/libxc/

 This ORCA versions uses:
   CBLAS   interface :  Fast vector & matrix operations
   LAPACKE interface :  Fast linear algebra routines
   SCALAPACK package :  Parallel linear algebra routines


Your calculation utilizes the atom-pairwise dispersion correction
with the Becke-Johnson damping scheme (D3BJ)
Cite in your paper:
S.Grimme, S.Ehrlich, L.Goerigk, J Comput Chem, (2011), 32, 1456–1465 
S.Grimme, J.Antony, S.Ehrlich and H.Krieg, J.Chem.Phys., 132, (2010), 154104 
   

----- Orbital basis set information -----
Your calculation utilizes the basis: def2-SVP
   F. Weigend and R. Ahlrichs, Phys. Chem. Chem. Phys. 7, 3297 (2005).

----- AuxJ basis set information -----
Your calculation utilizes the auxiliary basis: def2/J
   F. Weigend, Phys. Chem. Chem. Phys. 8, 1057 (2006).

================================================================================
                                        WARNINGS
                       Please study these warnings very carefully!
================================================================================


WARNING: your system is open-shell and RHF/RKS was chosen
  ===> : WILL SWITCH to UHF/UKS


WARNING: Geometry Optimization
  ===> : Switching off AutoStart
         For restart on a previous wavefunction, please use MOREAD

INFO   : the flag for use of LIBINT has been found!

================================================================================
                                       INPUT FILE
================================================================================
NAME = m-mfaV_2-6_hl1d_fbond_scan_8_orca.inp
|  1> ! LooseOpt PBE RI D3BJ def2-SVP def2/J CPCM(Water)
|  2> %cpcm
|  3>  surfacetype vdw_gaussian
|  4> end
|  5> %geom Constraints
|  6> { B 2 6 1.387243299223933 C }
|  7>     end
|  8> end
|  9> %geom MaxIter 100 end
| 10> %pal nprocs 4
| 11> end
| 12> %output 
| 13> xyzfile=True 
| 14> end 
| 15> %scf 
| 16> maxiter 250 
| 17> end
| 18> %output
| 19> Print[P_Hirshfeld] = 1
| 20> end
| 21> % maxcore
| 22> 4000
| 23> *xyz 0 2
| 24> C   -1.23956312   0.09634403  -0.00749606 
| 25> C    0.14270631  -0.51012338   0.06056740 
| 26> C    1.32204519   0.29727354  -0.29182133 
| 27> H   -1.24013547   1.13929845   0.37009413 
| 28> H   -1.97387662  -0.48336043   0.58659574 
| 29> H   -1.60262040   0.12751943  -1.05870111 
| 30> H    0.76055373  -0.27686876   0.95996957 
| 31> H    0.21669529  -1.58234392  -0.19516991 
| 32> H    1.30486025   1.37917660  -0.07821550 
| 33> H    2.30923484  -0.18701557  -0.34582294 
| 34> *
| 35> 
| 36>                          ****END OF INPUT****
================================================================================

                       *****************************
                       * Geometry Optimization Run *
                       *****************************

Geometry optimization settings:
Update method            Update   .... BFGS
Choice of coordinates    CoordSys .... Z-matrix Internals
Initial Hessian          InHess   .... Almoef's Model

Convergence Tolerances:
Energy Change            TolE     ....  3.0000e-05 Eh
Max. Gradient            TolMAXG  ....  2.0000e-03 Eh/bohr
RMS Gradient             TolRMSG  ....  5.0000e-04 Eh/bohr
Max. Displacement        TolMAXD  ....  1.0000e-02 bohr
RMS Displacement         TolRMSD  ....  7.0000e-03 bohr
Strict Convergence                ....  False
------------------------------------------------------------------------------
                        ORCA OPTIMIZATION COORDINATE SETUP
------------------------------------------------------------------------------

The optimization will be done in new redundant internal coordinates
Making redundant internal coordinates   ...  (new redundants) done
Evaluating the initial hessian          ...  (Almloef) done
Evaluating the coordinates              ...  done
Calculating the B-matrix                .... done
Calculating the G-matrix                .... done
Diagonalizing the G-matrix              .... done
Imposing constraints:
 Iter   0:  RMS(Cart)=    0.0245230967 RMS(Int)=    0.0602110312
 Iter   1:  RMS(Cart)=    0.0078136276 RMS(Int)=    0.0192063336
 Iter   2:  RMS(Cart)=    0.0024924193 RMS(Int)=    0.0061288659
 Iter   3:  RMS(Cart)=    0.0007953472 RMS(Int)=    0.0019560065
 Iter   4:  RMS(Cart)=    0.0002538323 RMS(Int)=    0.0006242780
 Iter   5:  RMS(Cart)=    0.0000810130 RMS(Int)=    0.0001992468
 Iter   6:  RMS(Cart)=    0.0000258564 RMS(Int)=    0.0000635926
 Iter   7:  RMS(Cart)=    0.0000082525 RMS(Int)=    0.0000202965
 Iter   8:  RMS(Cart)=    0.0000026339 RMS(Int)=    0.0000064780
 Iter   9:  RMS(Cart)=    0.0000008406 RMS(Int)=    0.0000020675
 Iter  10:  RMS(Cart)=    0.0000002683 RMS(Int)=    0.0000006599
 Iter  11:  RMS(Cart)=    0.0000000856 RMS(Int)=    0.0000002106
 Iter  12:  RMS(Cart)=    0.0000000273 RMS(Int)=    0.0000000672
CONVERGED
The first mode is                       ....   16
The number of degrees of freedom        ....   24
Storing new coordinates                 .... done

    -----------------------------------------------------------------
                    Redundant Internal Coordinates


    -----------------------------------------------------------------
         Definition                    Initial Value    Approx d2E/dq
    -----------------------------------------------------------------
      1. B(C   1,C   0)                  1.5112         0.400590   
      2. B(C   2,C   1)                  1.4389         0.462217   
      3. B(H   3,C   0)                  1.1093         0.335574   
      4. B(H   4,C   0)                  1.1084         0.336749   
      5. B(H   5,C   0)                  1.1127         0.331446   
      6. B(H   6,C   1)                  1.0992         0.327506   
      7. B(H   6,C   2)                  1.3872         0.083685 C 
      8. B(H   7,C   1)                  1.1048         0.341073   
      9. B(H   8,C   2)                  1.1030         0.343405   
     10. B(H   9,C   2)                  1.1010         0.345957   
     11. A(H   4,C   0,H   5)          107.7512         0.284104   
     12. A(C   1,C   0,H   4)          111.8388         0.324467   
     13. A(C   1,C   0,H   3)          111.2503         0.324280   
     14. A(H   3,C   0,H   5)          107.1595         0.283949   
     15. A(C   1,C   0,H   5)          110.6386         0.323622   
     16. A(H   3,C   0,H   4)          108.0083         0.284651   
     17. A(C   0,C   1,C   2)          121.9009         0.381482   
     18. A(C   0,C   1,H   6)          119.2886         0.322988   
     19. A(C   2,C   1,H   6)           64.6525         0.330691   
     20. A(C   0,C   1,H   7)          115.3607         0.325148   
     21. A(C   2,C   1,H   7)          114.7547         0.332921   
     22. A(H   6,C   1,H   7)          110.9441         0.284139   
     23. A(C   1,C   2,H   8)          118.6287         0.333298   
     24. A(C   1,C   2,H   9)          119.2854         0.333707   
     25. A(H   8,C   2,H   9)          117.0580         0.286880   
     26. D(H   7,C   1,C   0,H   4)     53.1328         0.012731   
     27. D(C   2,C   1,C   0,H   4)   -159.6343         0.012731   
     28. D(C   2,C   1,C   0,H   3)    -38.7569         0.012731   
     29. D(H   7,C   1,C   0,H   3)    174.0101         0.012731   
     30. D(H   6,C   1,C   0,H   3)     38.0029         0.012731   
     31. D(H   6,C   1,C   0,H   5)    156.9981         0.012731   
     32. D(H   7,C   1,C   0,H   5)    -66.9946         0.012731   
     33. D(H   6,C   1,C   0,H   4)    -82.8744         0.012731   
     34. D(C   2,C   1,C   0,H   5)     80.2383         0.012731   
     35. D(H   9,C   2,C   1,H   7)    -26.1605         0.016878   
     36. D(H   8,C   2,C   1,H   6)    -77.8225         0.016878   
     37. D(H   8,C   2,C   1,H   7)    179.6371         0.016878   
     38. D(H   9,C   2,C   1,C   0)   -173.5752         0.016878   
     39. D(H   8,C   2,C   1,C   0)     32.2224         0.016878   
     40. D(H   9,C   2,C   1,H   6)     76.3799         0.016878   
    -----------------------------------------------------------------

Number of atoms                         .... 10
Number of degrees of freedom            .... 40

         *************************************************************
         *                GEOMETRY OPTIMIZATION CYCLE   1            *
         *************************************************************
---------------------------------
CARTESIAN COORDINATES (ANGSTROEM)
---------------------------------
  C     -1.244390    0.095993   -0.008177
  C      0.146672   -0.491392    0.051363
  C      1.314193    0.284460   -0.273134
  H     -1.255257    1.142028    0.360889
  H     -1.965139   -0.488694    0.597820
  H     -1.618119    0.113705   -1.056095
  H      0.798752   -0.244476    0.901170
  H      0.218665   -1.564070   -0.203035
  H      1.308997    1.365010   -0.051707
  H      2.295525   -0.212665   -0.319094

----------------------------
CARTESIAN COORDINATES (A.U.)
----------------------------
  NO LB      ZA    FRAG     MASS         X           Y           Z
   0 C     6.0000    0    12.011   -2.351556    0.181401   -0.015452
   1 C     6.0000    0    12.011    0.277169   -0.928596    0.097062
   2 C     6.0000    0    12.011    2.483465    0.537552   -0.516149
   3 H     1.0000    0     1.008   -2.372091    2.158121    0.681981
   4 H     1.0000    0     1.008   -3.713574   -0.923497    1.129715
   5 H     1.0000    0     1.008   -3.057802    0.214872   -1.995730
   6 H     1.0000    0     1.008    1.509423   -0.461993    1.702965
   7 H     1.0000    0     1.008    0.413216   -2.955663   -0.383681
   8 H     1.0000    0     1.008    2.473647    2.579494   -0.097713
   9 H     1.0000    0     1.008    4.337914   -0.401879   -0.603001

--------------------------------
INTERNAL COORDINATES (ANGSTROEM)
--------------------------------
 C      0   0   0     0.000000000000     0.00000000     0.00000000
 C      1   0   0     1.510994417955     0.00000000     0.00000000
 C      2   1   0     1.472042050125   120.13083511     0.00000000
 H      1   2   3     1.109201785685   111.25600068   319.81716030
 H      1   2   3     1.108250262375   111.84177974   198.94458844
 H      1   2   3     1.112571144364   110.62991232    78.81726551
 H      2   1   3     1.115825889444   117.31914144    79.88654023
 H      2   1   3     1.104777274968   116.12818282   213.92498160
 H      3   2   1     1.102922029887   118.63244327    32.56183465
 H      3   2   1     1.100906681338   119.26608412   186.74330759

---------------------------
INTERNAL COORDINATES (A.U.)
---------------------------
 C      0   0   0     0.000000000000     0.00000000     0.00000000
 C      1   0   0     2.855365639819     0.00000000     0.00000000
 C      2   1   0     2.781756332352   120.13083511     0.00000000
 H      1   2   3     2.096087602201   111.25600068   319.81716030
 H      1   2   3     2.094289483734   111.84177974   198.94458844
 H      1   2   3     2.102454767352   110.62991232    78.81726551
 H      2   1   3     2.108605344188   117.31914144    79.88654023
 H      2   1   3     2.087726488669   116.12818282   213.92498160
 H      3   2   1     2.084220583555   118.63244327    32.56183465
 H      3   2   1     2.080412126733   119.26608412   186.74330759

---------------------
BASIS SET INFORMATION
---------------------
There are 2 groups of distinct atoms

 Group   1 Type C   : 7s4p1d contracted to 3s2p1d pattern {511/31/1}
 Group   2 Type H   : 4s1p contracted to 2s1p pattern {31/1}

Atom   0C    basis set group =>   1
Atom   1C    basis set group =>   1
Atom   2C    basis set group =>   1
Atom   3H    basis set group =>   2
Atom   4H    basis set group =>   2
Atom   5H    basis set group =>   2
Atom   6H    basis set group =>   2
Atom   7H    basis set group =>   2
Atom   8H    basis set group =>   2
Atom   9H    basis set group =>   2
---------------------------------
AUXILIARY/J BASIS SET INFORMATION
---------------------------------
There are 2 groups of distinct atoms

 Group   1 Type C   : 12s5p4d2f1g contracted to 6s4p3d1f1g pattern {711111/2111/211/2/1}
 Group   2 Type H   : 5s2p1d contracted to 3s1p1d pattern {311/2/1}

Atom   0C    basis set group =>   1
Atom   1C    basis set group =>   1
Atom   2C    basis set group =>   1
Atom   3H    basis set group =>   2
Atom   4H    basis set group =>   2
Atom   5H    basis set group =>   2
Atom   6H    basis set group =>   2
Atom   7H    basis set group =>   2
Atom   8H    basis set group =>   2
Atom   9H    basis set group =>   2
[1589382375.556099] [ty2019:11223:0]            sys.c:618  UCX  ERROR shmget(size=2097152 flags=0xfb0) for mm_recv_desc failed: Operation not permitted, please check shared memory limits by 'ipcs -l'
[1589382375.556342] [ty2019:11222:0]            sys.c:618  UCX  ERROR shmget(size=2097152 flags=0xfb0) for mm_recv_desc failed: Operation not permitted, please check shared memory limits by 'ipcs -l'
[1589382375.566275] [ty2019:11225:0]            sys.c:618  UCX  ERROR shmget(size=2097152 flags=0xfb0) for mm_recv_desc failed: Operation not permitted, please check shared memory limits by 'ipcs -l'
[1589382375.567481] [ty2019:11224:0]            sys.c:618  UCX  ERROR shmget(size=2097152 flags=0xfb0) for mm_recv_desc failed: Operation not permitted, please check shared memory limits by 'ipcs -l'
[1589382375.574813] [ty2019:11222:0]            sys.c:618  UCX  ERROR shmget(size=2097152 flags=0xb80) for ucp_am_bufs failed: Operation not permitted, please check shared memory limits by 'ipcs -l'
[1589382375.575476] [ty2019:11225:0]            sys.c:618  UCX  ERROR shmget(size=2097152 flags=0xb80) for ucp_am_bufs failed: Operation not permitted, please check shared memory limits by 'ipcs -l'
[1589382375.578839] [ty2019:11224:0]            sys.c:618  UCX  ERROR shmget(size=2097152 flags=0xb80) for ucp_am_bufs failed: Operation not permitted, please check shared memory limits by 'ipcs -l'
[1589382375.580207] [ty2019:11223:0]            sys.c:618  UCX  ERROR shmget(size=2097152 flags=0xb80) for ucp_am_bufs failed: Operation not permitted, please check shared memory limits by 'ipcs -l'


           ************************************************************
           *        Program running with 4 parallel MPI-processes     *
           *              working on a common directory               *
           ************************************************************
------------------------------------------------------------------------------
                           ORCA GTO INTEGRAL CALCULATION
                           -- RI-GTO INTEGRALS CHOSEN --
------------------------------------------------------------------------------

                         BASIS SET STATISTICS AND STARTUP INFO

Gaussian basis set:
 # of primitive gaussian shells          ...   71
 # of primitive gaussian functions       ...  121
 # of contracted shells                  ...   39
 # of contracted basis functions         ...   77
 Highest angular momentum                ...    2
 Maximum contraction depth               ...    5
Auxiliary gaussian basis set:
 # of primitive gaussian shells          ...  128
 # of primitive gaussian functions       ...  322
 # of contracted shells                  ...   80
 # of contracted aux-basis functions     ...  224
 Highest angular momentum                ...    4
 Maximum contraction depth               ...    7
Ratio of auxiliary to basis functions    ...  2.91
Integral package used                  ... LIBINT
 One Electron integrals                  ... done
 Ordering auxiliary basis shells         ... done
 Integral threshhold             Thresh  ...  2.500e-11
 Primitive cut-off               TCut    ...  2.500e-12
 Pre-screening matrix                    ... done
 Shell pair data                         ... 
 Ordering of the shell pairs             ... done (   0.000 sec) 778 of 780 pairs
 Determination of significant pairs      ... done (   0.000 sec)
 Creation of shell pair data             ... done (   0.000 sec)
 Storage of shell pair data              ... done (   0.024 sec)
 Shell pair data done in (   0.024 sec)
 Computing two index integrals           ... done
 Cholesky decomposition of the V-matrix  ... done


Timings:
 Total evaluation time                   ...   0.128 sec (  0.002 min)
 One electron matrix time                ...   0.006 sec (  0.000 min) =  4.3%
 Schwartz matrix evaluation time         ...   0.071 sec (  0.001 min) = 55.7%
 Two index repulsion integral time       ...   0.002 sec (  0.000 min) =  1.2%
 Cholesky decomposition of V             ...   0.001 sec (  0.000 min) =  0.7%
 Three index repulsion integral time     ...   0.000 sec (  0.000 min) =  0.0%

[1589382376.549957] [ty2019:11244:0]            sys.c:618  UCX  ERROR shmget(size=2097152 flags=0xfb0) for mm_recv_desc failed: Operation not permitted, please check shared memory limits by 'ipcs -l'
[1589382376.550497] [ty2019:11247:0]            sys.c:618  UCX  ERROR shmget(size=2097152 flags=0xfb0) for mm_recv_desc failed: Operation not permitted, please check shared memory limits by 'ipcs -l'
[1589382376.555113] [ty2019:11246:0]            sys.c:618  UCX  ERROR shmget(size=2097152 flags=0xfb0) for mm_recv_desc failed: Operation not permitted, please check shared memory limits by 'ipcs -l'
[1589382376.564595] [ty2019:11245:0]            sys.c:618  UCX  ERROR shmget(size=2097152 flags=0xfb0) for mm_recv_desc failed: Operation not permitted, please check shared memory limits by 'ipcs -l'
[1589382376.572658] [ty2019:11246:0]            sys.c:618  UCX  ERROR shmget(size=2097152 flags=0xb80) for ucp_am_bufs failed: Operation not permitted, please check shared memory limits by 'ipcs -l'
[1589382376.572681] [ty2019:11244:0]            sys.c:618  UCX  ERROR shmget(size=2097152 flags=0xb80) for ucp_am_bufs failed: Operation not permitted, please check shared memory limits by 'ipcs -l'


           ************************************************************
           *        Program running with 4 parallel MPI-processes     *
           *              working on a common directory               *
           ************************************************************
[1589382376.575088] [ty2019:11245:0]            sys.c:618  UCX  ERROR shmget(size=2097152 flags=0xb80) for ucp_am_bufs failed: Operation not permitted, please check shared memory limits by 'ipcs -l'
[1589382376.575561] [ty2019:11247:0]            sys.c:618  UCX  ERROR shmget(size=2097152 flags=0xb80) for ucp_am_bufs failed: Operation not permitted, please check shared memory limits by 'ipcs -l'
-------------------------------------------------------------------------------
                                 ORCA SCF
-------------------------------------------------------------------------------

------------
SCF SETTINGS
------------
Hamiltonian:
 Density Functional     Method          .... DFT(GTOs)
 Exchange Functional    Exchange        .... PBE
   PBE kappa parameter   XKappa         ....  0.804000
   PBE mue parameter    XMuePBE         ....  0.219520
 Correlation Functional Correlation     .... PBE
   PBE beta parameter  CBetaPBE         ....  0.066725
 LDA part of GGA corr.  LDAOpt          .... PW91-LDA
 Gradients option       PostSCFGGA      .... off
   Density functional embedding theory  .... OFF
   NL short-range parameter             ....  6.400000
 RI-approximation to the Coulomb term is turned on
   Number of auxiliary basis functions  .... 224


General Settings:
 Integral files         IntName         .... m-mfaV_2-6_hl1d_fbond_scan_8_orca
 Hartree-Fock type      HFTyp           .... UHF
 Total Charge           Charge          ....    0
 Multiplicity           Mult            ....    2
 Number of Electrons    NEL             ....   25
 Basis Dimension        Dim             ....   77
 Nuclear Repulsion      ENuc            ....     76.7317232600 Eh

Convergence Acceleration:
 DIIS                   CNVDIIS         .... on
   Start iteration      DIISMaxIt       ....    12
   Startup error        DIISStart       ....  0.200000
   # of expansion vecs  DIISMaxEq       ....     5
   Bias factor          DIISBfac        ....   1.050
   Max. coefficient     DIISMaxC        ....  10.000
 Newton-Raphson         CNVNR           .... off
 SOSCF                  CNVSOSCF        .... off
 Level Shifting         CNVShift        .... on
   Level shift para.    LevelShift      ....    0.2500
   Turn off err/grad.   ShiftErr        ....    0.0010
 Zerner damping         CNVZerner       .... off
 Static damping         CNVDamp         .... on
   Fraction old density DampFac         ....    0.7000
   Max. Damping (<1)    DampMax         ....    0.9800
   Min. Damping (>=0)   DampMin         ....    0.0000
   Turn off err/grad.   DampErr         ....    0.1000
 Fernandez-Rico         CNVRico         .... off

SCF Procedure:
 Maximum # iterations   MaxIter         ....   250
 SCF integral mode      SCFMode         .... Direct
   Integral package                     .... LIBINT
 Reset frequency        DirectResetFreq ....    20
 Integral Threshold     Thresh          ....  2.500e-11 Eh
 Primitive CutOff       TCut            ....  2.500e-12 Eh

Convergence Tolerance:
 Convergence Check Mode ConvCheckMode   .... Total+1el-Energy
 Convergence forced     ConvForced      .... 0
 Energy Change          TolE            ....  1.000e-08 Eh
 1-El. energy change                    ....  1.000e-05 Eh
 DIIS Error             TolErr          ....  5.000e-07


Diagonalization of the overlap matrix:
Smallest eigenvalue                        ... 3.215e-03
Time for diagonalization                   ...    0.002 sec
Threshold for overlap eigenvalues          ... 1.000e-08
Number of eigenvalues below threshold      ... 0
Time for construction of square roots      ...    0.001 sec
Total time needed                          ...    0.003 sec

-------------------
DFT GRID GENERATION
-------------------

General Integration Accuracy     IntAcc      ...  4.340
Radial Grid Type                 RadialGrid  ... Gauss-Chebyshev
Angular Grid (max. acc.)         AngularGrid ... Lebedev-110
Angular grid pruning method      GridPruning ... 3 (G Style)
Weight generation scheme         WeightScheme... Becke
Basis function cutoff            BFCut       ...    1.0000e-11
Integration weight cutoff        WCut        ...    1.0000e-14
Grids for H and He will be reduced by one unit

# of grid points (after initial pruning)     ...  10526 (   0.0 sec)
# of grid points (after weights+screening)   ...  10029 (   0.0 sec)
nearest neighbour list constructed           ...    0.0 sec
Grid point re-assignment to atoms done       ...    0.0 sec
Grid point division into batches done        ...    0.0 sec
Reduced shell lists constructed in    0.0 sec

Total number of grid points                  ...    10029
Total number of batches                      ...      161
Average number of points per batch           ...       62
Average number of grid points per atom       ...     1003
Average number of shells per batch           ...    35.76 (91.70%)
Average number of basis functions per batch  ...    70.57 (91.65%)
Average number of large shells per batch     ...    33.17 (92.74%)
Average number of large basis fcns per batch ...    65.21 (92.41%)
Maximum spatial batch extension              ...  15.43, 15.16, 18.68 au
Average spatial batch extension              ...   0.66,  0.64,  0.75 au

Time for grid setup =    0.036 sec

------------------------------
INITIAL GUESS: MODEL POTENTIAL
------------------------------
Loading Hartree-Fock densities                     ... done
Calculating cut-offs                               ... done
Setting up the integral package                    ... done
Initializing the effective Hamiltonian             ... done
Starting the Coulomb interaction                   ... done (   0.0 sec)
Reading the grid                                   ... done
Mapping shells                                     ... done
Starting the XC term evaluation                    ... done (   0.0 sec)
  promolecular density results
     # of electrons  =     24.996432504
     EX              =    -17.381201557
     EC              =     -0.786602202
     EX+EC           =    -18.167803759
Transforming the Hamiltonian                       ... done (   0.0 sec)
Diagonalizing the Hamiltonian                      ... done (   0.0 sec)
Back transforming the eigenvectors                 ... done (   0.0 sec)
Now organizing SCF variables                       ... done
                      ------------------
                      INITIAL GUESS DONE (   0.1 sec)
                      ------------------

--------------------
CPCM SOLVATION MODEL
--------------------
CPCM parameters:
  Epsilon                                         ...      80.4000
  Refrac                                          ...       1.3300
  Rsolv                                           ...       1.3000
  Surface type                                    ... GAUSSIAN VDW
  Epsilon function type                           ...         CPCM
Radii:
 Radius for C  used is    3.8550 Bohr (=   2.0400 Ang.)
 Radius for H  used is    2.4944 Bohr (=   1.3200 Ang.)
Calculating surface                               ...        done! (  0.0s)
GEPOL surface points                              ...          603
GEPOL Volume                                      ...     532.6861
GEPOL Surface-area                                ...     350.0460
Calculating surface distance matrix               ...        done! (  0.0s)
Performing Cholesky decomposition & store         ...        done! (  0.0s)
Overall time for CPCM initialization              ...                 0.0s
--------------
SCF ITERATIONS
--------------
ITER       Energy         Delta-E        Max-DP      RMS-DP      [F,P]     Damp
               ***  Starting incremental Fock matrix formation  ***
  0   -118.0531184965   0.000000000000 0.05233685  0.00175703  0.1516807 0.7000
  1   -118.1019308270  -0.048812330499 0.03741053  0.00128035  0.0726913 0.7000
                               ***Turning on DIIS***
  2   -118.1196383083  -0.017707481300 0.05089501  0.00208232  0.0206720 0.0000
  3   -118.1433512075  -0.023712899165 0.02658726  0.00086750  0.0460698 0.0000
  4   -118.1523594538  -0.009008246367 0.00824677  0.00029040  0.0098425 0.0000
  5   -118.1528872673  -0.000527813432 0.00248703  0.00011229  0.0025503 0.0000
  6   -118.1529313592  -0.000044091961 0.00270382  0.00009265  0.0009758 0.0000
  7   -118.1529381299  -0.000006770699 0.00038153  0.00001021  0.0004235 0.0000
  8   -118.1529388088  -0.000000678839 0.00016113  0.00000469  0.0000568 0.0000
  9   -118.1529388647  -0.000000055914 0.00003198  0.00000107  0.0000108 0.0000
 10   -118.1529388693  -0.000000004639 0.00000644  0.00000027  0.0000070 0.0000
                 **** Energy Check signals convergence ****

               *****************************************************
               *                     SUCCESS                       *
               *           SCF CONVERGED AFTER  11 CYCLES          *
               *****************************************************

Setting up the final grid:

General Integration Accuracy     IntAcc      ...  4.670
Radial Grid Type                 RadialGrid  ... Gauss-Chebyshev
Angular Grid (max. acc.)         AngularGrid ... Lebedev-302
Angular grid pruning method      GridPruning ... 3 (G Style)
Weight generation scheme         WeightScheme... Becke
Basis function cutoff            BFCut       ...    1.0000e-11
Integration weight cutoff        WCut        ...    1.0000e-14
Grids for H and He will be reduced by one unit

# of grid points (after initial pruning)     ...  42394 (   0.0 sec)
# of grid points (after weights+screening)   ...  39921 (   0.0 sec)
nearest neighbour list constructed           ...    0.0 sec
Grid point re-assignment to atoms done       ...    0.0 sec
Grid point division into batches done        ...    0.1 sec
Reduced shell lists constructed in    0.1 sec

Total number of grid points                  ...    39921
Total number of batches                      ...      628
Average number of points per batch           ...       63
Average number of grid points per atom       ...     3992
Average number of shells per batch           ...    34.94 (89.60%)
Average number of basis functions per batch  ...    68.96 (89.55%)
Average number of large shells per batch     ...    31.56 (90.31%)
Average number of large basis fcns per batch ...    61.66 (89.42%)
Maximum spatial batch extension              ...  14.89, 13.94, 18.35 au
Average spatial batch extension              ...   0.42,  0.42,  0.47 au

Final grid set up in    0.2 sec
Final integration                            ... done (   0.1 sec)
Change in XC energy                          ...     0.000342489
Integrated number of electrons               ...    24.999927802
Previous integrated no of electrons          ...    25.001552899

----------------
TOTAL SCF ENERGY
----------------

Total Energy       :         -118.15259638 Eh           -3215.09560 eV

Components:
Nuclear Repulsion  :           76.73172326 Eh            2087.97634 eV
Electronic Energy  :         -194.88431964 Eh           -5303.07194 eV
One Electron Energy:         -309.08597340 Eh           -8410.65693 eV
Two Electron Energy:          114.20165376 Eh            3107.58499 eV
CPCM Dielectric    :           -0.00251457 Eh              -0.06842 eV

Virial components:
Potential Energy   :         -234.97729597 Eh           -6394.05729 eV
Kinetic Energy     :          116.82469959 Eh            3178.96169 eV
Virial Ratio       :            2.01136658


DFT components:
N(Alpha)           :       12.999968791633 electrons
N(Beta)            :       11.999959010713 electrons
N(Total)           :       24.999927802346 electrons
E(X)               :      -17.854572042109 Eh       
E(C)               :       -0.797399772060 Eh       
E(XC)              :      -18.651971814169 Eh       
DFET-embed. en.    :        0.000000000000 Eh       
CPCM Solvation Model Properties:
Surface-charge          :           -0.01989205
Charge-correction       :           -0.00001603 Eh              -0.00044 eV
Free-energy (cav+disp)  :            0.00316174 Eh               0.08604 eV
Corrected G(solv)       :         -118.14945067 Eh           -3215.01000 eV

---------------
SCF CONVERGENCE
---------------

  Last Energy change         ...    8.4910e-11  Tolerance :   1.0000e-08
  Last MAX-Density change    ...    3.6045e-06  Tolerance :   1.0000e-07
  Last RMS-Density change    ...    1.2925e-07  Tolerance :   5.0000e-09
  Last DIIS Error            ...    3.3506e-06  Tolerance :   5.0000e-07

             **** THE GBW FILE WAS UPDATED (m-mfaV_2-6_hl1d_fbond_scan_8_orca.gbw) ****
             **** DENSITY FILE WAS UPDATED (m-mfaV_2-6_hl1d_fbond_scan_8_orca.scfp) ****
             **** ENERGY FILE WAS UPDATED (m-mfaV_2-6_hl1d_fbond_scan_8_orca.en.tmp) ****
----------------------
UHF SPIN CONTAMINATION
----------------------

Warning: in a DFT calculation there is little theoretical justification to 
         calculate <S**2> as in Hartree-Fock theory. We will do it anyways
         but you should keep in mind that the values have only limited relevance

Expectation value of <S**2>     :     0.752922
Ideal value S*(S+1) for S=0.5   :     0.750000
Deviation                       :     0.002922

             **** THE GBW FILE WAS UPDATED (m-mfaV_2-6_hl1d_fbond_scan_8_orca.gbw) ****
             **** DENSITY FILE WAS UPDATED (m-mfaV_2-6_hl1d_fbond_scan_8_orca.scfp) ****
----------------
ORBITAL ENERGIES
----------------
                 SPIN UP ORBITALS
  NO   OCC          E(Eh)            E(eV) 
   0   1.0000      -9.898481      -269.3514 
   1   1.0000      -9.892339      -269.1842 
   2   1.0000      -9.890895      -269.1449 
   3   1.0000      -0.739643       -20.1267 
   4   1.0000      -0.617534       -16.8040 
   5   1.0000      -0.495616       -13.4864 
   6   1.0000      -0.420738       -11.4489 
   7   1.0000      -0.390793       -10.6340 
   8   1.0000      -0.364693        -9.9238 
   9   1.0000      -0.329249        -8.9593 
  10   1.0000      -0.300930        -8.1887 
  11   1.0000      -0.290176        -7.8961 
  12   1.0000      -0.107031        -2.9124 
  13   0.0000       0.048242         1.3127 
  14   0.0000       0.079343         2.1590 
  15   0.0000       0.085977         2.3395 
  16   0.0000       0.100055         2.7226 
  17   0.0000       0.118968         3.2373 
  18   0.0000       0.130992         3.5645 
  19   0.0000       0.135928         3.6988 
  20   0.0000       0.201322         5.4783 
  21   0.0000       0.253023         6.8851 
  22   0.0000       0.348165         9.4741 
  23   0.0000       0.366973         9.9858 
  24   0.0000       0.386832        10.5262 
  25   0.0000       0.441526        12.0145 
  26   0.0000       0.473449        12.8832 
  27   0.0000       0.484585        13.1862 
  28   0.0000       0.563736        15.3400 
  29   0.0000       0.581320        15.8185 
  30   0.0000       0.590638        16.0721 
  31   0.0000       0.610719        16.6185 
  32   0.0000       0.612288        16.6612 
  33   0.0000       0.627187        17.0666 
  34   0.0000       0.642584        17.4856 
  35   0.0000       0.649711        17.6795 
  36   0.0000       0.656401        17.8616 
  37   0.0000       0.680314        18.5123 
  38   0.0000       0.699175        19.0255 
  39   0.0000       0.775519        21.1029 
  40   0.0000       0.896872        24.4051 
  41   0.0000       1.120921        30.5018 
  42   0.0000       1.172241        31.8983 
  43   0.0000       1.304533        35.4982 
  44   0.0000       1.317940        35.8630 
  45   0.0000       1.448585        39.4180 
  46   0.0000       1.471259        40.0350 
  47   0.0000       1.477937        40.2167 
  48   0.0000       1.517301        41.2879 
  49   0.0000       1.598472        43.4966 
  50   0.0000       1.616997        44.0007 
  51   0.0000       1.681758        45.7630 
  52   0.0000       1.688751        45.9532 
  53   0.0000       1.716301        46.7029 
  54   0.0000       1.722177        46.8628 
  55   0.0000       1.768933        48.1351 
  56   0.0000       1.783380        48.5282 
  57   0.0000       1.863696        50.7137 
  58   0.0000       1.910366        51.9837 
  59   0.0000       2.000843        54.4457 
  60   0.0000       2.035226        55.3813 
  61   0.0000       2.134447        58.0813 
  62   0.0000       2.159199        58.7548 
  63   0.0000       2.225287        60.5531 
  64   0.0000       2.264613        61.6233 
  65   0.0000       2.301692        62.6322 
  66   0.0000       2.400955        65.3333 
  67   0.0000       2.417984        65.7967 
  68   0.0000       2.434757        66.2531 
  69   0.0000       2.555523        69.5393 
  70   0.0000       2.689395        73.1822 
  71   0.0000       2.752603        74.9021 
  72   0.0000       2.836981        77.1982 
  73   0.0000       2.866521        78.0020 
  74   0.0000       2.873449        78.1905 
  75   0.0000       2.929994        79.7292 
  76   0.0000       3.038055        82.6697 

                 SPIN DOWN ORBITALS
  NO   OCC          E(Eh)            E(eV) 
   0   1.0000      -9.895183      -269.2616 
   1   1.0000      -9.890890      -269.1448 
   2   1.0000      -9.881502      -268.8893 
   3   1.0000      -0.726819       -19.7777 
   4   1.0000      -0.611386       -16.6367 
   5   1.0000      -0.481007       -13.0889 
   6   1.0000      -0.411222       -11.1899 
   7   1.0000      -0.382083       -10.3970 
   8   1.0000      -0.359649        -9.7865 
   9   1.0000      -0.325617        -8.8605 
  10   1.0000      -0.296991        -8.0815 
  11   1.0000      -0.275806        -7.5051 
  12   0.0000      -0.045876        -1.2484 
  13   0.0000       0.051630         1.4049 
  14   0.0000       0.081671         2.2224 
  15   0.0000       0.091636         2.4935 
  16   0.0000       0.109874         2.9898 
  17   0.0000       0.121417         3.3039 
  18   0.0000       0.133995         3.6462 
  19   0.0000       0.139451         3.7946 
  20   0.0000       0.207143         5.6366 
  21   0.0000       0.262538         7.1440 
  22   0.0000       0.356644         9.7048 
  23   0.0000       0.369781        10.0622 
  24   0.0000       0.389988        10.6121 
  25   0.0000       0.462678        12.5901 
  26   0.0000       0.485586        13.2135 
  27   0.0000       0.514633        14.0039 
  28   0.0000       0.573403        15.6031 
  29   0.0000       0.588012        16.0006 
  30   0.0000       0.597852        16.2684 
  31   0.0000       0.617751        16.8099 
  32   0.0000       0.621512        16.9122 
  33   0.0000       0.634086        17.2544 
  34   0.0000       0.649889        17.6844 
  35   0.0000       0.653522        17.7832 
  36   0.0000       0.663956        18.0672 
  37   0.0000       0.689153        18.7528 
  38   0.0000       0.709472        19.3057 
  39   0.0000       0.783805        21.3284 
  40   0.0000       0.903523        24.5861 
  41   0.0000       1.127173        30.6719 
  42   0.0000       1.181917        32.1616 
  43   0.0000       1.311745        35.6944 
  44   0.0000       1.334593        36.3161 
  45   0.0000       1.455067        39.5944 
  46   0.0000       1.474698        40.1286 
  47   0.0000       1.480729        40.2927 
  48   0.0000       1.522652        41.4335 
  49   0.0000       1.602505        43.6064 
  50   0.0000       1.639248        44.6062 
  51   0.0000       1.684577        45.8397 
  52   0.0000       1.700742        46.2795 
  53   0.0000       1.718629        46.7663 
  54   0.0000       1.725477        46.9526 
  55   0.0000       1.774070        48.2749 
  56   0.0000       1.787696        48.6457 
  57   0.0000       1.865927        50.7745 
  58   0.0000       1.921693        52.2919 
  59   0.0000       2.019285        54.9475 
  60   0.0000       2.044510        55.6339 
  61   0.0000       2.148086        58.4524 
  62   0.0000       2.178526        59.2807 
  63   0.0000       2.244403        61.0733 
  64   0.0000       2.276942        61.9587 
  65   0.0000       2.316293        63.0295 
  66   0.0000       2.410652        65.5972 
  67   0.0000       2.430675        66.1420 
  68   0.0000       2.442293        66.4582 
  69   0.0000       2.561147        69.6923 
  70   0.0000       2.696577        73.3776 
  71   0.0000       2.768941        75.3467 
  72   0.0000       2.843548        77.3769 
  73   0.0000       2.873397        78.1891 
  74   0.0000       2.876681        78.2785 
  75   0.0000       2.936172        79.8973 
  76   0.0000       3.044503        82.8451 

                    ********************************
                    * MULLIKEN POPULATION ANALYSIS *
                    ********************************

--------------------------------------------
MULLIKEN ATOMIC CHARGES AND SPIN POPULATIONS
--------------------------------------------
   0 C :   -0.020123   -0.016481
   1 C :   -0.101165    0.210743
   2 C :   -0.195846    0.857594
   3 H :    0.030447    0.001277
   4 H :    0.039395    0.000587
   5 H :    0.036492    0.027653
   6 H :    0.062572   -0.002940
   7 H :    0.050189   -0.003234
   8 H :    0.049384   -0.037481
   9 H :    0.048655   -0.037718
Sum of atomic charges         :    0.0000000
Sum of atomic spin populations:    1.0000000

-----------------------------------------------------
MULLIKEN REDUCED ORBITAL CHARGES AND SPIN POPULATIONS
-----------------------------------------------------
CHARGE
  0 C s       :     3.008951  s :     3.008951
      pz      :     1.015565  p :     2.986147
      px      :     0.966971
      py      :     1.003611
      dz2     :     0.004942  d :     0.025026
      dxz     :     0.006507
      dyz     :     0.002823
      dx2y2   :     0.005982
      dxy     :     0.004772
  1 C s       :     3.080654  s :     3.080654
      pz      :     1.058321  p :     2.980866
      px      :     0.919261
      py      :     1.003285
      dz2     :     0.005104  d :     0.039644
      dxz     :     0.011105
      dyz     :     0.003093
      dx2y2   :     0.010916
      dxy     :     0.009427
  2 C s       :     3.195041  s :     3.195041
      pz      :     1.098302  p :     2.973958
      px      :     0.933378
      py      :     0.942279
      dz2     :     0.004430  d :     0.026848
      dxz     :     0.004315
      dyz     :     0.004171
      dx2y2   :     0.007425
      dxy     :     0.006507
  3 H s       :     0.946480  s :     0.946480
      pz      :     0.006193  p :     0.023073
      px      :     0.004384
      py      :     0.012496
  4 H s       :     0.937790  s :     0.937790
      pz      :     0.007779  p :     0.022814
      px      :     0.007775
      py      :     0.007260
  5 H s       :     0.940491  s :     0.940491
      pz      :     0.012353  p :     0.023017
      px      :     0.005393
      py      :     0.005271
  6 H s       :     0.896511  s :     0.896511
      pz      :     0.016982  p :     0.040916
      px      :     0.013494
      py      :     0.010441
  7 H s       :     0.927152  s :     0.927152
      pz      :     0.006050  p :     0.022659
      px      :     0.003482
      py      :     0.013126
  8 H s       :     0.926632  s :     0.926632
      pz      :     0.006374  p :     0.023984
      px      :     0.004170
      py      :     0.013441
  9 H s       :     0.927405  s :     0.927405
      pz      :     0.006410  p :     0.023940
      px      :     0.011753
      py      :     0.005777

SPIN
  0 C s       :    -0.008293  s :    -0.008293
      pz      :    -0.005535  p :    -0.009935
      px      :    -0.004070
      py      :    -0.000330
      dz2     :     0.000273  d :     0.001747
      dxz     :     0.001195
      dyz     :     0.000276
      dx2y2   :     0.000002
      dxy     :     0.000001
  1 C s       :     0.033175  s :     0.033175
      pz      :     0.184694  p :     0.174504
      px      :    -0.007097
      py      :    -0.003093
      dz2     :     0.002679  d :     0.003064
      dxz     :    -0.000171
      dyz     :     0.000412
      dx2y2   :     0.000185
      dxy     :    -0.000042
  2 C s       :     0.062192  s :     0.062192
      pz      :     0.733936  p :     0.796719
      px      :     0.021837
      py      :     0.040947
      dz2     :    -0.001936  d :    -0.001317
      dxz     :     0.000575
      dyz     :     0.000074
      dx2y2   :     0.000130
      dxy     :    -0.000160
  3 H s       :     0.001302  s :     0.001302
      pz      :    -0.000002  p :    -0.000025
      px      :    -0.000013
      py      :    -0.000009
  4 H s       :     0.000645  s :     0.000645
      pz      :    -0.000013  p :    -0.000057
      px      :    -0.000028
      py      :    -0.000016
  5 H s       :     0.027701  s :     0.027701
      pz      :    -0.000154  p :    -0.000048
      px      :     0.000024
      py      :     0.000082
  6 H s       :    -0.013056  s :    -0.013056
      pz      :     0.000108  p :     0.010116
      px      :     0.007058
      py      :     0.002949
  7 H s       :    -0.004417  s :    -0.004417
      pz      :     0.001092  p :     0.001183
      px      :     0.000015
      py      :     0.000075
  8 H s       :    -0.041741  s :    -0.041741
      pz      :     0.003980  p :     0.004260
      px      :    -0.000100
      py      :     0.000380
  9 H s       :    -0.041959  s :    -0.041959
      pz      :     0.004237  p :     0.004241
      px      :     0.000076
      py      :    -0.000072


                     *******************************
                     * LOEWDIN POPULATION ANALYSIS *
                     *******************************

-------------------------------------------
LOEWDIN ATOMIC CHARGES AND SPIN POPULATIONS
-------------------------------------------
   0 C :   -0.072431    0.004924
   1 C :   -0.076096    0.190827
   2 C :   -0.119343    0.710840
   3 H :    0.034852    0.002309
   4 H :    0.034344    0.000830
   5 H :    0.031602    0.020053
   6 H :    0.076778    0.052955
   7 H :    0.038722    0.008333
   8 H :    0.024232    0.004828
   9 H :    0.027341    0.004101

----------------------------------------------------
LOEWDIN REDUCED ORBITAL CHARGES AND SPIN POPULATIONS
----------------------------------------------------
CHARGE
  0 C s       :     2.848948  s :     2.848948
      pz      :     1.068603  p :     3.154622
      px      :     1.022198
      py      :     1.063822
      dz2     :     0.014586  d :     0.068861
      dxz     :     0.016585
      dyz     :     0.007913
      dx2y2   :     0.016626
      dxy     :     0.013152
  1 C s       :     2.826752  s :     2.826752
      pz      :     1.096045  p :     3.149378
      px      :     0.998202
      py      :     1.055131
      dz2     :     0.011706  d :     0.099967
      dxz     :     0.026255
      dyz     :     0.008125
      dx2y2   :     0.029743
      dxy     :     0.024139
  2 C s       :     2.909334  s :     2.909334
      pz      :     1.076540  p :     3.137556
      px      :     1.026965
      py      :     1.034051
      dz2     :     0.010409  d :     0.072453
      dxz     :     0.010759
      dyz     :     0.010188
      dx2y2   :     0.021966
      dxy     :     0.019131
  3 H s       :     0.901197  s :     0.901197
      pz      :     0.015197  p :     0.063951
      px      :     0.011854
      py      :     0.036901
  4 H s       :     0.901968  s :     0.901968
      pz      :     0.020603  p :     0.063688
      px      :     0.023363
      py      :     0.019722
  5 H s       :     0.903966  s :     0.903966
      pz      :     0.036831  p :     0.064432
      px      :     0.015306
      py      :     0.012295
  6 H s       :     0.783295  s :     0.783295
      pz      :     0.058101  p :     0.139928
      px      :     0.050638
      py      :     0.031189
  7 H s       :     0.893357  s :     0.893357
      pz      :     0.018769  p :     0.067921
      px      :     0.010324
      py      :     0.038828
  8 H s       :     0.900916  s :     0.900916
      pz      :     0.023627  p :     0.074852
      px      :     0.010625
      py      :     0.040600
  9 H s       :     0.897600  s :     0.897600
      pz      :     0.022866  p :     0.075059
      px      :     0.035332
      py      :     0.016861

SPIN
  0 C s       :     0.001422  s :     0.001422
      pz      :    -0.002241  p :    -0.001632
      px      :    -0.000047
      py      :     0.000656
      dz2     :     0.000910  d :     0.005133
      dxz     :     0.003327
      dyz     :     0.000706
      dx2y2   :     0.000115
      dxy     :     0.000075
  1 C s       :     0.008911  s :     0.008911
      pz      :     0.172727  p :     0.173749
      px      :    -0.000047
      py      :     0.001068
      dz2     :     0.005484  d :     0.008168
      dxz     :     0.000406
      dyz     :     0.001531
      dx2y2   :     0.000448
      dxy     :     0.000299
  2 C s       :     0.026273  s :     0.026273
      pz      :     0.646040  p :     0.681912
      px      :     0.014679
      py      :     0.021193
      dz2     :    -0.000356  d :     0.002654
      dxz     :     0.002471
      dyz     :     0.001547
      dx2y2   :    -0.000393
      dxy     :    -0.000615
  3 H s       :     0.002396  s :     0.002396
      pz      :    -0.000009  p :    -0.000087
      px      :    -0.000028
      py      :    -0.000050
  4 H s       :     0.001023  s :     0.001023
      pz      :    -0.000072  p :    -0.000193
      px      :    -0.000080
      py      :    -0.000041
  5 H s       :     0.019080  s :     0.019080
      pz      :     0.000095  p :     0.000973
      px      :     0.000587
      py      :     0.000291
  6 H s       :     0.004366  s :     0.004366
      pz      :     0.004018  p :     0.048589
      px      :     0.030772
      py      :     0.013799
  7 H s       :     0.001560  s :     0.001560
      pz      :     0.006170  p :     0.006773
      px      :     0.000121
      py      :     0.000482
  8 H s       :    -0.016667  s :    -0.016667
      pz      :     0.018455  p :     0.021495
      px      :     0.000253
      py      :     0.002786
  9 H s       :    -0.017430  s :    -0.017430
      pz      :     0.018828  p :     0.021531
      px      :     0.001789
      py      :     0.000914


                      *****************************
                      * MAYER POPULATION ANALYSIS *
                      *****************************

  NA   - Mulliken gross atomic population
  ZA   - Total nuclear charge
  QA   - Mulliken gross atomic charge
  VA   - Mayer's total valence
  BVA  - Mayer's bonded valence
  FA   - Mayer's free valence

  ATOM       NA         ZA         QA         VA         BVA        FA
  0 C      6.0201     6.0000    -0.0201     3.9841     3.9839     0.0002
  1 C      6.1012     6.0000    -0.1012     4.0104     3.9557     0.0547
  2 C      6.1958     6.0000    -0.1958     3.7821     3.2207     0.5615
  3 H      0.9696     1.0000     0.0304     0.9918     0.9918     0.0000
  4 H      0.9606     1.0000     0.0394     0.9857     0.9857     0.0000
  5 H      0.9635     1.0000     0.0365     0.9844     0.9836     0.0008
  6 H      0.9374     1.0000     0.0626     1.0258     1.0243     0.0015
  7 H      0.9498     1.0000     0.0502     0.9783     0.9782     0.0001
  8 H      0.9506     1.0000     0.0494     0.9908     0.9889     0.0019
  9 H      0.9513     1.0000     0.0487     0.9858     0.9839     0.0019

  Mayer bond orders larger than 0.100000
B(  0-C ,  1-C ) :   1.1088 B(  0-C ,  3-H ) :   0.9583 B(  0-C ,  4-H ) :   0.9624 
B(  0-C ,  5-H ) :   0.9566 B(  1-C ,  2-C ) :   1.0641 B(  1-C ,  6-H ) :   0.7911 
B(  1-C ,  7-H ) :   0.9435 B(  2-C ,  6-H ) :   0.2122 B(  2-C ,  8-H ) :   0.9636 
B(  2-C ,  9-H ) :   0.9620 


------------------
HIRSHFELD ANALYSIS
------------------

Total integrated alpha density =     13.001731721
Total integrated beta density  =     11.999821177

  ATOM     CHARGE      SPIN    
   0 C   -0.071025    0.022286
   1 C   -0.052983    0.199897
   2 C   -0.111389    0.592713
   3 H    0.032466    0.002574
   4 H    0.030063    0.002413
   5 H    0.025995    0.019087
   6 H    0.056861    0.059834
   7 H    0.038042    0.018341
   8 H    0.023318    0.043072
   9 H    0.027099    0.041692

  TOTAL  -0.001553    1.001911

-------
TIMINGS
-------

Total SCF time: 0 days 0 hours 0 min 4 sec 

Total time                  ....       4.086 sec
Sum of individual times     ....       3.976 sec  ( 97.3%)

Fock matrix formation       ....       3.600 sec  ( 88.1%)
  Split-RI-J                ....       0.974 sec  ( 27.1% of F)
  XC integration            ....       0.421 sec  ( 11.7% of F)
    Basis function eval.    ....       0.081 sec  ( 19.1% of XC)
    Density eval.           ....       0.052 sec  ( 12.3% of XC)
    XC-Functional eval.     ....       0.025 sec  (  6.0% of XC)
    XC-Potential eval.      ....       0.087 sec  ( 20.7% of XC)
Diagonalization             ....       0.013 sec  (  0.3%)
Density matrix formation    ....       0.001 sec  (  0.0%)
Population analysis         ....       0.025 sec  (  0.6%)
Initial guess               ....       0.109 sec  (  2.7%)
Orbital Transformation      ....       0.000 sec  (  0.0%)
Orbital Orthonormalization  ....       0.000 sec  (  0.0%)
DIIS solution               ....       0.005 sec  (  0.1%)
Grid generation             ....       0.222 sec  (  5.4%)


-------------------------------------------------------------------------------
                          DFT DISPERSION CORRECTION                            
                                                                               
                              DFTD3 V3.1  Rev 1                                
                          USING Becke-Johnson damping                          
-------------------------------------------------------------------------------
The PBE functional is recognized
Active option DFTDOPT                   ...         4   

molecular C6(AA) [au] = 639.204783 


            DFT-D V3
 parameters
 s6 scaling factor         :     1.0000 
 a1 scaling factor         :     0.4289 
 s8 scaling factor         :     0.7875 
 a2 scaling factor         :     4.4407 
 ad hoc parameters k1-k3   :    16.0000     1.3333    -4.0000 

 Edisp/kcal,au: -3.261357764953  -0.005197303868 
 E6   /kcal   :  -2.375005123 
 E8   /kcal   :  -0.886352642 
 % E8         :  27.177412161 

-------------------------   ----------------
Dispersion correction           -0.005197304
-------------------------   ----------------


-------------------------   --------------------
FINAL SINGLE POINT ENERGY      -118.157793683723
-------------------------   --------------------

[1589382381.581744] [ty2019:11270:0]            sys.c:618  UCX  ERROR shmget(size=2097152 flags=0xfb0) for mm_recv_desc failed: Operation not permitted, please check shared memory limits by 'ipcs -l'
[1589382381.582641] [ty2019:11271:0]            sys.c:618  UCX  ERROR shmget(size=2097152 flags=0xfb0) for mm_recv_desc failed: Operation not permitted, please check shared memory limits by 'ipcs -l'
[1589382381.586917] [ty2019:11272:0]            sys.c:618  UCX  ERROR shmget(size=2097152 flags=0xfb0) for mm_recv_desc failed: Operation not permitted, please check shared memory limits by 'ipcs -l'
[1589382381.587468] [ty2019:11273:0]            sys.c:618  UCX  ERROR shmget(size=2097152 flags=0xfb0) for mm_recv_desc failed: Operation not permitted, please check shared memory limits by 'ipcs -l'
[1589382381.594454] [ty2019:11272:0]            sys.c:618  UCX  ERROR shmget(size=2097152 flags=0xb80) for ucp_am_bufs failed: Operation not permitted, please check shared memory limits by 'ipcs -l'
[1589382381.594477] [ty2019:11270:0]            sys.c:618  UCX  ERROR shmget(size=2097152 flags=0xb80) for ucp_am_bufs failed: Operation not permitted, please check shared memory limits by 'ipcs -l'
[1589382381.595205] [ty2019:11271:0]            sys.c:618  UCX  ERROR shmget(size=2097152 flags=0xb80) for ucp_am_bufs failed: Operation not permitted, please check shared memory limits by 'ipcs -l'


           ************************************************************
           *        Program running with 4 parallel MPI-processes     *
           *              working on a common directory               *
           ************************************************************
------------------------------------------------------------------------------
                         ORCA SCF GRADIENT CALCULATION
------------------------------------------------------------------------------

Gradient of the Kohn-Sham DFT energy:
Kohn-Sham wavefunction type      ... UKS
Hartree-Fock exchange scaling    ...    0.000
Number of operators              ...    2
Number of atoms                  ...   10
Basis set dimensions             ...   77
Integral neglect threshold       ... 2.5e-11
Integral primitive cutoff        ... 2.5e-12

Nuclear repulsion gradient       ... done
One Electron Gradient            ... done
Pre-screening matrix             ... [1589382381.808437] [ty2019:11273:0]            sys.c:618  UCX  ERROR shmget(size=2097152 flags=0xb80) for ucp_am_bufs failed: Operation not permitted, please check shared memory limits by 'ipcs -l'
done
RI-J gradient                    ... done
Exchange-correlation gradient    ... done
Dispersion correction            ... done

------------------
CARTESIAN GRADIENT
------------------

   1   C   :   -0.002239124   -0.001344329   -0.001103628
   2   C   :    0.032098632    0.022093323    0.010441051
   3   C   :   -0.041084688   -0.037178040    0.052996781
   4   H   :    0.000158182   -0.000200328   -0.000113487
   5   H   :   -0.000058821   -0.000016819    0.000256395
   6   H   :    0.000143792   -0.000418559    0.000402758
   7   H   :    0.011498451    0.017166997   -0.062922103
   8   H   :   -0.000435251    0.000275664   -0.000920828
   9   H   :   -0.000394417   -0.000001216    0.000321783
  10   H   :    0.000313245   -0.000376693    0.000641278

Difference to translation invariance:
           :   -0.0000000000    0.0000000000    0.0000000000

Norm of the cartesian gradient     ...    0.1091006375
RMS gradient                       ...    0.0199189601
MAX gradient                       ...    0.0629221031

-------
TIMINGS
-------

Total SCF gradient time            ...        0.629 sec

One electron gradient       ....       0.005 sec  (  0.8%)
Prescreening matrices       ....       0.006 sec  (  1.0%)
RI-J Coulomb gradient       ....       0.079 sec  ( 12.6%)
XC gradient                 ....       0.292 sec  ( 46.5%)
CPCM gradient               ....       0.116 sec  ( 18.4%)
   A-Matrix (El+Nuc)        ....       0.025 sec  (  4.0%)
   Potential                ....       0.091 sec  ( 14.4%)
------------------------------------------------------------------------------
                         ORCA GEOMETRY RELAXATION STEP
------------------------------------------------------------------------------

Reading the OPT-File                    .... done
Getting information on internals        .... done
Copying old internal coords+grads       .... done
Making the new internal coordinates     .... (new redundants).... done
Validating the new internal coordinates .... (new redundants).... done
Calculating the B-matrix                .... done
Calculating the G,G- and P matrices     .... done
Transforming gradient to internals      .... done
Projecting the internal gradient        .... done
Number of atoms                         ....  10
Number of internal coordinates          ....  40
Current Energy                          ....  -118.157793684 Eh
Current gradient norm                   ....     0.109100637 Eh/bohr
Maximum allowed component of the step   ....  0.300
Current trust radius                    ....  0.300
Evaluating the initial hessian          ....  (Almloef) done
Projecting the Hessian                  .... done
Forming the augmented Hessian           .... done
Diagonalizing the augmented Hessian     .... done
Last element of RFO vector              ....  0.995946058
Lowest eigenvalues of augmented Hessian:
 -0.002040835  0.012721935  0.021643661  0.031780836  0.047470728
Length of the computed step             ....  0.090318635
The final length of the internal step   ....  0.090318635
Converting the step to cartesian space:
 Initial RMS(Int)=    0.0142806301
Transforming coordinates:
 Iter   0:  RMS(Cart)=    0.0123136493 RMS(Int)=    0.0142157208
 Iter   1:  RMS(Cart)=    0.0001236548 RMS(Int)=    0.0001347774
 Iter   2:  RMS(Cart)=    0.0000021888 RMS(Int)=    0.0000021209
 Iter   3:  RMS(Cart)=    0.0000000293 RMS(Int)=    0.0000000276
Imposing constraints:
 Iter   0:  RMS(Cart)=    0.0000525839 RMS(Int)=    0.0001321266
 Iter   1:  RMS(Cart)=    0.0000171130 RMS(Int)=    0.0000429993
 Iter   2:  RMS(Cart)=    0.0000055692 RMS(Int)=    0.0000139937
 Iter   3:  RMS(Cart)=    0.0000018125 RMS(Int)=    0.0000045541
 Iter   4:  RMS(Cart)=    0.0000005898 RMS(Int)=    0.0000014821
 Iter   5:  RMS(Cart)=    0.0000001920 RMS(Int)=    0.0000004823
 Iter   6:  RMS(Cart)=    0.0000000625 RMS(Int)=    0.0000001570
 Iter   7:  RMS(Cart)=    0.0000000203 RMS(Int)=    0.0000000511
CONVERGED
done
Storing new coordinates                 .... done

                                .--------------------.
          ----------------------|Geometry convergence|-------------------------
          Item                value                   Tolerance       Converged
          ---------------------------------------------------------------------
          RMS gradient        0.0040737239            0.0005000000      NO
          MAX gradient        0.0166470205            0.0020000000      NO
          RMS step            0.0142806301            0.0070000000      NO
          MAX step            0.0463831978            0.0100000000      NO
          ........................................................
          Max(Bonds)      0.0245      Max(Angles)    1.35
          Max(Dihed)        1.39      Max(Improp)    0.00
          ---------------------------------------------------------------------

The optimization has not yet converged - more geometry cycles are needed


    ---------------------------------------------------------------------------
                         Redundant Internal Coordinates
                            (Angstroem and degrees)

        Definition                    Value    dE/dq     Step     New-Value
    ----------------------------------------------------------------------------
     1. B(C   1,C   0)                1.5112  0.001099 -0.0014    1.5097   
     2. B(C   2,C   1)                1.4389 -0.032641  0.0225    1.4613   
     3. B(H   3,C   0)                1.1093 -0.000223  0.0003    1.1096   
     4. B(H   4,C   0)                1.1084  0.000182 -0.0003    1.1081   
     5. B(H   5,C   0)                1.1127 -0.000431  0.0007    1.1134   
     6. B(H   6,C   1)                1.0992 -0.021422  0.0245    1.1238   
     7. B(H   6,C   2)                1.3872 -0.047553 -0.0000    1.3872 C 
     8. B(H   7,C   1)                1.1048 -0.000076  0.0001    1.1049   
     9. B(H   8,C   2)                1.1030  0.000077 -0.0001    1.1029   
    10. B(H   9,C   2)                1.1010  0.000421 -0.0006    1.1004   
    11. A(H   4,C   0,H   5)          107.75  0.000047    0.00    107.76   
    12. A(C   1,C   0,H   4)          111.84 -0.000007    0.01    111.85   
    13. A(C   1,C   0,H   3)          111.25 -0.000167    0.03    111.28   
    14. A(H   3,C   0,H   5)          107.16  0.000247   -0.07    107.09   
    15. A(C   1,C   0,H   5)          110.64 -0.000166    0.03    110.67   
    16. A(H   3,C   0,H   4)          108.01  0.000068   -0.00    108.00   
    17. A(C   0,C   1,C   2)          121.90  0.007270   -0.44    121.46   
    18. A(C   0,C   1,H   6)          119.29  0.005533   -0.18    119.11   
    19. A(C   2,C   1,H   6)           64.65 -0.008888   -1.35     63.30   
    20. A(C   0,C   1,H   7)          115.36 -0.003601    0.59    115.95   
    21. A(C   2,C   1,H   7)          114.75 -0.002202    0.41    115.17   
    22. A(H   6,C   1,H   7)          110.94  0.000649    0.12    111.06   
    23. A(C   1,C   2,H   8)          118.63 -0.000586    0.22    118.84   
    24. A(C   1,C   2,H   9)          119.29 -0.000243    0.16    119.44   
    25. A(H   8,C   2,H   9)          117.06  0.000516    0.05    117.11   
    26. D(H   7,C   1,C   0,H   4)     53.13  0.000641   -0.55     52.58   
    27. D(C   2,C   1,C   0,H   4)   -159.63  0.002430    0.66   -158.97   
    28. D(C   2,C   1,C   0,H   3)    -38.76  0.002395    0.68    -38.08   
    29. D(H   7,C   1,C   0,H   3)    174.01  0.000606   -0.53    173.48   
    30. D(H   6,C   1,C   0,H   3)     38.00 -0.002817   -1.29     36.72   
    31. D(H   6,C   1,C   0,H   5)    157.00 -0.002724   -1.34    155.66   
    32. D(H   7,C   1,C   0,H   5)    -66.99  0.000699   -0.59    -67.58   
    33. D(H   6,C   1,C   0,H   4)    -82.87 -0.002782   -1.31    -84.18   
    34. D(C   2,C   1,C   0,H   5)     80.24  0.002489    0.63     80.87   
    35. D(H   9,C   2,C   1,H   7)    -26.16  0.000571    1.39    -24.77   
    36. D(H   8,C   2,C   1,H   6)    -77.82 -0.000467   -0.16    -77.98   
    37. D(H   8,C   2,C   1,H   7)    179.64  0.001196    0.35    179.99   
    38. D(H   9,C   2,C   1,C   0)   -173.58 -0.000764    0.13   -173.45   
    39. D(H   8,C   2,C   1,C   0)     32.22 -0.000139   -0.91     31.31   
    40. D(H   9,C   2,C   1,H   6)     76.38 -0.001091    0.88     77.26   
    ----------------------------------------------------------------------------

         *************************************************************
         *                GEOMETRY OPTIMIZATION CYCLE   2            *
         *************************************************************
---------------------------------
CARTESIAN COORDINATES (ANGSTROEM)
---------------------------------
  C     -1.248987    0.093773   -0.009772
  C      0.136387   -0.503504    0.047253
  C      1.322350    0.289554   -0.270114
  H     -1.252189    1.139502    0.361353
  H     -1.973560   -0.486605    0.595287
  H     -1.623864    0.117387   -1.057891
  H      0.810790   -0.238360    0.906345
  H      0.210217   -1.578166   -0.198607
  H      1.314335    1.370195   -0.049802
  H      2.304423   -0.203875   -0.324052

----------------------------
CARTESIAN COORDINATES (A.U.)
----------------------------
  NO LB      ZA    FRAG     MASS         X           Y           Z
   0 C     6.0000    0    12.011   -2.360244    0.177204   -0.018467
   1 C     6.0000    0    12.011    0.257735   -0.951485    0.089296
   2 C     6.0000    0    12.011    2.498879    0.547178   -0.510442
   3 H     1.0000    0     1.008   -2.366294    2.153346    0.682859
   4 H     1.0000    0     1.008   -3.729488   -0.919551    1.124929
   5 H     1.0000    0     1.008   -3.068659    0.221828   -1.999125
   6 H     1.0000    0     1.008    1.532170   -0.450435    1.712745
   7 H     1.0000    0     1.008    0.397252   -2.982301   -0.375314
   8 H     1.0000    0     1.008    2.483733    2.589293   -0.094111
   9 H     1.0000    0     1.008    4.354728   -0.385267   -0.612369

--------------------------------
INTERNAL COORDINATES (ANGSTROEM)
--------------------------------
 C      0   0   0     0.000000000000     0.00000000     0.00000000
 C      1   0   0     1.509719855695     0.00000000     0.00000000
 C      2   1   0     1.461564167676   121.44849344     0.00000000
 H      1   2   3     1.109636727697   111.27532194   321.91342986
 H      1   2   3     1.108124794572   111.85062814   201.01633023
 H      1   2   3     1.113393088920   110.66572071    80.85675002
 H      2   1   3     1.123903423170   119.08924909    74.81439800
 H      2   1   3     1.104896680123   115.95764219   211.56086288
 H      3   2   1     1.102898535710   118.84134870    31.31352255
 H      3   2   1     1.100385755933   119.44044109   186.55857476

---------------------------
INTERNAL COORDINATES (A.U.)
---------------------------
 C      0   0   0     0.000000000000     0.00000000     0.00000000
 C      1   0   0     2.852957066207     0.00000000     0.00000000
 C      2   1   0     2.761956004061   121.44849344     0.00000000
 H      1   2   3     2.096909523487   111.27532194   321.91342986
 H      1   2   3     2.094052383950   111.85062814   201.01633023
 H      1   2   3     2.104008017459   110.66572071    80.85675002
 H      2   1   3     2.123869670768   119.08924909    74.81439800
 H      2   1   3     2.087952131711   115.95764219   211.56086288
 H      3   2   1     2.084176185995   118.84134870    31.31352255
 H      3   2   1     2.079427720382   119.44044109   186.55857476

[1589382383.142582] [ty2019:11295:0]            sys.c:618  UCX  ERROR shmget(size=2097152 flags=0xfb0) for mm_recv_desc failed: Operation not permitted, please check shared memory limits by 'ipcs -l'
[1589382383.148095] [ty2019:11293:0]            sys.c:618  UCX  ERROR shmget(size=2097152 flags=0xfb0) for mm_recv_desc failed: Operation not permitted, please check shared memory limits by 'ipcs -l'
[1589382383.156932] [ty2019:11296:0]            sys.c:618  UCX  ERROR shmget(size=2097152 flags=0xfb0) for mm_recv_desc failed: Operation not permitted, please check shared memory limits by 'ipcs -l'
[1589382383.157593] [ty2019:11294:0]            sys.c:618  UCX  ERROR shmget(size=2097152 flags=0xfb0) for mm_recv_desc failed: Operation not permitted, please check shared memory limits by 'ipcs -l'
[1589382383.164595] [ty2019:11293:0]            sys.c:618  UCX  ERROR shmget(size=2097152 flags=0xb80) for ucp_am_bufs failed: Operation not permitted, please check shared memory limits by 'ipcs -l'
[1589382383.165247] [ty2019:11294:0]            sys.c:618  UCX  ERROR shmget(size=2097152 flags=0xb80) for ucp_am_bufs failed: Operation not permitted, please check shared memory limits by 'ipcs -l'
[1589382383.165891] [ty2019:11295:0]            sys.c:618  UCX  ERROR shmget(size=2097152 flags=0xb80) for ucp_am_bufs failed: Operation not permitted, please check shared memory limits by 'ipcs -l'


           ************************************************************
           *        Program running with 4 parallel MPI-processes     *
           *              working on a common directory               *
           ************************************************************
 One Electron integrals                  [1589382383.199677] [ty2019:11296:0]            sys.c:618  UCX  ERROR shmget(size=2097152 flags=0xb80) for ucp_am_bufs failed: Operation not permitted, please check shared memory limits by 'ipcs -l'
... done
 Pre-screening matrix                    ... done
[1589382384.158866] [ty2019:11316:0]            sys.c:618  UCX  ERROR shmget(size=2097152 flags=0xfb0) for mm_recv_desc failed: Operation not permitted, please check shared memory limits by 'ipcs -l'
[1589382384.167703] [ty2019:11317:0]            sys.c:618  UCX  ERROR shmget(size=2097152 flags=0xfb0) for mm_recv_desc failed: Operation not permitted, please check shared memory limits by 'ipcs -l'
[1589382384.168676] [ty2019:11315:0]            sys.c:618  UCX  ERROR shmget(size=2097152 flags=0xfb0) for mm_recv_desc failed: Operation not permitted, please check shared memory limits by 'ipcs -l'
[1589382384.168688] [ty2019:11318:0]            sys.c:618  UCX  ERROR shmget(size=2097152 flags=0xfb0) for mm_recv_desc failed: Operation not permitted, please check shared memory limits by 'ipcs -l'
[1589382384.175962] [ty2019:11316:0]            sys.c:618  UCX  ERROR shmget(size=2097152 flags=0xb80) for ucp_am_bufs failed: Operation not permitted, please check shared memory limits by 'ipcs -l'
[1589382384.176246] [ty2019:11315:0]            sys.c:618  UCX  ERROR shmget(size=2097152 flags=0xb80) for ucp_am_bufs failed: Operation not permitted, please check shared memory limits by 'ipcs -l'
[1589382384.176657] [ty2019:11318:0]            sys.c:618  UCX  ERROR shmget(size=2097152 flags=0xb80) for ucp_am_bufs failed: Operation not permitted, please check shared memory limits by 'ipcs -l'
[1589382384.177001] [ty2019:11317:0]            sys.c:618  UCX  ERROR shmget(size=2097152 flags=0xb80) for ucp_am_bufs failed: Operation not permitted, please check shared memory limits by 'ipcs -l'


           ************************************************************
           *        Program running with 4 parallel MPI-processes     *
           *              working on a common directory               *
           ************************************************************

Diagonalization of the overlap matrix:
Smallest eigenvalue                        ... 3.337e-03
Time for diagonalization                   ...    0.001 sec
Threshold for overlap eigenvalues          ... 1.000e-08
Number of eigenvalues below threshold      ... 0
Time for construction of square roots      ...    0.001 sec
Total time needed                          ...    0.002 sec

-------------------
DFT GRID GENERATION
-------------------

General Integration Accuracy     IntAcc      ...  4.340
Radial Grid Type                 RadialGrid  ... Gauss-Chebyshev
Angular Grid (max. acc.)         AngularGrid ... Lebedev-110
Angular grid pruning method      GridPruning ... 3 (G Style)
Weight generation scheme         WeightScheme... Becke
Basis function cutoff            BFCut       ...    1.0000e-11
Integration weight cutoff        WCut        ...    1.0000e-14
Grids for H and He will be reduced by one unit

# of grid points (after initial pruning)     ...  10526 (   0.0 sec)
# of grid points (after weights+screening)   ...  10029 (   0.0 sec)
nearest neighbour list constructed           ...    0.0 sec
Grid point re-assignment to atoms done       ...    0.0 sec
Grid point division into batches done        ...    0.0 sec
Reduced shell lists constructed in    0.0 sec

Total number of grid points                  ...    10029
Total number of batches                      ...      161
Average number of points per batch           ...       62
Average number of grid points per atom       ...     1003
Average number of shells per batch           ...    35.74 (91.64%)
Average number of basis functions per batch  ...    70.60 (91.68%)
Average number of large shells per batch     ...    33.17 (92.80%)
Average number of large basis fcns per batch ...    65.17 (92.31%)
Maximum spatial batch extension              ...  15.42, 15.16, 18.67 au
Average spatial batch extension              ...   0.68,  0.66,  0.79 au

Time for grid setup =    0.029 sec


--------------------
CPCM SOLVATION MODEL
--------------------
CPCM parameters:
  Epsilon                                         ...      80.4000
  Refrac                                          ...       1.3300
  Rsolv                                           ...       1.3000
  Surface type                                    ... GAUSSIAN VDW
  Epsilon function type                           ...         CPCM
Radii:
 Radius for C  used is    3.8550 Bohr (=   2.0400 Ang.)
 Radius for H  used is    2.4944 Bohr (=   1.3200 Ang.)
Calculating surface                               ...        done! (  0.0s)
GEPOL surface points                              ...          605
GEPOL Volume                                      ...     534.5551
GEPOL Surface-area                                ...     351.1076
Calculating surface distance matrix               ...        done! (  0.0s)
Performing Cholesky decomposition & store         ...        done! (  0.0s)
Overall time for CPCM initialization              ...                 0.0s
--------------
SCF ITERATIONS
--------------
ITER       Energy         Delta-E        Max-DP      RMS-DP      [F,P]     Damp
               ***  Starting incremental Fock matrix formation  ***
  0   -118.1541170539   0.000000000000 0.00168552  0.00007685  0.0067490 0.7000
  1   -118.1542139732  -0.000096919244 0.00151201  0.00007091  0.0045840 0.7000
                               ***Turning on DIIS***
  2   -118.1542838742  -0.000069901004 0.00428308  0.00019138  0.0031404 0.0000
  3   -118.1544447245  -0.000160850289 0.00366928  0.00009382  0.0008311 0.0000
  4   -118.1544491172  -0.000004392737 0.00063295  0.00002129  0.0008695 0.0000
  5   -118.1544512800  -0.000002162799 0.00042695  0.00001157  0.0003379 0.0000
  6   -118.1544516667  -0.000000386656 0.00010065  0.00000348  0.0000753 0.0000
[...]
  39   0.0000       0.815989        22.2042 
  40   0.0000       0.920710        25.0538 
  41   0.0000       1.127600        30.6836 
  42   0.0000       1.159111        31.5410 
  43   0.0000       1.290782        35.1240 
  44   0.0000       1.349333        36.7172 
  45   0.0000       1.452736        39.5310 
  46   0.0000       1.463648        39.8279 
  47   0.0000       1.483139        40.3583 
  48   0.0000       1.513048        41.1721 
  49   0.0000       1.601514        43.5794 
  50   0.0000       1.649419        44.8830 
  51   0.0000       1.669326        45.4247 
  52   0.0000       1.679878        45.7118 
  53   0.0000       1.720540        46.8183 
  54   0.0000       1.725286        46.9474 
  55   0.0000       1.758220        47.8436 
  56   0.0000       1.788858        48.6773 
  57   0.0000       1.866542        50.7912 
  58   0.0000       1.905151        51.8418 
  59   0.0000       1.996546        54.3288 
  60   0.0000       2.035590        55.3912 
  61   0.0000       2.142337        58.2960 
  62   0.0000       2.188036        59.5395 
  63   0.0000       2.220329        60.4182 
  64   0.0000       2.265577        61.6495 
  65   0.0000       2.308964        62.8301 
  66   0.0000       2.391035        65.0634 
  67   0.0000       2.407633        65.5150 
  68   0.0000       2.435047        66.2610 
  69   0.0000       2.536634        69.0253 
  70   0.0000       2.682549        72.9959 
  71   0.0000       2.743019        74.6413 
  72   0.0000       2.822051        76.7919 
  73   0.0000       2.850246        77.5591 
  74   0.0000       2.867326        78.0239 
  75   0.0000       2.930021        79.7299 
  76   0.0000       3.032695        82.5238 

                    ********************************
                    * MULLIKEN POPULATION ANALYSIS *
                    ********************************

--------------------------------------------
MULLIKEN ATOMIC CHARGES AND SPIN POPULATIONS
--------------------------------------------
   0 C :   -0.017121   -0.020344
   1 C :   -0.129061    0.262455
   2 C :   -0.201919    0.823353
   3 H :    0.032059    0.003048
   4 H :    0.039309    0.000459
   5 H :    0.035975    0.031610
   6 H :    0.078404   -0.020529
   7 H :    0.053653   -0.005680
   8 H :    0.055775   -0.037481
   9 H :    0.052926   -0.036891
Sum of atomic charges         :   -0.0000000
Sum of atomic spin populations:    1.0000000

-----------------------------------------------------
MULLIKEN REDUCED ORBITAL CHARGES AND SPIN POPULATIONS
-----------------------------------------------------
CHARGE
  0 C s       :     3.006709  s :     3.006709
      pz      :     1.016462  p :     2.985132
      px      :     0.965325
      py      :     1.003345
      dz2     :     0.005026  d :     0.025279
      dxz     :     0.006340
      dyz     :     0.003164
      dx2y2   :     0.005731
      dxy     :     0.005019
  1 C s       :     3.121775  s :     3.121775
      pz      :     1.068639  p :     2.970317
      px      :     0.914387
      py      :     0.987291
      dz2     :     0.004559  d :     0.036968
      dxz     :     0.010076
      dyz     :     0.003050
      dx2y2   :     0.010031
      dxy     :     0.009252
  2 C s       :     3.200645  s :     3.200645
      pz      :     1.101109  p :     2.976832
      px      :     0.934640
      py      :     0.941082
      dz2     :     0.004090  d :     0.024443
      dxz     :     0.003959
      dyz     :     0.003297
      dx2y2   :     0.007108
      dxy     :     0.005987
  3 H s       :     0.944834  s :     0.944834
      pz      :     0.006473  p :     0.023108
      px      :     0.004405
      py      :     0.012229
  4 H s       :     0.937886  s :     0.937886
      pz      :     0.007388  p :     0.022805
      px      :     0.008147
      py      :     0.007270
  5 H s       :     0.941093  s :     0.941093
      pz      :     0.012394  p :     0.022933
      px      :     0.005235
      py      :     0.005304
  6 H s       :     0.882022  s :     0.882022
      pz      :     0.016837  p :     0.039574
      px      :     0.012947
      py      :     0.009791
  7 H s       :     0.923690  s :     0.923690
      pz      :     0.006108  p :     0.022657
      px      :     0.003324
      py      :     0.013224
  8 H s       :     0.920163  s :     0.920163
      pz      :     0.006406  p :     0.024061
      px      :     0.004085
      py      :     0.013571
  9 H s       :     0.923162  s :     0.923162
      pz      :     0.006574  p :     0.023912
      px      :     0.011691
      py      :     0.005646

SPIN
  0 C s       :    -0.009272  s :    -0.009272
      pz      :    -0.006622  p :    -0.013161
      px      :    -0.005314
      py      :    -0.001225
      dz2     :     0.000338  d :     0.002090
      dxz     :     0.001304
      dyz     :     0.000428
      dx2y2   :     0.000012
      dxy     :     0.000008
  1 C s       :     0.040007  s :     0.040007
      pz      :     0.226347  p :     0.220093
      px      :    -0.004802
      py      :    -0.001451
      dz2     :     0.002077  d :     0.002354
      dxz     :    -0.000083
      dyz     :     0.000310
      dx2y2   :     0.000161
      dxy     :    -0.000111
  2 C s       :     0.055044  s :     0.055044
      pz      :     0.711556  p :     0.769296
      px      :     0.022780
      py      :     0.034961
      dz2     :    -0.001798  d :    -0.000988
      dxz     :     0.000634
      dyz     :     0.000216
      dx2y2   :     0.000115
      dxy     :    -0.000155
  3 H s       :     0.003106  s :     0.003106
      pz      :    -0.000009  p :    -0.000058
      px      :    -0.000024
      py      :    -0.000026
  4 H s       :     0.000530  s :     0.000530
      pz      :    -0.000020  p :    -0.000071
      px      :    -0.000030
      py      :    -0.000021
  5 H s       :     0.031687  s :     0.031687
      pz      :    -0.000174  p :    -0.000078
      px      :     0.000023
      py      :     0.000073
  6 H s       :    -0.031144  s :    -0.031144
      pz      :     0.000177  p :     0.010615
      px      :     0.007258
      py      :     0.003181
  7 H s       :    -0.007156  s :    -0.007156
      pz      :     0.001390  p :     0.001476
      px      :     0.000010
      py      :     0.000076
  8 H s       :    -0.041835  s :    -0.041835
      pz      :     0.004189  p :     0.004354
      px      :    -0.000076
      py      :     0.000241
  9 H s       :    -0.041179  s :    -0.041179
      pz      :     0.004234  p :     0.004288
      px      :     0.000103
      py      :    -0.000050


                     *******************************
                     * LOEWDIN POPULATION ANALYSIS *
                     *******************************

-------------------------------------------
LOEWDIN ATOMIC CHARGES AND SPIN POPULATIONS
-------------------------------------------
   0 C :   -0.075075    0.003991
   1 C :   -0.080619    0.228144
   2 C :   -0.123587    0.681519
   3 H :    0.036274    0.003936
   4 H :    0.034017    0.000649
   5 H :    0.030562    0.023417
   6 H :    0.087801    0.043297
   7 H :    0.037441    0.007885
   8 H :    0.025961    0.003571
   9 H :    0.027225    0.003591

----------------------------------------------------
LOEWDIN REDUCED ORBITAL CHARGES AND SPIN POPULATIONS
----------------------------------------------------
CHARGE
  0 C s       :     2.848297  s :     2.848297
      pz      :     1.068829  p :     3.156894
      px      :     1.024624
      py      :     1.063441
      dz2     :     0.014901  d :     0.069884
      dxz     :     0.016009
      dyz     :     0.008912
      dx2y2   :     0.015839
      dxy     :     0.014223
  1 C s       :     2.846543  s :     2.846543
      pz      :     1.100432  p :     3.140811
      px      :     0.989711
      py      :     1.050667
      dz2     :     0.010343  d :     0.093265
      dxz     :     0.023871
      dyz     :     0.007695
      dx2y2   :     0.027261
      dxy     :     0.024096
  2 C s       :     2.913465  s :     2.913465
      pz      :     1.082249  p :     3.144273
      px      :     1.027795
      py      :     1.034230
      dz2     :     0.009141  d :     0.065848
      dxz     :     0.009966
      dyz     :     0.008200
      dx2y2   :     0.020670
      dxy     :     0.017871
  3 H s       :     0.899860  s :     0.899860
      pz      :     0.016101  p :     0.063866
      px      :     0.011751
      py      :     0.036014
  4 H s       :     0.902319  s :     0.902319
      pz      :     0.019325  p :     0.063664
      px      :     0.024494
      py      :     0.019844
  5 H s       :     0.905247  s :     0.905247
      pz      :     0.037066  p :     0.064191
      px      :     0.014672
      py      :     0.012453
  6 H s       :     0.777547  s :     0.777547
      pz      :     0.054671  p :     0.134652
      px      :     0.050204
      py      :     0.029777
  7 H s       :     0.893190  s :     0.893190
      pz      :     0.019283  p :     0.069369
      px      :     0.010300
      py      :     0.039786
  8 H s       :     0.898203  s :     0.898203
      pz      :     0.023166  p :     0.075836
      px      :     0.010761
      py      :     0.041908
  9 H s       :     0.896746  s :     0.896746
      pz      :     0.023434  p :     0.076030
      px      :     0.036097
      py      :     0.016498

SPIN
  0 C s       :     0.001071  s :     0.001071
      pz      :    -0.002765  p :    -0.003248
      px      :    -0.000757
      py      :     0.000274
      dz2     :     0.001119  d :     0.006168
      dxz     :     0.003608
      dyz     :     0.001156
      dx2y2   :     0.000182
      dxy     :     0.000102
  1 C s       :     0.010897  s :     0.010897
      pz      :     0.208684  p :     0.210551
      px      :     0.000722
      py      :     0.001145
      dz2     :     0.004362  d :     0.006696
      dxz     :     0.000502
      dyz     :     0.001329
      dx2y2   :     0.000335
      dxy     :     0.000168
  2 C s       :     0.021236  s :     0.021236
      pz      :     0.624448  p :     0.658312
      px      :     0.017205
      py      :     0.016658
      dz2     :    -0.001052  d :     0.001971
      dxz     :     0.002578
      dyz     :     0.001449
      dx2y2   :    -0.000426
      dxy     :    -0.000578
  3 H s       :     0.004109  s :     0.004109
      pz      :    -0.000018  p :    -0.000173
      px      :    -0.000064
      py      :    -0.000091
  4 H s       :     0.000879  s :     0.000879
      pz      :    -0.000096  p :    -0.000230
      px      :    -0.000079
      py      :    -0.000055
  5 H s       :     0.022457  s :     0.022457
      pz      :     0.000075  p :     0.000960
      px      :     0.000569
      py      :     0.000315
  6 H s       :    -0.008733  s :    -0.008733
      pz      :     0.003347  p :     0.052030
      px      :     0.033389
      py      :     0.015295
  7 H s       :    -0.000203  s :    -0.000203
      pz      :     0.007300  p :     0.008089
      px      :     0.000189
      py      :     0.000599
  8 H s       :    -0.017916  s :    -0.017916
      pz      :     0.018638  p :     0.021487
      px      :     0.000281
      py      :     0.002568
  9 H s       :    -0.017937  s :    -0.017937
      pz      :     0.018850  p :     0.021528
      px      :     0.001812
      py      :     0.000866


                      *****************************
                      * MAYER POPULATION ANALYSIS *
                      *****************************

  NA   - Mulliken gross atomic population
  ZA   - Total nuclear charge
  QA   - Mulliken gross atomic charge
  VA   - Mayer's total valence
  BVA  - Mayer's bonded valence
  FA   - Mayer's free valence

  ATOM       NA         ZA         QA         VA         BVA        FA
  0 C      6.0171     6.0000    -0.0171     3.9816     3.9813     0.0003
  1 C      6.1291     6.0000    -0.1291     3.9848     3.9103     0.0745
  2 C      6.2019     6.0000    -0.2019     3.7696     3.2522     0.5174
  3 H      0.9679     1.0000     0.0321     0.9908     0.9908     0.0000
  4 H      0.9607     1.0000     0.0393     0.9851     0.9851     0.0000
  5 H      0.9640     1.0000     0.0360     0.9839     0.9828     0.0011
  6 H      0.9216     1.0000     0.0784     1.0214     1.0193     0.0020
  7 H      0.9463     1.0000     0.0537     0.9794     0.9793     0.0001
  8 H      0.9442     1.0000     0.0558     0.9913     0.9895     0.0018
  9 H      0.9471     1.0000     0.0529     0.9857     0.9839     0.0018

  Mayer bond orders larger than 0.100000
B(  0-C ,  1-C ) :   1.1096 B(  0-C ,  3-H ) :   0.9564 B(  0-C ,  4-H ) :   0.9622 
B(  0-C ,  5-H ) :   0.9548 B(  1-C ,  2-C ) :   1.0510 B(  1-C ,  6-H ) :   0.7513 
B(  1-C ,  7-H ) :   0.9488 B(  2-C ,  6-H ) :   0.2482 B(  2-C ,  8-H ) :   0.9646 
B(  2-C ,  9-H ) :   0.9630 


------------------
HIRSHFELD ANALYSIS
------------------

Total integrated alpha density =     13.001872118
Total integrated beta density  =     12.000038953

  ATOM     CHARGE      SPIN    
   0 C   -0.073571    0.024187
   1 C   -0.052167    0.224384
   2 C   -0.108976    0.565129
   3 H    0.033685    0.003920
   4 H    0.029594    0.002345
   5 H    0.024810    0.022069
   6 H    0.056064    0.056962
   7 H    0.037528    0.019895
   8 H    0.024338    0.041899
   9 H    0.026784    0.041044

  TOTAL  -0.001911    1.001833

-------
TIMINGS
-------

Total SCF time: 0 days 0 hours 0 min 3 sec 

Total time                  ....       3.324 sec
Sum of individual times     ....       3.121 sec  ( 93.9%)

Fock matrix formation       ....       2.899 sec  ( 87.2%)
  Split-RI-J                ....       0.780 sec  ( 26.9% of F)
  XC integration            ....       0.288 sec  (  9.9% of F)
    Basis function eval.    ....       0.085 sec  ( 29.5% of XC)
    Density eval.           ....       0.060 sec  ( 20.7% of XC)
    XC-Functional eval.     ....       0.026 sec  (  9.1% of XC)
    XC-Potential eval.      ....       0.093 sec  ( 32.4% of XC)
Diagonalization             ....       0.013 sec  (  0.4%)
Density matrix formation    ....       0.001 sec  (  0.0%)
Population analysis         ....       0.027 sec  (  0.8%)
Initial guess               ....       0.003 sec  (  0.1%)
Orbital Transformation      ....       0.000 sec  (  0.0%)
Orbital Orthonormalization  ....       0.001 sec  (  0.0%)
DIIS solution               ....       0.004 sec  (  0.1%)
Grid generation             ....       0.175 sec  (  5.3%)


-------------------------------------------------------------------------------
                          DFT DISPERSION CORRECTION                            
                                                                               
                              DFTD3 V3.1  Rev 1                                
                          USING Becke-Johnson damping                          
-------------------------------------------------------------------------------
The PBE functional is recognized
Active option DFTDOPT                   ...         4   

molecular C6(AA) [au] = 639.515455 


            DFT-D V3
 parameters
 s6 scaling factor         :     1.0000 
 a1 scaling factor         :     0.4289 
 s8 scaling factor         :     0.7875 
 a2 scaling factor         :     4.4407 
 ad hoc parameters k1-k3   :    16.0000     1.3333    -4.0000 

 Edisp/kcal,au: -3.253669562790  -0.005185051940 
 E6   /kcal   :  -2.368869652 
 E8   /kcal   :  -0.884799911 
 % E8         :  27.193908100 

-------------------------   ----------------
Dispersion correction           -0.005185052
-------------------------   ----------------


-------------------------   --------------------
FINAL SINGLE POINT ENERGY      -118.159878094495
-------------------------   --------------------

                                *** OPTIMIZATION RUN DONE ***

                            ***************************************
                            *     ORCA property calculations      *
                            ***************************************

                                    ---------------------
                                    Active property flags
                                    ---------------------
   (+) Dipole Moment


------------------------------------------------------------------------------
                       ORCA ELECTRIC PROPERTIES CALCULATION
------------------------------------------------------------------------------

Dipole Moment Calculation                       ... on
Quadrupole Moment Calculation                   ... off
Polarizability Calculation                      ... off
GBWName                                         ... m-mfaV_2-6_hl1d_fbond_scan_8_orca.gbw
Electron density file                           ... m-mfaV_2-6_hl1d_fbond_scan_8_orca.scfp
The origin for moment calculation is the CENTER OF MASS  = ( 0.100734, -0.072014 -0.093194)

-------------
DIPOLE MOMENT
-------------
                                X             Y             Z
Electronic contribution:      0.47442      -0.45251      -0.23870
Nuclear contribution   :     -0.54602       0.39017       0.50506
                        -----------------------------------------
Total Dipole Moment    :     -0.07160      -0.06234       0.26636
                        -----------------------------------------
Magnitude (a.u.)       :      0.28277
Magnitude (Debye)      :      0.71875



--------------------
Rotational spectrum 
--------------------
 
Rotational constants in cm-1:     1.253402     0.286045     0.253095 
Rotational constants in MHz : 37576.044139  8575.403833  7587.596669 

 Dipole components along the rotational axes: 
x,y,z [a.u.] :    -0.094086     0.096836     0.248456 
x,y,z [Debye]:    -0.239147     0.246138     0.631526 

 
[1589382424.255809] [ty2019:11700:0]            sys.c:618  UCX  ERROR shmget(size=2097152 flags=0xfb0) for mm_recv_desc failed: Operation not permitted, please check shared memory limits by 'ipcs -l'
[1589382424.256045] [ty2019:11698:0]            sys.c:618  UCX  ERROR shmget(size=2097152 flags=0xfb0) for mm_recv_desc failed: Operation not permitted, please check shared memory limits by 'ipcs -l'
[1589382424.258765] [ty2019:11697:0]            sys.c:618  UCX  ERROR shmget(size=2097152 flags=0xfb0) for mm_recv_desc failed: Operation not permitted, please check shared memory limits by 'ipcs -l'
[1589382424.259727] [ty2019:11699:0]            sys.c:618  UCX  ERROR shmget(size=2097152 flags=0xfb0) for mm_recv_desc failed: Operation not permitted, please check shared memory limits by 'ipcs -l'
[1589382424.266251] [ty2019:11700:0]            sys.c:618  UCX  ERROR shmget(size=2097152 flags=0xb80) for ucp_am_bufs failed: Operation not permitted, please check shared memory limits by 'ipcs -l'
[1589382424.266526] [ty2019:11697:0]            sys.c:618  UCX  ERROR shmget(size=2097152 flags=0xb80) for ucp_am_bufs failed: Operation not permitted, please check shared memory limits by 'ipcs -l'
[1589382424.266973] [ty2019:11699:0]            sys.c:618  UCX  ERROR shmget(size=2097152 flags=0xb80) for ucp_am_bufs failed: Operation not permitted, please check shared memory limits by 'ipcs -l'
[1589382424.268554] [ty2019:11698:0]            sys.c:618  UCX  ERROR shmget(size=2097152 flags=0xb80) for ucp_am_bufs failed: Operation not permitted, please check shared memory limits by 'ipcs -l'

Timings for individual modules:

Sum of individual times         ...       48.108 sec (=   0.802 min)
GTO integral calculation        ...        7.080 sec (=   0.118 min)  14.7 %
SCF iterations                  ...       30.910 sec (=   0.515 min)  64.3 %
SCF Gradient evaluation         ...        9.741 sec (=   0.162 min)  20.2 %
Geometry relaxation             ...        0.377 sec (=   0.006 min)   0.8 %
                             ****ORCA TERMINATED NORMALLY****
TOTAL RUN TIME: 0 days 0 hours 0 minutes 49 seconds 603 msec
