
                                 *****************
                                 * O   R   C   A *
                                 *****************

           --- An Ab Initio, DFT and Semiempirical electronic structure package ---

                  #######################################################
                  #                        -***-                        #
                  #          Department of theory and spectroscopy      #
                  #               Directorship: Frank Neese             #
                  #        Max Planck Institute fuer Kohlenforschung    #
                  #                Kaiser Wilhelm Platz 1               #
                  #                 D-45470 Muelheim/Ruhr               #
                  #                      Germany                        #
                  #                                                     #
                  #                  All rights reserved                #
                  #                        -***-                        #
                  #######################################################


                         Program Version 4.2.1 -  RELEASE  -


 With contributions from (in alphabetic order):
   Daniel Aravena         : Magnetic Suceptibility
   Michael Atanasov       : Ab Initio Ligand Field Theory (pilot matlab implementation)
   Alexander A. Auer      : GIAO ZORA, VPT2
   Ute Becker             : Parallelization
   Giovanni Bistoni       : ED, misc. LED, open-shell LED, HFLD
   Martin Brehm           : Molecular dynamics
   Dmytro Bykov           : SCF Hessian
   Vijay G. Chilkuri      : MRCI spin determinant printing, contributions to CSF-ICE
   Dipayan Datta          : RHF DLPNO-CCSD density
   Achintya Kumar Dutta   : EOM-CC, STEOM-CC
   Dmitry Ganyushin       : Spin-Orbit,Spin-Spin,Magnetic field MRCI
   Miquel Garcia          : C-PCM Hessian, Gaussian charge scheme
   Yang Guo               : DLPNO-NEVPT2, CIM, IAO-localization
   Andreas Hansen         : Spin unrestricted coupled pair/coupled cluster methods
   Benjamin Helmich-Paris : CASSCF linear response (MC-RPA)
   Lee Huntington         : MR-EOM, pCC
   Robert Izsak           : Overlap fitted RIJCOSX, COSX-SCS-MP3, EOM
   Christian Kollmar      : KDIIS, OOCD, Brueckner-CCSD(T), CCSD density
   Simone Kossmann        : Meta GGA functionals, TD-DFT gradient, OOMP2, MP2 Hessian
   Martin Krupicka        : AUTO-CI
   Lucas Lang             : DCDCAS
   Dagmar Lenk            : GEPOL surface, SMD
   Dimitrios Liakos       : Extrapolation schemes; Compound Job, initial MDCI parallelization
   Dimitrios Manganas     : Further ROCIS development; embedding schemes
   Dimitrios Pantazis     : SARC Basis sets
   Taras Petrenko         : DFT Hessian,TD-DFT gradient, ASA, ECA, R-Raman, ABS, FL, XAS/XES, NRVS
   Peter Pinski           : DLPNO-MP2, DLPNO-MP2 Gradient
   Christoph Reimann      : Effective Core Potentials
   Marius Retegan         : Local ZFS, SOC
   Christoph Riplinger    : Optimizer, TS searches, QM/MM, DLPNO-CCSD(T), (RO)-DLPNO pert. Triples
   Tobias Risthaus        : Range-separated hybrids, TD-DFT gradient, RPA, STAB
   Michael Roemelt        : Original ROCIS implementation
   Masaaki Saitow         : Open-shell DLPNO-CCSD energy and density
   Barbara Sandhoefer     : DKH picture change effects
   Avijit Sen             : IP-ROCIS
   Kantharuban Sivalingam : CASSCF convergence, NEVPT2, FIC-MRCI
   Bernardo de Souza      : ESD, SOC TD-DFT
   Georgi Stoychev        : AutoAux, RI-MP2 NMR
   Willem Van den Heuvel  : Paramagnetic NMR
   Boris Wezisla          : Elementary symmetry handling
   Frank Wennmohs         : Technical directorship


 We gratefully acknowledge several colleagues who have allowed us to
 interface, adapt or use parts of their codes:
   Stefan Grimme, W. Hujo, H. Kruse,             : VdW corrections, initial TS optimization,
                  C. Bannwarth                     DFT functionals, gCP, sTDA/sTD-DF
   Ed Valeev, F. Pavosevic, A. Kumar             : LibInt (2-el integral package), F12 methods
   Garnet Chan, S. Sharma, J. Yang, R. Olivares  : DMRG
   Ulf Ekstrom                                   : XCFun DFT Library
   Mihaly Kallay                                 : mrcc  (arbitrary order and MRCC methods)
   Andreas Klamt, Michael Diedenhofen            : otool_cosmo (COSMO solvation model)
   Jiri Pittner, Ondrej Demel                    : Mk-CCSD
   Frank Weinhold                                : gennbo (NPA and NBO analysis)
   Christopher J. Cramer and Donald G. Truhlar   : smd solvation model
   Lars Goerigk                                  : TD-DFT with DH, B97 family of functionals
   V. Asgeirsson, H. Jonsson                     : NEB implementation
   FAccTs GmbH                                   : IRC, NEB, NEB-TS, Multilevel, MM, QM/MM, CI optimization
   S Lehtola, MJT Oliveira, MAL Marques          : LibXC Library


 Your calculation uses the libint2 library for the computation of 2-el integrals
 For citations please refer to: http://libint.valeyev.net

 Your ORCA version has been built with support for libXC version: 4.2.3
 For citations please refer to: https://tddft.org/programs/libxc/

 This ORCA versions uses:
   CBLAS   interface :  Fast vector & matrix operations
   LAPACKE interface :  Fast linear algebra routines
   SCALAPACK package :  Parallel linear algebra routines


Your calculation utilizes the atom-pairwise dispersion correction
with the Becke-Johnson damping scheme (D3BJ)
Cite in your paper:
S.Grimme, S.Ehrlich, L.Goerigk, J Comput Chem, (2011), 32, 1456–1465 
S.Grimme, J.Antony, S.Ehrlich and H.Krieg, J.Chem.Phys., 132, (2010), 154104 
   

----- Orbital basis set information -----
Your calculation utilizes the basis: def2-SVP
   F. Weigend and R. Ahlrichs, Phys. Chem. Chem. Phys. 7, 3297 (2005).

----- AuxJ basis set information -----
Your calculation utilizes the auxiliary basis: def2/J
   F. Weigend, Phys. Chem. Chem. Phys. 8, 1057 (2006).

================================================================================
                                        WARNINGS
                       Please study these warnings very carefully!
================================================================================


WARNING: your system is open-shell and RHF/RKS was chosen
  ===> : WILL SWITCH to UHF/UKS


WARNING: Geometry Optimization
  ===> : Switching off AutoStart
         For restart on a previous wavefunction, please use MOREAD

INFO   : the flag for use of LIBINT has been found!

================================================================================
                                       INPUT FILE
================================================================================
NAME = m-mfaV_2-6_hl1d_fbond_scan_7_orca.inp
|  1> ! LooseOpt PBE RI D3BJ def2-SVP def2/J CPCM(Water)
|  2> %cpcm
|  3>  surfacetype vdw_gaussian
|  4> end
|  5> %geom Constraints
|  6> { B 2 6 1.487243299223933 C }
|  7>     end
|  8> end
|  9> %geom MaxIter 100 end
| 10> %pal nprocs 4
| 11> end
| 12> %output 
| 13> xyzfile=True 
| 14> end 
| 15> %scf 
| 16> maxiter 250 
| 17> end
| 18> %output
| 19> Print[P_Hirshfeld] = 1
| 20> end
| 21> % maxcore
| 22> 4000
| 23> *xyz 0 2
| 24> C   -1.22913499   0.10006724  -0.00467398 
| 25> C    0.15700496  -0.50490349   0.07918895 
| 26> C    1.31837182   0.30079091  -0.30843845 
| 27> H   -1.23570136   1.14109423   0.37773406 
| 28> H   -1.96919121  -0.48317622   0.57868387 
| 29> H   -1.57904111   0.13329130  -1.05917631 
| 30> H    0.70587136  -0.32348600   1.01612294 
| 31> H    0.22603375  -1.57352002  -0.19762293 
| 32> H    1.29672223   1.38668866  -0.11316621 
| 33> H    2.30896456  -0.17694662  -0.36865195 
| 34> *
| 35> 
| 36>                          ****END OF INPUT****
================================================================================

                       *****************************
                       * Geometry Optimization Run *
                       *****************************

Geometry optimization settings:
Update method            Update   .... BFGS
Choice of coordinates    CoordSys .... Z-matrix Internals
Initial Hessian          InHess   .... Almoef's Model

Convergence Tolerances:
Energy Change            TolE     ....  3.0000e-05 Eh
Max. Gradient            TolMAXG  ....  2.0000e-03 Eh/bohr
RMS Gradient             TolRMSG  ....  5.0000e-04 Eh/bohr
Max. Displacement        TolMAXD  ....  1.0000e-02 bohr
RMS Displacement         TolRMSD  ....  7.0000e-03 bohr
Strict Convergence                ....  False
------------------------------------------------------------------------------
                        ORCA OPTIMIZATION COORDINATE SETUP
------------------------------------------------------------------------------

The optimization will be done in new redundant internal coordinates
Making redundant internal coordinates   ...  (new redundants) done
Evaluating the initial hessian          ...  (Almloef) done
Evaluating the coordinates              ...  done
Calculating the B-matrix                .... done
Calculating the G-matrix                .... done
Diagonalizing the G-matrix              .... done
Imposing constraints:
 Iter   0:  RMS(Cart)=    0.0244345208 RMS(Int)=    0.0601604054
 Iter   1:  RMS(Cart)=    0.0077788542 RMS(Int)=    0.0191740662
 Iter   2:  RMS(Cart)=    0.0024792430 RMS(Int)=    0.0061134209
 Iter   3:  RMS(Cart)=    0.0007904769 RMS(Int)=    0.0019494341
 Iter   4:  RMS(Cart)=    0.0002520655 RMS(Int)=    0.0006216561
 Iter   5:  RMS(Cart)=    0.0000803813 RMS(Int)=    0.0001982428
 Iter   6:  RMS(Cart)=    0.0000256332 RMS(Int)=    0.0000632188
 Iter   7:  RMS(Cart)=    0.0000081743 RMS(Int)=    0.0000201603
 Iter   8:  RMS(Cart)=    0.0000026068 RMS(Int)=    0.0000064290
 Iter   9:  RMS(Cart)=    0.0000008313 RMS(Int)=    0.0000020502
 Iter  10:  RMS(Cart)=    0.0000002651 RMS(Int)=    0.0000006538
 Iter  11:  RMS(Cart)=    0.0000000845 RMS(Int)=    0.0000002085
 Iter  12:  RMS(Cart)=    0.0000000270 RMS(Int)=    0.0000000665
CONVERGED
The first mode is                       ....   16
The number of degrees of freedom        ....   24
Storing new coordinates                 .... done

    -----------------------------------------------------------------
                    Redundant Internal Coordinates


    -----------------------------------------------------------------
         Definition                    Initial Value    Approx d2E/dq
    -----------------------------------------------------------------
      1. B(C   1,C   0)                  1.5149         0.395130   
      2. B(C   2,C   1)                  1.4313         0.473174   
      3. B(H   3,C   0)                  1.1091         0.335747   
      4. B(H   4,C   0)                  1.1084         0.336780   
      5. B(H   5,C   0)                  1.1117         0.332708   
      6. B(H   6,C   1)                  1.0813         0.345948   
      7. B(H   6,C   2)                  1.4872         0.057957 C 
      8. B(H   7,C   1)                  1.1060         0.339490   
      9. B(H   8,C   2)                  1.1036         0.342642   
     10. B(H   9,C   2)                  1.1015         0.345301   
     11. A(H   4,C   0,H   5)          107.7491         0.284276   
     12. A(C   1,C   0,H   4)          111.8213         0.323741   
     13. A(C   1,C   0,H   3)          111.1696         0.323578   
     14. A(H   3,C   0,H   5)          107.2835         0.284140   
     15. A(C   1,C   0,H   5)          110.6507         0.323096   
     16. A(H   3,C   0,H   4)          107.9798         0.284678   
     17. A(C   0,C   1,C   2)          121.1604         0.382125   
     18. A(C   0,C   1,H   6)          117.8988         0.325173   
     19. A(C   2,C   1,H   6)           71.0371         0.335007   
     20. A(C   0,C   1,H   7)          114.6643         0.324168   
     21. A(C   2,C   1,H   7)          114.3196         0.333960   
     22. A(H   6,C   1,H   7)          110.3004         0.286366   
     23. A(C   1,C   2,H   8)          118.5889         0.334473   
     24. A(C   1,C   2,H   9)          119.2730         0.334903   
     25. A(H   8,C   2,H   9)          117.0034         0.286695   
     26. D(H   7,C   1,C   0,H   4)     54.0885         0.012399   
     27. D(C   2,C   1,C   0,H   4)   -162.0844         0.012399   
     28. D(C   2,C   1,C   0,H   3)    -41.3119         0.012399   
     29. D(H   7,C   1,C   0,H   3)    174.8609         0.012399   
     30. D(H   6,C   1,C   0,H   3)     42.3993         0.012399   
     31. D(H   6,C   1,C   0,H   5)    161.5055         0.012399   
     32. D(H   7,C   1,C   0,H   5)    -66.0328         0.012399   
     33. D(H   6,C   1,C   0,H   4)    -78.3732         0.012399   
     34. D(C   2,C   1,C   0,H   5)     77.7944         0.012399   
     35. D(H   9,C   2,C   1,H   7)    -28.6636         0.017694   
     36. D(H   8,C   2,C   1,H   6)    -78.2781         0.017694   
     37. D(H   8,C   2,C   1,H   7)    177.4047         0.017694   
     38. D(H   9,C   2,C   1,C   0)   -172.6053         0.017694   
     39. D(H   8,C   2,C   1,C   0)     33.4630         0.017694   
     40. D(H   9,C   2,C   1,H   6)     75.6536         0.017694   
    -----------------------------------------------------------------

Number of atoms                         .... 10
Number of degrees of freedom            .... 40

         *************************************************************
         *                GEOMETRY OPTIMIZATION CYCLE   1            *
         *************************************************************
---------------------------------
CARTESIAN COORDINATES (ANGSTROEM)
---------------------------------
  C     -1.233851    0.099740   -0.005467
  C      0.161037   -0.486406    0.069613
  C      1.309986    0.287749   -0.289703
  H     -1.250300    1.143728    0.368710
  H     -1.960542   -0.488549    0.589802
  H     -1.594541    0.119978   -1.056800
  H      0.744889   -0.290756    0.958451
  H      0.227866   -1.555535   -0.205771
  H      1.300364    1.372529   -0.086887
  H      2.294992   -0.202578   -0.341948

----------------------------
CARTESIAN COORDINATES (A.U.)
----------------------------
  NO LB      ZA    FRAG     MASS         X           Y           Z
   0 C     6.0000    0    12.011   -2.331640    0.188481   -0.010331
   1 C     6.0000    0    12.011    0.304315   -0.919174    0.131549
   2 C     6.0000    0    12.011    2.475515    0.543766   -0.547460
   3 H     1.0000    0     1.008   -2.362724    2.161333    0.696761
   4 H     1.0000    0     1.008   -3.704887   -0.923223    1.114564
   5 H     1.0000    0     1.008   -3.013246    0.226725   -1.997062
   6 H     1.0000    0     1.008    1.407636   -0.549449    1.811211
   7 H     1.0000    0     1.008    0.430603   -2.939534   -0.388851
   8 H     1.0000    0     1.008    2.457332    2.593705   -0.164193
   9 H     1.0000    0     1.008    4.336906   -0.382817   -0.646189

--------------------------------
INTERNAL COORDINATES (ANGSTROEM)
--------------------------------
 C      0   0   0     0.000000000000     0.00000000     0.00000000
 C      1   0   0     1.514729855839     0.00000000     0.00000000
 C      2   1   0     1.465664167171   119.40117630     0.00000000
 H      1   2   3     1.109060963239   111.17511753   317.34256606
 H      1   2   3     1.108224942667   111.82401846   196.57467262
 H      1   2   3     1.111536456870   110.64233140    76.45377766
 H      2   1   3     1.100914134864   115.94669087    86.65142394
 H      2   1   3     1.106042982414   115.41256373   217.27891036
 H      3   2   1     1.103527922581   118.59309672    33.73910208
 H      3   2   1     1.101423074796   119.25334707   187.64952949

---------------------------
INTERNAL COORDINATES (A.U.)
---------------------------
 C      0   0   0     0.000000000000     0.00000000     0.00000000
 C      1   0   0     2.862424594410     0.00000000     0.00000000
 C      2   1   0     2.769703880255   119.40117630     0.00000000
 H      1   2   3     2.095821486344   111.17511753   317.34256606
 H      1   2   3     2.094241636422   111.82401846   196.57467262
 H      1   2   3     2.100499491354   110.64233140    76.45377766
 H      2   1   3     2.080426211857   115.94669087    86.65142394
 H      2   1   3     2.090118329108   115.41256373   217.27891036
 H      3   2   1     2.085365554814   118.59309672    33.73910208
 H      3   2   1     2.081387968946   119.25334707   187.64952949

---------------------
BASIS SET INFORMATION
---------------------
There are 2 groups of distinct atoms

 Group   1 Type C   : 7s4p1d contracted to 3s2p1d pattern {511/31/1}
 Group   2 Type H   : 4s1p contracted to 2s1p pattern {31/1}

Atom   0C    basis set group =>   1
Atom   1C    basis set group =>   1
Atom   2C    basis set group =>   1
Atom   3H    basis set group =>   2
Atom   4H    basis set group =>   2
Atom   5H    basis set group =>   2
Atom   6H    basis set group =>   2
Atom   7H    basis set group =>   2
Atom   8H    basis set group =>   2
Atom   9H    basis set group =>   2
---------------------------------
AUXILIARY/J BASIS SET INFORMATION
---------------------------------
There are 2 groups of distinct atoms

 Group   1 Type C   : 12s5p4d2f1g contracted to 6s4p3d1f1g pattern {711111/2111/211/2/1}
 Group   2 Type H   : 5s2p1d contracted to 3s1p1d pattern {311/2/1}

Atom   0C    basis set group =>   1
Atom   1C    basis set group =>   1
Atom   2C    basis set group =>   1
Atom   3H    basis set group =>   2
Atom   4H    basis set group =>   2
Atom   5H    basis set group =>   2
Atom   6H    basis set group =>   2
Atom   7H    basis set group =>   2
Atom   8H    basis set group =>   2
Atom   9H    basis set group =>   2
[1589382346.996872] [ty2019:10940:0]            sys.c:618  UCX  ERROR shmget(size=2097152 flags=0xfb0) for mm_recv_desc failed: Operation not permitted, please check shared memory limits by 'ipcs -l'
[1589382346.997445] [ty2019:10942:0]            sys.c:618  UCX  ERROR shmget(size=2097152 flags=0xfb0) for mm_recv_desc failed: Operation not permitted, please check shared memory limits by 'ipcs -l'
[1589382346.998096] [ty2019:10941:0]            sys.c:618  UCX  ERROR shmget(size=2097152 flags=0xfb0) for mm_recv_desc failed: Operation not permitted, please check shared memory limits by 'ipcs -l'
[1589382346.998337] [ty2019:10943:0]            sys.c:618  UCX  ERROR shmget(size=2097152 flags=0xfb0) for mm_recv_desc failed: Operation not permitted, please check shared memory limits by 'ipcs -l'
[1589382347.004677] [ty2019:10940:0]            sys.c:618  UCX  ERROR shmget(size=2097152 flags=0xb80) for ucp_am_bufs failed: Operation not permitted, please check shared memory limits by 'ipcs -l'
[1589382347.005307] [ty2019:10941:0]            sys.c:618  UCX  ERROR shmget(size=2097152 flags=0xb80) for ucp_am_bufs failed: Operation not permitted, please check shared memory limits by 'ipcs -l'
[1589382347.010891] [ty2019:10942:0]            sys.c:618  UCX  ERROR shmget(size=2097152 flags=0xb80) for ucp_am_bufs failed: Operation not permitted, please check shared memory limits by 'ipcs -l'
[1589382347.010901] [ty2019:10943:0]            sys.c:618  UCX  ERROR shmget(size=2097152 flags=0xb80) for ucp_am_bufs failed: Operation not permitted, please check shared memory limits by 'ipcs -l'


           ************************************************************
           *        Program running with 4 parallel MPI-processes     *
           *              working on a common directory               *
           ************************************************************
------------------------------------------------------------------------------
                           ORCA GTO INTEGRAL CALCULATION
                           -- RI-GTO INTEGRALS CHOSEN --
------------------------------------------------------------------------------

                         BASIS SET STATISTICS AND STARTUP INFO

Gaussian basis set:
 # of primitive gaussian shells          ...   71
 # of primitive gaussian functions       ...  121
 # of contracted shells                  ...   39
 # of contracted basis functions         ...   77
 Highest angular momentum                ...    2
 Maximum contraction depth               ...    5
Auxiliary gaussian basis set:
 # of primitive gaussian shells          ...  128
 # of primitive gaussian functions       ...  322
 # of contracted shells                  ...   80
 # of contracted aux-basis functions     ...  224
 Highest angular momentum                ...    4
 Maximum contraction depth               ...    7
Ratio of auxiliary to basis functions    ...  2.91
Integral package used                  ... LIBINT
 One Electron integrals                  ... done
 Ordering auxiliary basis shells         ... done
 Integral threshhold             Thresh  ...  2.500e-11
 Primitive cut-off               TCut    ...  2.500e-12
 Pre-screening matrix                    ... done
 Shell pair data                         ... 
 Ordering of the shell pairs             ... done (   0.000 sec) 778 of 780 pairs
 Determination of significant pairs      ... done (   0.000 sec)
 Creation of shell pair data             ... done (   0.000 sec)
 Storage of shell pair data              ... done (   0.038 sec)
 Shell pair data done in (   0.039 sec)
 Computing two index integrals           ... done
 Cholesky decomposition of the V-matrix  ... done


Timings:
 Total evaluation time                   ...   0.144 sec (  0.002 min)
 One electron matrix time                ...   0.006 sec (  0.000 min) =  3.9%
 Schwartz matrix evaluation time         ...   0.070 sec (  0.001 min) = 48.7%
 Two index repulsion integral time       ...   0.001 sec (  0.000 min) =  1.0%
 Cholesky decomposition of V             ...   0.001 sec (  0.000 min) =  0.7%
 Three index repulsion integral time     ...   0.000 sec (  0.000 min) =  0.0%

[1589382348.032743] [ty2019:10965:0]            sys.c:618  UCX  ERROR shmget(size=2097152 flags=0xfb0) for mm_recv_desc failed: Operation not permitted, please check shared memory limits by 'ipcs -l'
[1589382348.033940] [ty2019:10962:0]            sys.c:618  UCX  ERROR shmget(size=2097152 flags=0xfb0) for mm_recv_desc failed: Operation not permitted, please check shared memory limits by 'ipcs -l'
[1589382348.040938] [ty2019:10963:0]            sys.c:618  UCX  ERROR shmget(size=2097152 flags=0xfb0) for mm_recv_desc failed: Operation not permitted, please check shared memory limits by 'ipcs -l'
[1589382348.041150] [ty2019:10964:0]            sys.c:618  UCX  ERROR shmget(size=2097152 flags=0xfb0) for mm_recv_desc failed: Operation not permitted, please check shared memory limits by 'ipcs -l'
[1589382348.047632] [ty2019:10962:0]            sys.c:618  UCX  ERROR shmget(size=2097152 flags=0xb80) for ucp_am_bufs failed: Operation not permitted, please check shared memory limits by 'ipcs -l'


           ************************************************************
           *        Program running with 4 parallel MPI-processes     *
           *              working on a common directory               *
           ************************************************************
[1589382348.050482] [ty2019:10964:0]            sys.c:618  UCX  ERROR shmget(size=2097152 flags=0xb80) for ucp_am_bufs failed: Operation not permitted, please check shared memory limits by 'ipcs -l'
[1589382348.050552] [ty2019:10963:0]            sys.c:618  UCX  ERROR shmget(size=2097152 flags=0xb80) for ucp_am_bufs failed: Operation not permitted, please check shared memory limits by 'ipcs -l'
[1589382348.051159] [ty2019:10965:0]            sys.c:618  UCX  ERROR shmget(size=2097152 flags=0xb80) for ucp_am_bufs failed: Operation not permitted, please check shared memory limits by 'ipcs -l'
-------------------------------------------------------------------------------
                                 ORCA SCF
-------------------------------------------------------------------------------

------------
SCF SETTINGS
------------
Hamiltonian:
 Density Functional     Method          .... DFT(GTOs)
 Exchange Functional    Exchange        .... PBE
   PBE kappa parameter   XKappa         ....  0.804000
   PBE mue parameter    XMuePBE         ....  0.219520
 Correlation Functional Correlation     .... PBE
   PBE beta parameter  CBetaPBE         ....  0.066725
 LDA part of GGA corr.  LDAOpt          .... PW91-LDA
 Gradients option       PostSCFGGA      .... off
   Density functional embedding theory  .... OFF
   NL short-range parameter             ....  6.400000
 RI-approximation to the Coulomb term is turned on
   Number of auxiliary basis functions  .... 224


General Settings:
 Integral files         IntName         .... m-mfaV_2-6_hl1d_fbond_scan_7_orca
 Hartree-Fock type      HFTyp           .... UHF
 Total Charge           Charge          ....    0
 Multiplicity           Mult            ....    2
 Number of Electrons    NEL             ....   25
 Basis Dimension        Dim             ....   77
 Nuclear Repulsion      ENuc            ....     76.7381666172 Eh

Convergence Acceleration:
 DIIS                   CNVDIIS         .... on
   Start iteration      DIISMaxIt       ....    12
   Startup error        DIISStart       ....  0.200000
   # of expansion vecs  DIISMaxEq       ....     5
   Bias factor          DIISBfac        ....   1.050
   Max. coefficient     DIISMaxC        ....  10.000
 Newton-Raphson         CNVNR           .... off
 SOSCF                  CNVSOSCF        .... off
 Level Shifting         CNVShift        .... on
   Level shift para.    LevelShift      ....    0.2500
   Turn off err/grad.   ShiftErr        ....    0.0010
 Zerner damping         CNVZerner       .... off
 Static damping         CNVDamp         .... on
   Fraction old density DampFac         ....    0.7000
   Max. Damping (<1)    DampMax         ....    0.9800
   Min. Damping (>=0)   DampMin         ....    0.0000
   Turn off err/grad.   DampErr         ....    0.1000
 Fernandez-Rico         CNVRico         .... off

SCF Procedure:
 Maximum # iterations   MaxIter         ....   250
 SCF integral mode      SCFMode         .... Direct
   Integral package                     .... LIBINT
 Reset frequency        DirectResetFreq ....    20
 Integral Threshold     Thresh          ....  2.500e-11 Eh
 Primitive CutOff       TCut            ....  2.500e-12 Eh

Convergence Tolerance:
 Convergence Check Mode ConvCheckMode   .... Total+1el-Energy
 Convergence forced     ConvForced      .... 0
 Energy Change          TolE            ....  1.000e-08 Eh
 1-El. energy change                    ....  1.000e-05 Eh
 DIIS Error             TolErr          ....  5.000e-07


Diagonalization of the overlap matrix:
Smallest eigenvalue                        ... 3.074e-03
Time for diagonalization                   ...    0.002 sec
Threshold for overlap eigenvalues          ... 1.000e-08
Number of eigenvalues below threshold      ... 0
Time for construction of square roots      ...    0.001 sec
Total time needed                          ...    0.004 sec

-------------------
DFT GRID GENERATION
-------------------

General Integration Accuracy     IntAcc      ...  4.340
Radial Grid Type                 RadialGrid  ... Gauss-Chebyshev
Angular Grid (max. acc.)         AngularGrid ... Lebedev-110
Angular grid pruning method      GridPruning ... 3 (G Style)
Weight generation scheme         WeightScheme... Becke
Basis function cutoff            BFCut       ...    1.0000e-11
Integration weight cutoff        WCut        ...    1.0000e-14
Grids for H and He will be reduced by one unit

# of grid points (after initial pruning)     ...  10526 (   0.0 sec)
# of grid points (after weights+screening)   ...  10031 (   0.0 sec)
nearest neighbour list constructed           ...    0.0 sec
Grid point re-assignment to atoms done       ...    0.0 sec
Grid point division into batches done        ...    0.0 sec
Reduced shell lists constructed in    0.0 sec

Total number of grid points                  ...    10031
Total number of batches                      ...      162
Average number of points per batch           ...       61
Average number of grid points per atom       ...     1003
Average number of shells per batch           ...    35.81 (91.82%)
Average number of basis functions per batch  ...    70.62 (91.71%)
Average number of large shells per batch     ...    33.21 (92.75%)
Average number of large basis fcns per batch ...    65.26 (92.41%)
Maximum spatial batch extension              ...  16.54, 15.08, 18.72 au
Average spatial batch extension              ...   0.66,  0.64,  0.73 au

Time for grid setup =    0.032 sec

------------------------------
INITIAL GUESS: MODEL POTENTIAL
------------------------------
Loading Hartree-Fock densities                     ... done
Calculating cut-offs                               ... done
Setting up the integral package                    ... done
Initializing the effective Hamiltonian             ... done
Starting the Coulomb interaction                   ... done (   0.0 sec)
Reading the grid                                   ... done
Mapping shells                                     ... done
Starting the XC term evaluation                    ... done (   0.0 sec)
  promolecular density results
     # of electrons  =     24.996537328
     EX              =    -17.377862357
     EC              =     -0.785949888
     EX+EC           =    -18.163812246
Transforming the Hamiltonian                       ... done (   0.0 sec)
Diagonalizing the Hamiltonian                      ... done (   0.0 sec)
Back transforming the eigenvectors                 ... done (   0.0 sec)
Now organizing SCF variables                       ... done
                      ------------------
                      INITIAL GUESS DONE (   0.1 sec)
                      ------------------

--------------------
CPCM SOLVATION MODEL
--------------------
CPCM parameters:
  Epsilon                                         ...      80.4000
  Refrac                                          ...       1.3300
  Rsolv                                           ...       1.3000
  Surface type                                    ... GAUSSIAN VDW
  Epsilon function type                           ...         CPCM
Radii:
 Radius for C  used is    3.8550 Bohr (=   2.0400 Ang.)
 Radius for H  used is    2.4944 Bohr (=   1.3200 Ang.)
Calculating surface                               ...        done! (  0.0s)
GEPOL surface points                              ...          604
GEPOL Volume                                      ...     532.8879
GEPOL Surface-area                                ...     350.3247
Calculating surface distance matrix               ...        done! (  0.0s)
Performing Cholesky decomposition & store         ...        done! (  0.0s)
Overall time for CPCM initialization              ...                 0.0s
--------------
SCF ITERATIONS
--------------
ITER       Energy         Delta-E        Max-DP      RMS-DP      [F,P]     Damp
               ***  Starting incremental Fock matrix formation  ***
  0   -118.0618504582   0.000000000000 0.05070065  0.00171914  0.1515994 0.7000
  1   -118.1111891686  -0.049338710355 0.03549620  0.00125107  0.0726186 0.7000
                               ***Turning on DIIS***
  2   -118.1290639944  -0.017874825865 0.04599719  0.00205292  0.0206274 0.0000
  3   -118.1530700273  -0.024006032852 0.02649444  0.00084553  0.0459697 0.0000
  4   -118.1621571627  -0.009087135445 0.00847332  0.00028118  0.0098043 0.0000
  5   -118.1626847398  -0.000527577034 0.00197573  0.00010810  0.0025245 0.0000
  6   -118.1627288063  -0.000044066503 0.00218906  0.00008458  0.0009566 0.0000
  7   -118.1627354182  -0.000006611969 0.00038284  0.00000964  0.0004148 0.0000
  8   -118.1627360563  -0.000000638120 0.00012644  0.00000392  0.0000494 0.0000
  9   -118.1627361075  -0.000000051141 0.00002328  0.00000099  0.0000154 0.0000
 10   -118.1627361121  -0.000000004573 0.00000832  0.00000034  0.0000128 0.0000
                 **** Energy Check signals convergence ****

               *****************************************************
               *                     SUCCESS                       *
               *           SCF CONVERGED AFTER  11 CYCLES          *
               *****************************************************

Setting up the final grid:

General Integration Accuracy     IntAcc      ...  4.670
Radial Grid Type                 RadialGrid  ... Gauss-Chebyshev
Angular Grid (max. acc.)         AngularGrid ... Lebedev-302
Angular grid pruning method      GridPruning ... 3 (G Style)
Weight generation scheme         WeightScheme... Becke
Basis function cutoff            BFCut       ...    1.0000e-11
Integration weight cutoff        WCut        ...    1.0000e-14
Grids for H and He will be reduced by one unit

# of grid points (after initial pruning)     ...  42394 (   0.0 sec)
# of grid points (after weights+screening)   ...  39932 (   0.0 sec)
nearest neighbour list constructed           ...    0.0 sec
Grid point re-assignment to atoms done       ...    0.0 sec
Grid point division into batches done        ...    0.1 sec
Reduced shell lists constructed in    0.1 sec

Total number of grid points                  ...    39932
Total number of batches                      ...      629
Average number of points per batch           ...       63
Average number of grid points per atom       ...     3993
Average number of shells per batch           ...    34.94 (89.58%)
Average number of basis functions per batch  ...    68.94 (89.53%)
Average number of large shells per batch     ...    31.64 (90.55%)
Average number of large basis fcns per batch ...    61.77 (89.61%)
Maximum spatial batch extension              ...  14.77, 13.63, 20.64 au
Average spatial batch extension              ...   0.42,  0.43,  0.48 au

Final grid set up in    0.1 sec
Final integration                            ... done (   0.1 sec)
Change in XC energy                          ...     0.000190174
Integrated number of electrons               ...    24.999921511
Previous integrated no of electrons          ...    25.000902274

----------------
TOTAL SCF ENERGY
----------------

Total Energy       :         -118.16254594 Eh           -3215.36634 eV

Components:
Nuclear Repulsion  :           76.73816662 Eh            2088.15167 eV
Electronic Energy  :         -194.90071256 Eh           -5303.51801 eV
One Electron Energy:         -309.14343484 Eh           -8412.22053 eV
Two Electron Energy:          114.24272229 Eh            3108.70252 eV
CPCM Dielectric    :           -0.00230835 Eh              -0.06281 eV

Virial components:
Potential Energy   :         -235.00924482 Eh           -6394.92666 eV
Kinetic Energy     :          116.84669888 Eh            3179.56032 eV
Virial Ratio       :            2.01126131


DFT components:
N(Alpha)           :       12.999963375478 electrons
N(Beta)            :       11.999958135940 electrons
N(Total)           :       24.999921511418 electrons
E(X)               :      -17.861327481692 Eh       
E(C)               :       -0.796015303609 Eh       
E(XC)              :      -18.657342785301 Eh       
DFET-embed. en.    :        0.000000000000 Eh       
CPCM Solvation Model Properties:
Surface-charge          :           -0.01989255
Charge-correction       :           -0.00001402 Eh              -0.00038 eV
Free-energy (cav+disp)  :            0.00316258 Eh               0.08606 eV
Corrected G(solv)       :         -118.15939738 Eh           -3215.28066 eV

---------------
SCF CONVERGENCE
---------------

  Last Energy change         ...   -1.9466e-10  Tolerance :   1.0000e-08
  Last MAX-Density change    ...    4.4062e-06  Tolerance :   1.0000e-07
  Last RMS-Density change    ...    1.4603e-07  Tolerance :   5.0000e-09
  Last DIIS Error            ...    2.3929e-06  Tolerance :   5.0000e-07

             **** THE GBW FILE WAS UPDATED (m-mfaV_2-6_hl1d_fbond_scan_7_orca.gbw) ****
             **** DENSITY FILE WAS UPDATED (m-mfaV_2-6_hl1d_fbond_scan_7_orca.scfp) ****
             **** ENERGY FILE WAS UPDATED (m-mfaV_2-6_hl1d_fbond_scan_7_orca.en.tmp) ****
----------------------
UHF SPIN CONTAMINATION
----------------------

Warning: in a DFT calculation there is little theoretical justification to 
         calculate <S**2> as in Hartree-Fock theory. We will do it anyways
         but you should keep in mind that the values have only limited relevance

Expectation value of <S**2>     :     0.752694
Ideal value S*(S+1) for S=0.5   :     0.750000
Deviation                       :     0.002694

             **** THE GBW FILE WAS UPDATED (m-mfaV_2-6_hl1d_fbond_scan_7_orca.gbw) ****
             **** DENSITY FILE WAS UPDATED (m-mfaV_2-6_hl1d_fbond_scan_7_orca.scfp) ****
----------------
ORBITAL ENERGIES
----------------
                 SPIN UP ORBITALS
  NO   OCC          E(Eh)            E(eV) 
   0   1.0000      -9.895283      -269.2643 
   1   1.0000      -9.890462      -269.1332 
   2   1.0000      -9.890101      -269.1233 
   3   1.0000      -0.732231       -19.9250 
   4   1.0000      -0.613390       -16.6912 
   5   1.0000      -0.496786       -13.5182 
   6   1.0000      -0.418296       -11.3824 
   7   1.0000      -0.389666       -10.6034 
   8   1.0000      -0.364039        -9.9060 
   9   1.0000      -0.327082        -8.9003 
  10   1.0000      -0.298748        -8.1293 
  11   1.0000      -0.292711        -7.9651 
  12   1.0000      -0.116396        -3.1673 
  13   0.0000       0.047982         1.3056 
  14   0.0000       0.079872         2.1734 
  15   0.0000       0.085914         2.3378 
  16   0.0000       0.101074         2.7504 
  17   0.0000       0.119053         3.2396 
  18   0.0000       0.132772         3.6129 
  19   0.0000       0.136608         3.7173 
  20   0.0000       0.200145         5.4462 
  21   0.0000       0.252369         6.8673 
  22   0.0000       0.351309         9.5596 
  23   0.0000       0.370866        10.0918 
  24   0.0000       0.388803        10.5799 
  25   0.0000       0.437568        11.9068 
  26   0.0000       0.474024        12.8988 
  27   0.0000       0.487809        13.2739 
  28   0.0000       0.566685        15.4203 
  29   0.0000       0.581437        15.8217 
  30   0.0000       0.593394        16.1471 
  31   0.0000       0.613061        16.6822 
  32   0.0000       0.618189        16.8218 
  33   0.0000       0.627623        17.0785 
  34   0.0000       0.643638        17.5143 
  35   0.0000       0.651741        17.7348 
  36   0.0000       0.657673        17.8962 
  37   0.0000       0.690647        18.7935 
  38   0.0000       0.703056        19.1311 
  39   0.0000       0.770627        20.9698 
  40   0.0000       0.899873        24.4868 
  41   0.0000       1.123140        30.5622 
  42   0.0000       1.186520        32.2869 
  43   0.0000       1.272069        34.6147 
  44   0.0000       1.295737        35.2588 
  45   0.0000       1.447642        39.3923 
  46   0.0000       1.470838        40.0235 
  47   0.0000       1.486862        40.4596 
  48   0.0000       1.518688        41.3256 
  49   0.0000       1.608037        43.7569 
  50   0.0000       1.620166        44.0870 
  51   0.0000       1.685436        45.8630 
  52   0.0000       1.700404        46.2704 
  53   0.0000       1.719713        46.7958 
  54   0.0000       1.722001        46.8580 
  55   0.0000       1.769006        48.1371 
  56   0.0000       1.786113        48.6026 
  57   0.0000       1.865705        50.7684 
  58   0.0000       1.900619        51.7185 
  59   0.0000       2.000900        54.4473 
  60   0.0000       2.058280        56.0087 
  61   0.0000       2.115396        57.5628 
  62   0.0000       2.161927        58.8290 
  63   0.0000       2.186871        59.5078 
  64   0.0000       2.266678        61.6794 
  65   0.0000       2.307270        62.7840 
  66   0.0000       2.403024        65.3896 
  67   0.0000       2.418609        65.8137 
  68   0.0000       2.439373        66.3787 
  69   0.0000       2.554477        69.5109 
  70   0.0000       2.683914        73.0330 
  71   0.0000       2.743752        74.6613 
  72   0.0000       2.836942        77.1971 
  73   0.0000       2.879634        78.3588 
  74   0.0000       2.890249        78.6477 
  75   0.0000       2.932764        79.8046 
  76   0.0000       3.036258        82.6208 

                 SPIN DOWN ORBITALS
  NO   OCC          E(Eh)            E(eV) 
   0   1.0000      -9.893292      -269.2102 
   1   1.0000      -9.890010      -269.1209 
   2   1.0000      -9.878675      -268.8124 
   3   1.0000      -0.720273       -19.5996 
   4   1.0000      -0.606415       -16.5014 
   5   1.0000      -0.481721       -13.1083 
   6   1.0000      -0.409473       -11.1423 
   7   1.0000      -0.381304       -10.3758 
   8   1.0000      -0.359454        -9.7812 
   9   1.0000      -0.323300        -8.7974 
  10   1.0000      -0.294867        -8.0237 
  11   1.0000      -0.280503        -7.6329 
  12   0.0000      -0.048753        -1.3266 
  13   0.0000       0.051342         1.3971 
  14   0.0000       0.082152         2.2355 
  15   0.0000       0.091432         2.4880 
  16   0.0000       0.110104         2.9961 
  17   0.0000       0.121361         3.3024 
  18   0.0000       0.135328         3.6825 
  19   0.0000       0.140122         3.8129 
  20   0.0000       0.205392         5.5890 
  21   0.0000       0.261681         7.1207 
  22   0.0000       0.358880         9.7656 
  23   0.0000       0.373877        10.1737 
  24   0.0000       0.392139        10.6706 
  25   0.0000       0.458041        12.4639 
  26   0.0000       0.491729        13.3806 
  27   0.0000       0.519788        14.1442 
  28   0.0000       0.574762        15.6401 
  29   0.0000       0.589026        16.0282 
  30   0.0000       0.599148        16.3036 
  31   0.0000       0.618101        16.8194 
  32   0.0000       0.624554        16.9950 
  33   0.0000       0.636555        17.3215 
  34   0.0000       0.651622        17.7315 
  35   0.0000       0.655681        17.8420 
  36   0.0000       0.665947        18.1213 
  37   0.0000       0.698756        19.0141 
  38   0.0000       0.713072        19.4037 
  39   0.0000       0.778881        21.1944 
  40   0.0000       0.906255        24.6605 
  41   0.0000       1.129931        30.7470 
  42   0.0000       1.196514        32.5588 
  43   0.0000       1.292082        35.1594 
  44   0.0000       1.302084        35.4315 
  45   0.0000       1.452779        39.5321 
  46   0.0000       1.472399        40.0660 
  47   0.0000       1.492077        40.6015 
  48   0.0000       1.522274        41.4232 
  49   0.0000       1.611937        43.8630 
  50   0.0000       1.643805        44.7302 
  51   0.0000       1.688063        45.9345 
  52   0.0000       1.711196        46.5640 
  53   0.0000       1.723803        46.9071 
  54   0.0000       1.724488        46.9257 
  55   0.0000       1.773214        48.2516 
  56   0.0000       1.791322        48.7443 
  57   0.0000       1.868376        50.8411 
  58   0.0000       1.911236        52.0074 
  59   0.0000       2.019675        54.9581 
  60   0.0000       2.068484        56.2863 
  61   0.0000       2.138207        58.1836 
  62   0.0000       2.177117        59.2424 
  63   0.0000       2.214771        60.2670 
  64   0.0000       2.275530        61.9203 
  65   0.0000       2.319030        63.1040 
  66   0.0000       2.410950        65.6053 
  67   0.0000       2.432441        66.1901 
  68   0.0000       2.445302        66.5401 
  69   0.0000       2.561221        69.6944 
  70   0.0000       2.693768        73.3012 
  71   0.0000       2.755058        74.9689 
  72   0.0000       2.841596        77.3237 
  73   0.0000       2.881684        78.4146 
  74   0.0000       2.897466        78.8441 
  75   0.0000       2.939401        79.9852 
  76   0.0000       3.042809        82.7991 

                    ********************************
                    * MULLIKEN POPULATION ANALYSIS *
                    ********************************

--------------------------------------------
MULLIKEN ATOMIC CHARGES AND SPIN POPULATIONS
--------------------------------------------
   0 C :   -0.027787   -0.008596
   1 C :   -0.069268    0.110316
   2 C :   -0.207216    0.937592
   3 H :    0.030420    0.000507
   4 H :    0.038360   -0.000247
   5 H :    0.036618    0.020736
   6 H :    0.057472    0.019028
   7 H :    0.047770    0.002282
   8 H :    0.047192   -0.040674
   9 H :    0.046439   -0.040944
Sum of atomic charges         :    0.0000000
Sum of atomic spin populations:    1.0000000

-----------------------------------------------------
MULLIKEN REDUCED ORBITAL CHARGES AND SPIN POPULATIONS
-----------------------------------------------------
CHARGE
  0 C s       :     3.014396  s :     3.014396
      pz      :     1.016056  p :     2.988657
      px      :     0.968702
      py      :     1.003898
      dz2     :     0.005016  d :     0.024734
      dxz     :     0.006098
      dyz     :     0.002807
      dx2y2   :     0.005991
      dxy     :     0.004823
  1 C s       :     3.052346  s :     3.052346
      pz      :     1.038087  p :     2.977173
      px      :     0.930165
      py      :     1.008920
      dz2     :     0.006028  d :     0.039749
      dxz     :     0.010715
      dyz     :     0.003024
      dx2y2   :     0.010861
      dxy     :     0.009121
  2 C s       :     3.207305  s :     3.207305
      pz      :     1.086815  p :     2.974066
      px      :     0.941189
      py      :     0.946061
      dz2     :     0.004287  d :     0.025846
      dxz     :     0.003851
      dyz     :     0.003667
      dx2y2   :     0.007725
      dxy     :     0.006316
  3 H s       :     0.946524  s :     0.946524
      pz      :     0.006217  p :     0.023056
      px      :     0.004381
      py      :     0.012457
  4 H s       :     0.938816  s :     0.938816
      pz      :     0.007686  p :     0.022823
      px      :     0.007842
      py      :     0.007295
  5 H s       :     0.940387  s :     0.940387
      pz      :     0.012428  p :     0.022995
      px      :     0.005304
      py      :     0.005263
  6 H s       :     0.905547  s :     0.905547
      pz      :     0.016030  p :     0.036982
      px      :     0.011673
      py      :     0.009279
  7 H s       :     0.929774  s :     0.929774
      pz      :     0.005878  p :     0.022456
      px      :     0.003576
      py      :     0.013002
  8 H s       :     0.929234  s :     0.929234
      pz      :     0.006038  p :     0.023573
      px      :     0.004200
      py      :     0.013335
  9 H s       :     0.930051  s :     0.930051
      pz      :     0.006034  p :     0.023510
      px      :     0.011703
      py      :     0.005773

SPIN
  0 C s       :    -0.005621  s :    -0.005621
      pz      :    -0.003801  p :    -0.004062
      px      :    -0.001097
      py      :     0.000836
      dz2     :     0.000223  d :     0.001087
      dxz     :     0.000670
      dyz     :     0.000209
      dx2y2   :    -0.000010
      dxy     :    -0.000006
  1 C s       :     0.015899  s :     0.015899
      pz      :     0.110423  p :     0.090296
      px      :    -0.012736
      py      :    -0.007391
      dz2     :     0.003453  d :     0.004121
      dxz     :    -0.000102
      dyz     :     0.000558
      dx2y2   :     0.000179
      dxy     :     0.000033
  2 C s       :     0.076283  s :     0.076283
      pz      :     0.792494  p :     0.862936
      px      :     0.029511
      py      :     0.040931
      dz2     :    -0.001991  d :    -0.001627
      dxz     :     0.000339
      dyz     :     0.000048
      dx2y2   :     0.000129
      dxy     :    -0.000152
  3 H s       :     0.000504  s :     0.000504
      pz      :    -0.000001  p :     0.000003
      px      :     0.000007
      py      :    -0.000003
  4 H s       :    -0.000210  s :    -0.000210
      pz      :    -0.000011  p :    -0.000037
      px      :    -0.000010
      py      :    -0.000016
  5 H s       :     0.020783  s :     0.020783
      pz      :    -0.000118  p :    -0.000047
      px      :     0.000011
      py      :     0.000060
  6 H s       :     0.010869  s :     0.010869
      pz      :    -0.000067  p :     0.008159
      px      :     0.005810
      py      :     0.002416
  7 H s       :     0.001606  s :     0.001606
      pz      :     0.000621  p :     0.000676
      px      :     0.000026
      py      :     0.000030
  8 H s       :    -0.045171  s :    -0.045171
      pz      :     0.004219  p :     0.004497
      px      :    -0.000090
      py      :     0.000368
  9 H s       :    -0.045397  s :    -0.045397
      pz      :     0.004455  p :     0.004453
      px      :     0.000082
      py      :    -0.000083


                     *******************************
                     * LOEWDIN POPULATION ANALYSIS *
                     *******************************

-------------------------------------------
LOEWDIN ATOMIC CHARGES AND SPIN POPULATIONS
-------------------------------------------
   0 C :   -0.071819    0.006309
   1 C :   -0.073237    0.122743
   2 C :   -0.111280    0.781903
   3 H :    0.034062    0.001551
   4 H :    0.033957   -0.000089
   5 H :    0.031820    0.014146
   6 H :    0.072093    0.056698
   7 H :    0.039181    0.009095
   8 H :    0.021143    0.004171
   9 H :    0.024081    0.003471

----------------------------------------------------
LOEWDIN REDUCED ORBITAL CHARGES AND SPIN POPULATIONS
----------------------------------------------------
CHARGE
  0 C s       :     2.849673  s :     2.849673
      pz      :     1.069112  p :     3.154342
      px      :     1.021637
      py      :     1.063593
      dz2     :     0.014785  d :     0.067803
      dxz     :     0.015374
      dyz     :     0.007870
      dx2y2   :     0.016547
      dxy     :     0.013226
  1 C s       :     2.822027  s :     2.822027
      pz      :     1.082895  p :     3.150466
      px      :     1.010014
      py      :     1.057557
      dz2     :     0.014759  d :     0.100744
      dxz     :     0.025057
      dyz     :     0.008016
      dx2y2   :     0.029290
      dxy     :     0.023622
  2 C s       :     2.915934  s :     2.915934
      pz      :     1.055861  p :     3.126599
      px      :     1.032781
      py      :     1.037956
      dz2     :     0.009515  d :     0.068747
      dxz     :     0.009118
      dyz     :     0.008593
      dx2y2   :     0.022691
      dxy     :     0.018830
  3 H s       :     0.901929  s :     0.901929
      pz      :     0.015279  p :     0.064009
      px      :     0.011907
      py      :     0.036823
  4 H s       :     0.902270  s :     0.902270
      pz      :     0.020303  p :     0.063774
      px      :     0.023653
      py      :     0.019818
  5 H s       :     0.903873  s :     0.903873
      pz      :     0.036976  p :     0.064307
      px      :     0.015030
      py      :     0.012301
  6 H s       :     0.807036  s :     0.807036
      pz      :     0.052987  p :     0.120871
      px      :     0.041037
      py      :     0.026848
  7 H s       :     0.894540  s :     0.894540
      pz      :     0.017441  p :     0.066279
      px      :     0.010573
      py      :     0.038265
  8 H s       :     0.904420  s :     0.904420
      pz      :     0.022961  p :     0.074437
      px      :     0.010756
      py      :     0.040721
  9 H s       :     0.901340  s :     0.901340
      pz      :     0.022299  p :     0.074579
      px      :     0.035521
      py      :     0.016759

SPIN
  0 C s       :     0.001942  s :     0.001942
      pz      :    -0.001548  p :     0.001085
      px      :     0.001500
      py      :     0.001133
      dz2     :     0.000713  d :     0.003282
      dxz     :     0.001961
      dyz     :     0.000552
      dx2y2   :     0.000039
      dxy     :     0.000018
  1 C s       :     0.004843  s :     0.004843
      pz      :     0.110998  p :     0.107502
      px      :    -0.002443
      py      :    -0.001053
      dz2     :     0.007349  d :     0.010398
      dxz     :     0.000414
      dyz     :     0.001631
      dx2y2   :     0.000502
      dxy     :     0.000502
  2 C s       :     0.029709  s :     0.029709
      pz      :     0.710681  p :     0.751169
      px      :     0.020094
      py      :     0.020394
      dz2     :    -0.000381  d :     0.001025
      dxz     :     0.001511
      dyz     :     0.001072
      dx2y2   :    -0.000488
      dxy     :    -0.000690
  3 H s       :     0.001559  s :     0.001559
      pz      :    -0.000009  p :    -0.000007
      px      :     0.000028
      py      :    -0.000025
  4 H s       :    -0.000009  s :    -0.000009
      pz      :    -0.000044  p :    -0.000080
      px      :    -0.000010
      py      :    -0.000025
  5 H s       :     0.013317  s :     0.013317
      pz      :     0.000136  p :     0.000830
      px      :     0.000447
      py      :     0.000247
  6 H s       :     0.022603  s :     0.022603
      pz      :     0.002971  p :     0.034094
      px      :     0.021320
      py      :     0.009804
  7 H s       :     0.004853  s :     0.004853
      pz      :     0.003987  p :     0.004242
      px      :     0.000054
      py      :     0.000201
  8 H s       :    -0.018149  s :    -0.018149
      pz      :     0.019074  p :     0.022320
      px      :     0.000354
      py      :     0.002891
  9 H s       :    -0.018804  s :    -0.018804
      pz      :     0.019428  p :     0.022276
      px      :     0.001971
      py      :     0.000876


                      *****************************
                      * MAYER POPULATION ANALYSIS *
                      *****************************

  NA   - Mulliken gross atomic population
  ZA   - Total nuclear charge
  QA   - Mulliken gross atomic charge
  VA   - Mayer's total valence
  BVA  - Mayer's bonded valence
  FA   - Mayer's free valence

  ATOM       NA         ZA         QA         VA         BVA        FA
  0 C      6.0278     6.0000    -0.0278     3.9901     3.9900     0.0001
  1 C      6.0693     6.0000    -0.0693     4.0420     4.0180     0.0240
  2 C      6.2072     6.0000    -0.2072     3.8231     3.1607     0.6624
  3 H      0.9696     1.0000     0.0304     0.9914     0.9914     0.0000
  4 H      0.9616     1.0000     0.0384     0.9857     0.9857     0.0000
  5 H      0.9634     1.0000     0.0366     0.9853     0.9848     0.0005
  6 H      0.9425     1.0000     0.0575     1.0097     1.0080     0.0017
  7 H      0.9522     1.0000     0.0478     0.9772     0.9772     0.0001
  8 H      0.9528     1.0000     0.0472     0.9884     0.9862     0.0022
  9 H      0.9536     1.0000     0.0464     0.9832     0.9810     0.0022

  Mayer bond orders larger than 0.100000
B(  0-C ,  1-C ) :   1.1087 B(  0-C ,  3-H ) :   0.9595 B(  0-C ,  4-H ) :   0.9626 
B(  0-C ,  5-H ) :   0.9610 B(  1-C ,  2-C ) :   1.0759 B(  1-C ,  6-H ) :   0.8466 
B(  1-C ,  7-H ) :   0.9409 B(  2-C ,  6-H ) :   0.1442 B(  2-C ,  8-H ) :   0.9624 
B(  2-C ,  9-H ) :   0.9613 


------------------
HIRSHFELD ANALYSIS
------------------

Total integrated alpha density =     13.001260786
Total integrated beta density  =     11.999641488

  ATOM     CHARGE      SPIN    
   0 C   -0.069493    0.018526
   1 C   -0.050697    0.151761
   2 C   -0.104558    0.645296
   3 H    0.031969    0.001865
   4 H    0.030237    0.001146
   5 H    0.026480    0.013839
   6 H    0.051902    0.063213
   7 H    0.038734    0.015906
   8 H    0.020257    0.045797
   9 H    0.024267    0.044272

  TOTAL  -0.000902    1.001619

-------
TIMINGS
-------

Total SCF time: 0 days 0 hours 0 min 3 sec 

Total time                  ....       3.452 sec
Sum of individual times     ....       3.344 sec  ( 96.9%)

Fock matrix formation       ....       3.021 sec  ( 87.5%)
  Split-RI-J                ....       0.845 sec  ( 28.0% of F)
  XC integration            ....       0.296 sec  (  9.8% of F)
    Basis function eval.    ....       0.079 sec  ( 26.7% of XC)
    Density eval.           ....       0.052 sec  ( 17.6% of XC)
    XC-Functional eval.     ....       0.025 sec  (  8.5% of XC)
    XC-Potential eval.      ....       0.091 sec  ( 30.9% of XC)
Diagonalization             ....       0.013 sec  (  0.4%)
Density matrix formation    ....       0.001 sec  (  0.0%)
Population analysis         ....       0.018 sec  (  0.5%)
Initial guess               ....       0.110 sec  (  3.2%)
Orbital Transformation      ....       0.000 sec  (  0.0%)
Orbital Orthonormalization  ....       0.000 sec  (  0.0%)
DIIS solution               ....       0.005 sec  (  0.1%)
Grid generation             ....       0.177 sec  (  5.1%)


-------------------------------------------------------------------------------
                          DFT DISPERSION CORRECTION                            
                                                                               
                              DFTD3 V3.1  Rev 1                                
                          USING Becke-Johnson damping                          
-------------------------------------------------------------------------------
The PBE functional is recognized
Active option DFTDOPT                   ...         4   

molecular C6(AA) [au] = 659.339728 


            DFT-D V3
 parameters
 s6 scaling factor         :     1.0000 
 a1 scaling factor         :     0.4289 
 s8 scaling factor         :     0.7875 
 a2 scaling factor         :     4.4407 
 ad hoc parameters k1-k3   :    16.0000     1.3333    -4.0000 

 Edisp/kcal,au: -3.356498202163  -0.005348919790 
 E6   /kcal   :  -2.441802228 
 E8   /kcal   :  -0.914695974 
 % E8         :  27.251496017 

-------------------------   ----------------
Dispersion correction           -0.005348920
-------------------------   ----------------


-------------------------   --------------------
FINAL SINGLE POINT ENERGY      -118.167894858076
-------------------------   --------------------

[1589382352.455866] [ty2019:10990:0]            sys.c:618  UCX  ERROR shmget(size=2097152 flags=0xfb0) for mm_recv_desc failed: Operation not permitted, please check shared memory limits by 'ipcs -l'
[1589382352.461526] [ty2019:10988:0]            sys.c:618  UCX  ERROR shmget(size=2097152 flags=0xfb0) for mm_recv_desc failed: Operation not permitted, please check shared memory limits by 'ipcs -l'
[1589382352.462902] [ty2019:10989:0]            sys.c:618  UCX  ERROR shmget(size=2097152 flags=0xfb0) for mm_recv_desc failed: Operation not permitted, please check shared memory limits by 'ipcs -l'
[1589382352.464646] [ty2019:10987:0]            sys.c:618  UCX  ERROR shmget(size=2097152 flags=0xfb0) for mm_recv_desc failed: Operation not permitted, please check shared memory limits by 'ipcs -l'
[1589382352.470534] [ty2019:10987:0]            sys.c:618  UCX  ERROR shmget(size=2097152 flags=0xb80) for ucp_am_bufs failed: Operation not permitted, please check shared memory limits by 'ipcs -l'
[1589382352.471252] [ty2019:10988:0]            sys.c:618  UCX  ERROR shmget(size=2097152 flags=0xb80) for ucp_am_bufs failed: Operation not permitted, please check shared memory limits by 'ipcs -l'


           ************************************************************
           *        Program running with 4 parallel MPI-processes     *
           *              working on a common directory               *
           ************************************************************
[1589382352.476919] [ty2019:10989:0]            sys.c:618  UCX  ERROR shmget(size=2097152 flags=0xb80) for ucp_am_bufs failed: Operation not permitted, please check shared memory limits by 'ipcs -l'
------------------------------------------------------------------------------
                         ORCA SCF GRADIENT CALCULATION
------------------------------------------------------------------------------

Gradient of the Kohn-Sham DFT energy:
Kohn-Sham wavefunction type      ... UKS
Hartree-Fock exchange scaling    ...    0.000
Number of operators              ...    2
Number of atoms                  ...   10
Basis set dimensions             ...   77
Integral neglect threshold       ... 2.5e-11
Integral primitive cutoff        ... 2.5e-12

[1589382352.672302] [ty2019:10990:0]            sys.c:618  UCX  ERROR shmget(size=2097152 flags=0xb80) for ucp_am_bufs failed: Operation not permitted, please check shared memory limits by 'ipcs -l'
Nuclear repulsion gradient       ... done
One Electron Gradient            ... done
Pre-screening matrix             ... done
RI-J gradient                    ... done
Exchange-correlation gradient    ... done
Dispersion correction            ... done

------------------
CARTESIAN GRADIENT
------------------

   1   C   :   -0.001427138   -0.000980322   -0.001183010
   2   C   :    0.030139345    0.020538226    0.010042376
   3   C   :   -0.041326688   -0.037752345    0.054615081
   4   H   :    0.000135087   -0.000204627   -0.000075946
   5   H   :   -0.000194492   -0.000045438    0.000163092
   6   H   :   -0.000162130   -0.000223919    0.000291490
   7   H   :    0.013527923    0.018884452   -0.062985515
   8   H   :    0.000079480    0.000452686   -0.000970651
   9   H   :   -0.000841199   -0.000054384   -0.000037016
  10   H   :    0.000069813   -0.000614329    0.000140100

Difference to translation invariance:
           :   -0.0000000000   -0.0000000000   -0.0000000000

Norm of the cartesian gradient     ...    0.1098214488
RMS gradient                       ...    0.0200505616
MAX gradient                       ...    0.0629855155

-------
TIMINGS
-------

Total SCF gradient time            ...        0.859 sec

One electron gradient       ....       0.008 sec  (  1.0%)
Prescreening matrices       ....       0.011 sec  (  1.3%)
RI-J Coulomb gradient       ....       0.109 sec  ( 12.7%)
XC gradient                 ....       0.285 sec  ( 33.2%)
CPCM gradient               ....       0.116 sec  ( 13.5%)
   A-Matrix (El+Nuc)        ....       0.025 sec  (  2.9%)
   Potential                ....       0.091 sec  ( 10.6%)
------------------------------------------------------------------------------
                         ORCA GEOMETRY RELAXATION STEP
------------------------------------------------------------------------------

Reading the OPT-File                    .... done
Getting information on internals        .... done
Copying old internal coords+grads       .... done
Making the new internal coordinates     .... (new redundants).... done
Validating the new internal coordinates .... (new redundants).... done
Calculating the B-matrix                .... done
Calculating the G,G- and P matrices     .... done
Transforming gradient to internals      .... done
Projecting the internal gradient        .... done
Number of atoms                         ....  10
Number of internal coordinates          ....  40
Current Energy                          ....  -118.167894858 Eh
Current gradient norm                   ....     0.109821449 Eh/bohr
Maximum allowed component of the step   ....  0.300
Current trust radius                    ....  0.300
Evaluating the initial hessian          ....  (Almloef) done
Projecting the Hessian                  .... done
Forming the augmented Hessian           .... done
Diagonalizing the augmented Hessian     .... done
Last element of RFO vector              ....  0.996594973
Lowest eigenvalues of augmented Hessian:
 -0.001843142  0.012386288  0.022934908  0.033251498  0.054167945
Length of the computed step             ....  0.082734488
The final length of the internal step   ....  0.082734488
Converting the step to cartesian space:
 Initial RMS(Int)=    0.0130814711
Transforming coordinates:
 Iter   0:  RMS(Cart)=    0.0122115116 RMS(Int)=    0.0130260165
 Iter   1:  RMS(Cart)=    0.0001006715 RMS(Int)=    0.0001215664
 Iter   2:  RMS(Cart)=    0.0000017103 RMS(Int)=    0.0000016213
 Iter   3:  RMS(Cart)=    0.0000000193 RMS(Int)=    0.0000000155
Imposing constraints:
 Iter   0:  RMS(Cart)=    0.0000481333 RMS(Int)=    0.0001209029
 Iter   1:  RMS(Cart)=    0.0000156222 RMS(Int)=    0.0000392402
 Iter   2:  RMS(Cart)=    0.0000050703 RMS(Int)=    0.0000127358
 Iter   3:  RMS(Cart)=    0.0000016456 RMS(Int)=    0.0000041335
 Iter   4:  RMS(Cart)=    0.0000005341 RMS(Int)=    0.0000013416
 Iter   5:  RMS(Cart)=    0.0000001733 RMS(Int)=    0.0000004354
 Iter   6:  RMS(Cart)=    0.0000000563 RMS(Int)=    0.0000001413
 Iter   7:  RMS(Cart)=    0.0000000183 RMS(Int)=    0.0000000459
CONVERGED
done
Storing new coordinates                 .... done

                                .--------------------.
          ----------------------|Geometry convergence|-------------------------
          Item                value                   Tolerance       Converged
          ---------------------------------------------------------------------
          RMS gradient        0.0039372175            0.0005000000      NO
          MAX gradient        0.0164319866            0.0020000000      NO
          RMS step            0.0130814711            0.0070000000      NO
          MAX step            0.0413776656            0.0100000000      NO
          ........................................................
          Max(Bonds)      0.0219      Max(Angles)    1.43
          Max(Dihed)        1.12      Max(Improp)    0.00
          ---------------------------------------------------------------------

The optimization has not yet converged - more geometry cycles are needed


    ---------------------------------------------------------------------------
                         Redundant Internal Coordinates
                            (Angstroem and degrees)

        Definition                    Value    dE/dq     Step     New-Value
    ----------------------------------------------------------------------------
     1. B(C   1,C   0)                1.5149  0.001006 -0.0013    1.5136   
     2. B(C   2,C   1)                1.4313 -0.033266  0.0219    1.4532   
     3. B(H   3,C   0)                1.1091 -0.000213  0.0003    1.1095   
     4. B(H   4,C   0)                1.1084  0.000234 -0.0004    1.1080   
     5. B(H   5,C   0)                1.1117 -0.000226  0.0004    1.1120   
     6. B(H   6,C   1)                1.0813 -0.021069  0.0210    1.1023   
     7. B(H   6,C   2)                1.4872 -0.048283 -0.0000    1.4872 C 
     8. B(H   7,C   1)                1.1060 -0.000182  0.0003    1.1063   
     9. B(H   8,C   2)                1.1036 -0.000045  0.0001    1.1037   
    10. B(H   9,C   2)                1.1015  0.000329 -0.0005    1.1010   
    11. A(H   4,C   0,H   5)          107.75 -0.000189    0.04    107.79   
    12. A(C   1,C   0,H   4)          111.82  0.000073   -0.00    111.82   
    13. A(C   1,C   0,H   3)          111.17 -0.000247    0.04    111.21   
    14. A(H   3,C   0,H   5)          107.28  0.000068   -0.03    107.25   
    15. A(C   1,C   0,H   5)          110.65  0.000259   -0.05    110.60   
    16. A(H   3,C   0,H   4)          107.98  0.000033    0.01    107.99   
    17. A(C   0,C   1,C   2)          121.16  0.006422   -0.26    120.90   
    18. A(C   0,C   1,H   6)          117.90  0.004913   -0.12    117.78   
    19. A(C   2,C   1,H   6)           71.04 -0.008280   -1.43     69.61   
    20. A(C   0,C   1,H   7)          114.66 -0.002730    0.48    115.15   
    21. A(C   2,C   1,H   7)          114.32 -0.002227    0.51    114.83   
    22. A(H   6,C   1,H   7)          110.30  0.000641    0.12    110.42   
    23. A(C   1,C   2,H   8)          118.59 -0.000783    0.15    118.74   
    24. A(C   1,C   2,H   9)          119.27 -0.000284    0.07    119.34   
    25. A(H   8,C   2,H   9)          117.00  0.000937   -0.16    116.84   
    26. D(H   7,C   1,C   0,H   4)     54.09  0.000737   -0.50     53.59   
    27. D(C   2,C   1,C   0,H   4)   -162.08  0.002112    0.88   -161.20   
    28. D(C   2,C   1,C   0,H   3)    -41.31  0.002032    0.93    -40.39   
    29. D(H   7,C   1,C   0,H   3)    174.86  0.000657   -0.46    174.40   
    30. D(H   6,C   1,C   0,H   3)     42.40 -0.002690   -1.07     41.33   
    31. D(H   6,C   1,C   0,H   5)    161.51 -0.002596   -1.12    160.39   
    32. D(H   7,C   1,C   0,H   5)    -66.03  0.000751   -0.51    -66.55   
    33. D(H   6,C   1,C   0,H   4)    -78.37 -0.002610   -1.11    -79.48   
    34. D(C   2,C   1,C   0,H   5)     77.79  0.002126    0.87     78.67   
    35. D(H   9,C   2,C   1,H   7)    -28.66  0.000896    0.89    -27.77   
    36. D(H   8,C   2,C   1,H   6)    -78.28 -0.000918    0.28    -78.00   
    37. D(H   8,C   2,C   1,H   7)    177.40  0.000965    0.81    178.21   
    38. D(H   9,C   2,C   1,C   0)   -172.61 -0.000293   -0.48   -173.09   
    39. D(H   8,C   2,C   1,C   0)     33.46 -0.000225   -0.57     32.90   
    40. D(H   9,C   2,C   1,H   6)     75.65 -0.000987    0.37     76.02   
    ----------------------------------------------------------------------------

         *************************************************************
         *                GEOMETRY OPTIMIZATION CYCLE   2            *
         *************************************************************
---------------------------------
CARTESIAN COORDINATES (ANGSTROEM)
---------------------------------
  C     -1.239166    0.097508   -0.006835
  C      0.151074   -0.496844    0.062675
  C      1.318706    0.293425   -0.290016
  H     -1.248290    1.142123    0.366833
  H     -1.966913   -0.486167    0.591001
  H     -1.602943    0.119928   -1.057438
  H      0.755953   -0.284463    0.959483
  H      0.217984   -1.568662   -0.203204
  H      1.308888    1.377110   -0.081069
  H      2.304606   -0.194057   -0.341431

----------------------------
CARTESIAN COORDINATES (A.U.)
----------------------------
  NO LB      ZA    FRAG     MASS         X           Y           Z
   0 C     6.0000    0    12.011   -2.341684    0.184263   -0.012916
   1 C     6.0000    0    12.011    0.285488   -0.938899    0.118438
   2 C     6.0000    0    12.011    2.491994    0.554492   -0.548050
   3 H     1.0000    0     1.008   -2.358926    2.158299    0.693214
   4 H     1.0000    0     1.008   -3.716926   -0.918723    1.116830
   5 H     1.0000    0     1.008   -3.029123    0.226632   -1.998267
   6 H     1.0000    0     1.008    1.428544   -0.537558    1.813159
   7 H     1.0000    0     1.008    0.411931   -2.964342   -0.383999
   8 H     1.0000    0     1.008    2.473440    2.602362   -0.153198
   9 H     1.0000    0     1.008    4.355074   -0.366715   -0.645210

--------------------------------
INTERNAL COORDINATES (ANGSTROEM)
--------------------------------
 C      0   0   0     0.000000000000     0.00000000     0.00000000
 C      1   0   0     1.513555665481     0.00000000     0.00000000
 C      2   1   0     1.453368924188   120.88214883     0.00000000
 H      1   2   3     1.109473372030   111.21178011   319.60487485
 H      1   2   3     1.108015896767   111.81762355   198.79187399
 H      1   2   3     1.112026446836   110.59635753    78.65939161
 H      2   1   3     1.102383256373   117.75574446    81.73843064
 H      2   1   3     1.106328497283   115.14762483   214.79198994
 H      3   2   1     1.103689278912   118.73804625    32.89944752
 H      3   2   1     1.101035757161   119.33880067   186.91776173

---------------------------
INTERNAL COORDINATES (A.U.)
---------------------------
 C      0   0   0     0.000000000000     0.00000000     0.00000000
 C      1   0   0     2.860205696204     0.00000000     0.00000000
 C      2   1   0     2.746469238268   120.88214883     0.00000000
 H      1   2   3     2.096600826014   111.21178011   319.60487485
 H      1   2   3     2.093846596921   111.81762355   198.79187399
 H      1   2   3     2.101425438198   110.59635753    78.65939161
 H      2   1   3     2.083202449166   117.75574446    81.73843064
 H      2   1   3     2.090657874018   115.14762483   214.79198994
 H      3   2   1     2.085670474089   118.73804625    32.89944752
 H      3   2   1     2.080656044689   119.33880067   186.91776173

[1589382354.304366] [ty2019:11011:0]            sys.c:618  UCX  ERROR shmget(size=2097152 flags=0xfb0) for mm_recv_desc failed: Operation not permitted, please check shared memory limits by 'ipcs -l'
[1589382354.305813] [ty2019:11013:0]            sys.c:618  UCX  ERROR shmget(size=2097152 flags=0xfb0) for mm_recv_desc failed: Operation not permitted, please check shared memory limits by 'ipcs -l'
[1589382354.311815] [ty2019:11015:0]            sys.c:618  UCX  ERROR shmget(size=2097152 flags=0xfb0) for mm_recv_desc failed: Operation not permitted, please check shared memory limits by 'ipcs -l'
[1589382354.317394] [ty2019:11012:0]            sys.c:618  UCX  ERROR shmget(size=2097152 flags=0xfb0) for mm_recv_desc failed: Operation not permitted, please check shared memory limits by 'ipcs -l'
[1589382354.323872] [ty2019:11011:0]            sys.c:618  UCX  ERROR shmget(size=2097152 flags=0xb80) for ucp_am_bufs failed: Operation not permitted, please check shared memory limits by 'ipcs -l'
[1589382354.324226] [ty2019:11012:0]            sys.c:618  UCX  ERROR shmget(size=2097152 flags=0xb80) for ucp_am_bufs failed: Operation not permitted, please check shared memory limits by 'ipcs -l'


           ************************************************************
           *        Program running with 4 parallel MPI-processes     *
           *              working on a common directory               *
           ************************************************************
 One Electron integrals                  [1589382354.352033] [ty2019:11013:0]            sys.c:618  UCX  ERROR shmget(size=2097152 flags=0xb80) for ucp_am_bufs failed: Operation not permitted, please check shared memory limits by 'ipcs -l'
... done
 Pre-screening matrix                    ... done
[1589382354.459424] [ty2019:11015:0]            sys.c:618  UCX  ERROR shmget(size=2097152 flags=0xb80) for ucp_am_bufs failed: Operation not permitted, please check shared memory limits by 'ipcs -l'
[1589382355.370149] [ty2019:11037:0]            sys.c:618  UCX  ERROR shmget(size=2097152 flags=0xfb0) for mm_recv_desc failed: Operation not permitted, please check shared memory limits by 'ipcs -l'
[1589382355.384273] [ty2019:11036:0]            sys.c:618  UCX  ERROR shmget(size=2097152 flags=0xfb0) for mm_recv_desc failed: Operation not permitted, please check shared memory limits by 'ipcs -l'
[1589382355.385130] [ty2019:11035:0]            sys.c:618  UCX  ERROR shmget(size=2097152 flags=0xfb0) for mm_recv_desc failed: Operation not permitted, please check shared memory limits by 'ipcs -l'
[1589382355.386933] [ty2019:11034:0]            sys.c:618  UCX  ERROR shmget(size=2097152 flags=0xfb0) for mm_recv_desc failed: Operation not permitted, please check shared memory limits by 'ipcs -l'
[1589382355.393328] [ty2019:11034:0]            sys.c:618  UCX  ERROR shmget(size=2097152 flags=0xb80) for ucp_am_bufs failed: Operation not permitted, please check shared memory limits by 'ipcs -l'
[1589382355.393770] [ty2019:11035:0]            sys.c:618  UCX  ERROR shmget(size=2097152 flags=0xb80) for ucp_am_bufs failed: Operation not permitted, please check shared memory limits by 'ipcs -l'
[1589382355.394330] [ty2019:11037:0]            sys.c:618  UCX  ERROR shmget(size=2097152 flags=0xb80) for ucp_am_bufs failed: Operation not permitted, please check shared memory limits by 'ipcs -l'


           ************************************************************
           *        Program running with 4 parallel MPI-processes     *
           *              working on a common directory               *
           ************************************************************
[1589382355.396492] [ty2019:11036:0]            sys.c:618  UCX  ERROR shmget(size=2097152 flags=0xb80) for ucp_am_bufs failed: Operation not permitted, please check shared memory limits by 'ipcs -l'

Diagonalization of the overlap matrix:
Smallest eigenvalue                        ... 3.202e-03
Time for diagonalization                   ...    0.001 sec
Threshold for overlap eigenvalues          ... 1.000e-08
Number of eigenvalues below threshold      ... 0
Time for construction of square roots      ...    0.001 sec
Total time needed                          ...    0.002 sec

-------------------
DFT GRID GENERATION
-------------------

General Integration Accuracy     IntAcc      ...  4.340
Radial Grid Type                 RadialGrid  ... Gauss-Chebyshev
Angular Grid (max. acc.)         AngularGrid ... Lebedev-110
Angular grid pruning method      GridPruning ... 3 (G Style)
Weight generation scheme         WeightScheme... Becke
Basis function cutoff            BFCut       ...    1.0000e-11
Integration weight cutoff        WCut        ...    1.0000e-14
Grids for H and He will be reduced by one unit

# of grid points (after initial pruning)     ...  10526 (   0.0 sec)
# of grid points (after weights+screening)   ...  10034 (   0.0 sec)
nearest neighbour list constructed           ...    0.0 sec
Grid point re-assignment to atoms done       ...    0.0 sec
Grid point division into batches done        ...    0.0 sec
Reduced shell lists constructed in    0.0 sec

Total number of grid points                  ...    10034
Total number of batches                      ...      162
Average number of points per batch           ...       61
Average number of grid points per atom       ...     1003
Average number of shells per batch           ...    35.79 (91.76%)
Average number of basis functions per batch  ...    70.60 (91.68%)
Average number of large shells per batch     ...    33.14 (92.61%)
Average number of large basis fcns per batch ...    65.14 (92.28%)
Maximum spatial batch extension              ...  16.57, 15.08, 18.72 au
Average spatial batch extension              ...   0.66,  0.63,  0.73 au

Time for grid setup =    0.027 sec


--------------------
CPCM SOLVATION MODEL
--------------------
CPCM parameters:
  Epsilon                                         ...      80.4000
  Refrac                                          ...       1.3300
  Rsolv                                           ...       1.3000
  Surface type                                    ... GAUSSIAN VDW
  Epsilon function type                           ...         CPCM
Radii:
 Radius for C  used is    3.8550 Bohr (=   2.0400 Ang.)
 Radius for H  used is    2.4944 Bohr (=   1.3200 Ang.)
Calculating surface                               ...        done! (  0.0s)
GEPOL surface points                              ...          603
GEPOL Volume                                      ...     534.8843
GEPOL Surface-area                                ...     351.4644
Calculating surface distance matrix               ...        done! (  0.0s)
Performing Cholesky decomposition & store         ...        done! (  0.0s)
Overall time for CPCM initialization              ...                 0.0s
--------------
SCF ITERATIONS
--------------
ITER       Energy         Delta-E        Max-DP      RMS-DP      [F,P]     Damp
               ***  Starting incremental Fock matrix formation  ***
  0   -118.1637582082   0.000000000000 0.00171114  0.00007270  0.0065799 0.7000
  1   -118.1638410038  -0.000082795621 0.00142739  0.00006486  0.0043548 0.7000
                               ***Turning on DIIS***
  2   -118.1638997219  -0.000058718095 0.00357269  0.00016723  0.0026495 0.0000
  3   -118.1640322806  -0.000132558742 0.00236037  0.00006556  0.0008279 0.0000
  4   -118.1640349959  -0.000002715283 0.00057125  0.00001957  0.0008290 0.0000
  5   -118.1640368419  -0.000001845978 0.00025484  0.00000795  0.0002979 0.0000
  6   -118.1640371218  -0.000000279904 0.00007396  0.00000251  0.0000566 0.0000
[...]
  31   0.0000       0.614882        16.7318 
  32   0.0000       0.620384        16.8815 
  33   0.0000       0.633974        17.2513 
  34   0.0000       0.650161        17.6918 
  35   0.0000       0.653386        17.7795 
  36   0.0000       0.664221        18.0744 
  37   0.0000       0.692945        18.8560 
  38   0.0000       0.699122        19.0241 
  39   0.0000       0.785313        21.3694 
  40   0.0000       0.905485        24.6395 
  41   0.0000       1.123290        30.5663 
  42   0.0000       1.190246        32.3882 
  43   0.0000       1.292507        35.1709 
  44   0.0000       1.304100        35.4864 
  45   0.0000       1.446339        39.3569 
  46   0.0000       1.469330        39.9825 
  47   0.0000       1.489902        40.5423 
  48   0.0000       1.520297        41.3694 
  49   0.0000       1.615876        43.9702 
  50   0.0000       1.632245        44.4156 
  51   0.0000       1.677719        45.6531 
  52   0.0000       1.699288        46.2400 
  53   0.0000       1.720015        46.8040 
  54   0.0000       1.721515        46.8448 
  55   0.0000       1.763061        47.9753 
  56   0.0000       1.786043        48.6007 
  57   0.0000       1.862175        50.6723 
  58   0.0000       1.908016        51.9198 
  59   0.0000       2.013306        54.7848 
  60   0.0000       2.048239        55.7354 
  61   0.0000       2.135057        58.0978 
  62   0.0000       2.176281        59.2196 
  63   0.0000       2.207962        60.0817 
  64   0.0000       2.259502        61.4842 
  65   0.0000       2.309152        62.8352 
  66   0.0000       2.398524        65.2672 
  67   0.0000       2.409175        65.5570 
  68   0.0000       2.437201        66.3196 
  69   0.0000       2.542367        69.1813 
  70   0.0000       2.692391        73.2637 
  71   0.0000       2.744070        74.6699 
  72   0.0000       2.829108        76.9840 
  73   0.0000       2.869883        78.0935 
  74   0.0000       2.873204        78.1839 
  75   0.0000       2.924142        79.5699 
  76   0.0000       3.021350        82.2151 

                    ********************************
                    * MULLIKEN POPULATION ANALYSIS *
                    ********************************

--------------------------------------------
MULLIKEN ATOMIC CHARGES AND SPIN POPULATIONS
--------------------------------------------
   0 C :   -0.024916   -0.011431
   1 C :   -0.098165    0.141415
   2 C :   -0.205560    0.919841
   3 H :    0.031637    0.000885
   4 H :    0.039320   -0.000095
   5 H :    0.037506    0.022313
   6 H :    0.067942    0.007653
   7 H :    0.052156   -0.000607
   8 H :    0.051467   -0.039836
   9 H :    0.048615   -0.040137
Sum of atomic charges         :   -0.0000000
Sum of atomic spin populations:    1.0000000

-----------------------------------------------------
MULLIKEN REDUCED ORBITAL CHARGES AND SPIN POPULATIONS
-----------------------------------------------------
CHARGE
  0 C s       :     3.012476  s :     3.012476
      pz      :     1.016466  p :     2.987560
      px      :     0.967420
      py      :     1.003674
      dz2     :     0.005001  d :     0.024881
      dxz     :     0.006262
      dyz     :     0.002837
      dx2y2   :     0.005916
      dxy     :     0.004864
  1 C s       :     3.089879  s :     3.089879
      pz      :     1.044232  p :     2.970824
      px      :     0.926349
      py      :     1.000242
      dz2     :     0.005362  d :     0.037462
      dxz     :     0.010044
      dyz     :     0.002905
      dx2y2   :     0.010286
      dxy     :     0.008865
  2 C s       :     3.214311  s :     3.214311
      pz      :     1.087398  p :     2.966767
      px      :     0.935909
      py      :     0.943460
      dz2     :     0.004067  d :     0.024483
      dxz     :     0.003647
      dyz     :     0.003628
      dx2y2   :     0.007233
      dxy     :     0.005908
  3 H s       :     0.945314  s :     0.945314
      pz      :     0.006231  p :     0.023049
      px      :     0.004370
      py      :     0.012449
  4 H s       :     0.937840  s :     0.937840
      pz      :     0.007678  p :     0.022840
      px      :     0.007950
      py      :     0.007211
  5 H s       :     0.939520  s :     0.939520
      pz      :     0.012393  p :     0.022974
      px      :     0.005332
      py      :     0.005249
  6 H s       :     0.895725  s :     0.895725
      pz      :     0.015966  p :     0.036333
      px      :     0.011413
      py      :     0.008953
  7 H s       :     0.925489  s :     0.925489
      pz      :     0.005874  p :     0.022355
      px      :     0.003418
      py      :     0.013064
  8 H s       :     0.924927  s :     0.924927
      pz      :     0.006146  p :     0.023606
      px      :     0.004156
      py      :     0.013305
  9 H s       :     0.927871  s :     0.927871
      pz      :     0.006097  p :     0.023514
      px      :     0.011673
      py      :     0.005744

SPIN
  0 C s       :    -0.006319  s :    -0.006319
      pz      :    -0.004269  p :    -0.006377
      px      :    -0.002290
      py      :     0.000183
      dz2     :     0.000234  d :     0.001265
      dxz     :     0.000801
      dyz     :     0.000243
      dx2y2   :    -0.000010
      dxy     :    -0.000003
  1 C s       :     0.020876  s :     0.020876
      pz      :     0.134500  p :     0.117244
      px      :    -0.011184
      py      :    -0.006073
      dz2     :     0.002845  d :     0.003295
      dxz     :    -0.000128
      dyz     :     0.000433
      dx2y2   :     0.000169
      dxy     :    -0.000024
  2 C s       :     0.070752  s :     0.070752
      pz      :     0.780130  p :     0.850627
      px      :     0.028279
      py      :     0.042218
      dz2     :    -0.001960  d :    -0.001538
      dxz     :     0.000391
      dyz     :     0.000054
      dx2y2   :     0.000136
      dxy     :    -0.000159
  3 H s       :     0.000894  s :     0.000894
      pz      :    -0.000001  p :    -0.000009
      px      :    -0.000003
      py      :    -0.000005
  4 H s       :    -0.000051  s :    -0.000051
      pz      :    -0.000012  p :    -0.000043
      px      :    -0.000015
      py      :    -0.000016
  5 H s       :     0.022366  s :     0.022366
      pz      :    -0.000126  p :    -0.000053
      px      :     0.000010
      py      :     0.000063
  6 H s       :    -0.000769  s :    -0.000769
      pz      :     0.000038  p :     0.008421
      px      :     0.005835
      py      :     0.002548
  7 H s       :    -0.001476  s :    -0.001476
      pz      :     0.000802  p :     0.000869
      px      :     0.000014
      py      :     0.000053
  8 H s       :    -0.044273  s :    -0.044273
      pz      :     0.004152  p :     0.004436
      px      :    -0.000093
      py      :     0.000378
  9 H s       :    -0.044539  s :    -0.044539
      pz      :     0.004401  p :     0.004402
      px      :     0.000085
      py      :    -0.000084


                     *******************************
                     * LOEWDIN POPULATION ANALYSIS *
                     *******************************

-------------------------------------------
LOEWDIN ATOMIC CHARGES AND SPIN POPULATIONS
-------------------------------------------
   0 C :   -0.073733    0.005016
   1 C :   -0.074478    0.141829
   2 C :   -0.117217    0.770728
   3 H :    0.035169    0.001850
   4 H :    0.034086    0.000102
   5 H :    0.032096    0.015584
   6 H :    0.080062    0.049690
   7 H :    0.038363    0.007703
   8 H :    0.022048    0.004072
   9 H :    0.023603    0.003425

----------------------------------------------------
LOEWDIN REDUCED ORBITAL CHARGES AND SPIN POPULATIONS
----------------------------------------------------
CHARGE
  0 C s       :     2.849030  s :     2.849030
      pz      :     1.068977  p :     3.156297
      px      :     1.023923
      py      :     1.063397
      dz2     :     0.014763  d :     0.068406
      dxz     :     0.015811
      dyz     :     0.007933
      dx2y2   :     0.016372
      dxy     :     0.013527
  1 C s       :     2.837831  s :     2.837831
      pz      :     1.084936  p :     3.142074
      px      :     1.002058
      py      :     1.055080
      dz2     :     0.012906  d :     0.094573
      dxz     :     0.023456
      dyz     :     0.007487
      dx2y2   :     0.027540
      dxy     :     0.023184
  2 C s       :     2.926949  s :     2.926949
      pz      :     1.062447  p :     3.126066
      px      :     1.027628
      py      :     1.035992
      dz2     :     0.008746  d :     0.064202
      dxz     :     0.008400
      dyz     :     0.008337
      dx2y2   :     0.020900
      dxy     :     0.017819
  3 H s       :     0.900916  s :     0.900916
      pz      :     0.015339  p :     0.063914
      px      :     0.011806
      py      :     0.036770
  4 H s       :     0.902119  s :     0.902119
      pz      :     0.020296  p :     0.063795
      px      :     0.023906
      py      :     0.019593
  5 H s       :     0.903749  s :     0.903749
      pz      :     0.036884  p :     0.064155
      px      :     0.014993
      py      :     0.012277
  6 H s       :     0.802958  s :     0.802958
      pz      :     0.050803  p :     0.116979
      px      :     0.040502
      py      :     0.025674
  7 H s       :     0.894398  s :     0.894398
      pz      :     0.017728  p :     0.067238
      px      :     0.010416
      py      :     0.039095
  8 H s       :     0.903152  s :     0.903152
      pz      :     0.023090  p :     0.074800
      px      :     0.010715
      py      :     0.040995
  9 H s       :     0.901419  s :     0.901419
      pz      :     0.022341  p :     0.074978
      px      :     0.036029
      py      :     0.016609

SPIN
  0 C s       :     0.001555  s :     0.001555
      pz      :    -0.001769  p :    -0.000313
      px      :     0.000639
      py      :     0.000816
      dz2     :     0.000762  d :     0.003774
      dxz     :     0.002290
      dyz     :     0.000637
      dx2y2   :     0.000048
      dxy     :     0.000037
  1 C s       :     0.005918  s :     0.005918
      pz      :     0.130529  p :     0.127638
      px      :    -0.002260
      py      :    -0.000631
      dz2     :     0.005927  d :     0.008274
      dxz     :     0.000215
      dyz     :     0.001337
      dx2y2   :     0.000414
      dxy     :     0.000382
  2 C s       :     0.029022  s :     0.029022
      pz      :     0.700310  p :     0.740900
      px      :     0.018830
      py      :     0.021759
      dz2     :    -0.000588  d :     0.000807
      dxz     :     0.001515
      dyz     :     0.001019
      dx2y2   :    -0.000470
      dxy     :    -0.000669
  3 H s       :     0.001895  s :     0.001895
      pz      :    -0.000008  p :    -0.000045
      px      :    -0.000001
      py      :    -0.000037
  4 H s       :     0.000227  s :     0.000227
      pz      :    -0.000056  p :    -0.000125
      px      :    -0.000037
      py      :    -0.000032
  5 H s       :     0.014803  s :     0.014803
      pz      :     0.000099  p :     0.000782
      px      :     0.000432
      py      :     0.000251
  6 H s       :     0.013827  s :     0.013827
      pz      :     0.002888  p :     0.035863
      px      :     0.022420
      py      :     0.010555
  7 H s       :     0.002670  s :     0.002670
      pz      :     0.004656  p :     0.005033
      px      :     0.000053
      py      :     0.000323
  8 H s       :    -0.017994  s :    -0.017994
      pz      :     0.018796  p :     0.022066
      px      :     0.000334
      py      :     0.002936
  9 H s       :    -0.018665  s :    -0.018665
      pz      :     0.019223  p :     0.022090
      px      :     0.001969
      py      :     0.000897


                      *****************************
                      * MAYER POPULATION ANALYSIS *
                      *****************************

  NA   - Mulliken gross atomic population
  ZA   - Total nuclear charge
  QA   - Mulliken gross atomic charge
  VA   - Mayer's total valence
  BVA  - Mayer's bonded valence
  FA   - Mayer's free valence

  ATOM       NA         ZA         QA         VA         BVA        FA
  0 C      6.0249     6.0000    -0.0249     3.9885     3.9883     0.0001
  1 C      6.0982     6.0000    -0.0982     4.0316     4.0004     0.0313
  2 C      6.2056     6.0000    -0.2056     3.8049     3.1637     0.6412
  3 H      0.9684     1.0000     0.0316     0.9915     0.9915     0.0000
  4 H      0.9607     1.0000     0.0393     0.9853     0.9853     0.0000
  5 H      0.9625     1.0000     0.0375     0.9846     0.9841     0.0005
  6 H      0.9321     1.0000     0.0679     1.0073     1.0059     0.0014
  7 H      0.9478     1.0000     0.0522     0.9777     0.9777     0.0001
  8 H      0.9485     1.0000     0.0515     0.9882     0.9861     0.0021
  9 H      0.9514     1.0000     0.0486     0.9837     0.9816     0.0021

  Mayer bond orders larger than 0.100000
B(  0-C ,  1-C ) :   1.1104 B(  0-C ,  3-H ) :   0.9588 B(  0-C ,  4-H ) :   0.9624 
B(  0-C ,  5-H ) :   0.9597 B(  1-C ,  2-C ) :   1.0643 B(  1-C ,  6-H ) :   0.8338 
B(  1-C ,  7-H ) :   0.9460 B(  2-C ,  6-H ) :   0.1550 B(  2-C ,  8-H ) :   0.9632 
B(  2-C ,  9-H ) :   0.9628 


------------------
HIRSHFELD ANALYSIS
------------------

Total integrated alpha density =     13.001499535
Total integrated beta density  =     11.999746917

  ATOM     CHARGE      SPIN    
   0 C   -0.071393    0.018629
   1 C   -0.048335    0.162378
   2 C   -0.107070    0.638837
   3 H    0.032936    0.002133
   4 H    0.030150    0.001369
   5 H    0.026357    0.015044
   6 H    0.052063    0.059068
   7 H    0.038759    0.015475
   8 H    0.021537    0.045020
   9 H    0.023750    0.043800

  TOTAL  -0.001246    1.001753

-------
TIMINGS
-------

Total SCF time: 0 days 0 hours 0 min 3 sec 

Total time                  ....       3.608 sec
Sum of individual times     ....       3.418 sec  ( 94.8%)

Fock matrix formation       ....       3.119 sec  ( 86.5%)
  Split-RI-J                ....       0.843 sec  ( 27.0% of F)
  XC integration            ....       0.364 sec  ( 11.7% of F)
    Basis function eval.    ....       0.110 sec  ( 30.2% of XC)
    Density eval.           ....       0.072 sec  ( 19.7% of XC)
    XC-Functional eval.     ....       0.033 sec  (  9.1% of XC)
    XC-Potential eval.      ....       0.124 sec  ( 34.0% of XC)
Diagonalization             ....       0.014 sec  (  0.4%)
Density matrix formation    ....       0.001 sec  (  0.0%)
Population analysis         ....       0.030 sec  (  0.8%)
Initial guess               ....       0.003 sec  (  0.1%)
Orbital Transformation      ....       0.000 sec  (  0.0%)
Orbital Orthonormalization  ....       0.001 sec  (  0.0%)
DIIS solution               ....       0.004 sec  (  0.1%)
Grid generation             ....       0.247 sec  (  6.9%)


-------------------------------------------------------------------------------
                          DFT DISPERSION CORRECTION                            
                                                                               
                              DFTD3 V3.1  Rev 1                                
                          USING Becke-Johnson damping                          
-------------------------------------------------------------------------------
The PBE functional is recognized
Active option DFTDOPT                   ...         4   

molecular C6(AA) [au] = 659.704456 


            DFT-D V3
 parameters
 s6 scaling factor         :     1.0000 
 a1 scaling factor         :     0.4289 
 s8 scaling factor         :     0.7875 
 a2 scaling factor         :     4.4407 
 ad hoc parameters k1-k3   :    16.0000     1.3333    -4.0000 

 Edisp/kcal,au: -3.345349172765  -0.005331152682 
 E6   /kcal   :  -2.433418446 
 E8   /kcal   :  -0.911930726 
 % E8         :  27.259657494 

-------------------------   ----------------
Dispersion correction           -0.005331153
-------------------------   ----------------


-------------------------   --------------------
FINAL SINGLE POINT ENERGY      -118.169477667096
-------------------------   --------------------

                                *** OPTIMIZATION RUN DONE ***

                            ***************************************
                            *     ORCA property calculations      *
                            ***************************************

                                    ---------------------
                                    Active property flags
                                    ---------------------
   (+) Dipole Moment


------------------------------------------------------------------------------
                       ORCA ELECTRIC PROPERTIES CALCULATION
------------------------------------------------------------------------------

Dipole Moment Calculation                       ... on
Quadrupole Moment Calculation                   ... off
Polarizability Calculation                      ... off
GBWName                                         ... m-mfaV_2-6_hl1d_fbond_scan_7_orca.gbw
Electron density file                           ... m-mfaV_2-6_hl1d_fbond_scan_7_orca.scfp
The origin for moment calculation is the CENTER OF MASS  = ( 0.108661, -0.056224 -0.115209)

-------------
DIPOLE MOMENT
-------------
                                X             Y             Z
Electronic contribution:      0.48781      -0.40093      -0.30131
Nuclear contribution   :     -0.58898       0.30460       0.62437
                        -----------------------------------------
Total Dipole Moment    :     -0.10117      -0.09633       0.32306
                        -----------------------------------------
Magnitude (a.u.)       :      0.35197
Magnitude (Debye)      :      0.89464



--------------------
Rotational spectrum 
--------------------
 
Rotational constants in cm-1:     1.253187     0.286217     0.254231 
Rotational constants in MHz : 37569.609744  8580.583821  7621.659259 

 Dipole components along the rotational axes: 
x,y,z [a.u.] :    -0.134056     0.141457     0.293091 
x,y,z [Debye]:    -0.340743     0.359555     0.744977 

 
[1589382374.563492] [ty2019:11198:0]            sys.c:618  UCX  ERROR shmget(size=2097152 flags=0xfb0) for mm_recv_desc failed: Operation not permitted, please check shared memory limits by 'ipcs -l'
[1589382374.564449] [ty2019:11201:0]            sys.c:618  UCX  ERROR shmget(size=2097152 flags=0xfb0) for mm_recv_desc failed: Operation not permitted, please check shared memory limits by 'ipcs -l'
[1589382374.575211] [ty2019:11199:0]            sys.c:618  UCX  ERROR shmget(size=2097152 flags=0xfb0) for mm_recv_desc failed: Operation not permitted, please check shared memory limits by 'ipcs -l'
[1589382374.575191] [ty2019:11200:0]            sys.c:618  UCX  ERROR shmget(size=2097152 flags=0xfb0) for mm_recv_desc failed: Operation not permitted, please check shared memory limits by 'ipcs -l'
[1589382374.582043] [ty2019:11198:0]            sys.c:618  UCX  ERROR shmget(size=2097152 flags=0xb80) for ucp_am_bufs failed: Operation not permitted, please check shared memory limits by 'ipcs -l'
[1589382374.582719] [ty2019:11199:0]            sys.c:618  UCX  ERROR shmget(size=2097152 flags=0xb80) for ucp_am_bufs failed: Operation not permitted, please check shared memory limits by 'ipcs -l'

Timings for individual modules:

Sum of individual times         ...       27.318 sec (=   0.455 min)
GTO integral calculation        ...        4.108 sec (=   0.068 min)  15.0 %
SCF iterations                  ...       17.905 sec (=   0.298 min)  65.5 %
SCF Gradient evaluation         ...        5.093 sec (=   0.085 min)  18.6 %
Geometry relaxation             ...        0.212 sec (=   0.004 min)   0.8 %
                             ****ORCA TERMINATED NORMALLY****
TOTAL RUN TIME: 0 days 0 hours 0 minutes 28 seconds 549 msec
