
                                 *****************
                                 * O   R   C   A *
                                 *****************

           --- An Ab Initio, DFT and Semiempirical electronic structure package ---

                  #######################################################
                  #                        -***-                        #
                  #          Department of theory and spectroscopy      #
                  #               Directorship: Frank Neese             #
                  #        Max Planck Institute fuer Kohlenforschung    #
                  #                Kaiser Wilhelm Platz 1               #
                  #                 D-45470 Muelheim/Ruhr               #
                  #                      Germany                        #
                  #                                                     #
                  #                  All rights reserved                #
                  #                        -***-                        #
                  #######################################################


                         Program Version 4.2.1 -  RELEASE  -


 With contributions from (in alphabetic order):
   Daniel Aravena         : Magnetic Suceptibility
   Michael Atanasov       : Ab Initio Ligand Field Theory (pilot matlab implementation)
   Alexander A. Auer      : GIAO ZORA, VPT2
   Ute Becker             : Parallelization
   Giovanni Bistoni       : ED, misc. LED, open-shell LED, HFLD
   Martin Brehm           : Molecular dynamics
   Dmytro Bykov           : SCF Hessian
   Vijay G. Chilkuri      : MRCI spin determinant printing, contributions to CSF-ICE
   Dipayan Datta          : RHF DLPNO-CCSD density
   Achintya Kumar Dutta   : EOM-CC, STEOM-CC
   Dmitry Ganyushin       : Spin-Orbit,Spin-Spin,Magnetic field MRCI
   Miquel Garcia          : C-PCM Hessian, Gaussian charge scheme
   Yang Guo               : DLPNO-NEVPT2, CIM, IAO-localization
   Andreas Hansen         : Spin unrestricted coupled pair/coupled cluster methods
   Benjamin Helmich-Paris : CASSCF linear response (MC-RPA)
   Lee Huntington         : MR-EOM, pCC
   Robert Izsak           : Overlap fitted RIJCOSX, COSX-SCS-MP3, EOM
   Christian Kollmar      : KDIIS, OOCD, Brueckner-CCSD(T), CCSD density
   Simone Kossmann        : Meta GGA functionals, TD-DFT gradient, OOMP2, MP2 Hessian
   Martin Krupicka        : AUTO-CI
   Lucas Lang             : DCDCAS
   Dagmar Lenk            : GEPOL surface, SMD
   Dimitrios Liakos       : Extrapolation schemes; Compound Job, initial MDCI parallelization
   Dimitrios Manganas     : Further ROCIS development; embedding schemes
   Dimitrios Pantazis     : SARC Basis sets
   Taras Petrenko         : DFT Hessian,TD-DFT gradient, ASA, ECA, R-Raman, ABS, FL, XAS/XES, NRVS
   Peter Pinski           : DLPNO-MP2, DLPNO-MP2 Gradient
   Christoph Reimann      : Effective Core Potentials
   Marius Retegan         : Local ZFS, SOC
   Christoph Riplinger    : Optimizer, TS searches, QM/MM, DLPNO-CCSD(T), (RO)-DLPNO pert. Triples
   Tobias Risthaus        : Range-separated hybrids, TD-DFT gradient, RPA, STAB
   Michael Roemelt        : Original ROCIS implementation
   Masaaki Saitow         : Open-shell DLPNO-CCSD energy and density
   Barbara Sandhoefer     : DKH picture change effects
   Avijit Sen             : IP-ROCIS
   Kantharuban Sivalingam : CASSCF convergence, NEVPT2, FIC-MRCI
   Bernardo de Souza      : ESD, SOC TD-DFT
   Georgi Stoychev        : AutoAux, RI-MP2 NMR
   Willem Van den Heuvel  : Paramagnetic NMR
   Boris Wezisla          : Elementary symmetry handling
   Frank Wennmohs         : Technical directorship


 We gratefully acknowledge several colleagues who have allowed us to
 interface, adapt or use parts of their codes:
   Stefan Grimme, W. Hujo, H. Kruse,             : VdW corrections, initial TS optimization,
                  C. Bannwarth                     DFT functionals, gCP, sTDA/sTD-DF
   Ed Valeev, F. Pavosevic, A. Kumar             : LibInt (2-el integral package), F12 methods
   Garnet Chan, S. Sharma, J. Yang, R. Olivares  : DMRG
   Ulf Ekstrom                                   : XCFun DFT Library
   Mihaly Kallay                                 : mrcc  (arbitrary order and MRCC methods)
   Andreas Klamt, Michael Diedenhofen            : otool_cosmo (COSMO solvation model)
   Jiri Pittner, Ondrej Demel                    : Mk-CCSD
   Frank Weinhold                                : gennbo (NPA and NBO analysis)
   Christopher J. Cramer and Donald G. Truhlar   : smd solvation model
   Lars Goerigk                                  : TD-DFT with DH, B97 family of functionals
   V. Asgeirsson, H. Jonsson                     : NEB implementation
   FAccTs GmbH                                   : IRC, NEB, NEB-TS, Multilevel, MM, QM/MM, CI optimization
   S Lehtola, MJT Oliveira, MAL Marques          : LibXC Library


 Your calculation uses the libint2 library for the computation of 2-el integrals
 For citations please refer to: http://libint.valeyev.net

 Your ORCA version has been built with support for libXC version: 4.2.3
 For citations please refer to: https://tddft.org/programs/libxc/

 This ORCA versions uses:
   CBLAS   interface :  Fast vector & matrix operations
   LAPACKE interface :  Fast linear algebra routines
   SCALAPACK package :  Parallel linear algebra routines


Your calculation utilizes the atom-pairwise dispersion correction
with the Becke-Johnson damping scheme (D3BJ)
Cite in your paper:
S.Grimme, S.Ehrlich, L.Goerigk, J Comput Chem, (2011), 32, 1456–1465 
S.Grimme, J.Antony, S.Ehrlich and H.Krieg, J.Chem.Phys., 132, (2010), 154104 
   

----- Orbital basis set information -----
Your calculation utilizes the basis: def2-SVP
   F. Weigend and R. Ahlrichs, Phys. Chem. Chem. Phys. 7, 3297 (2005).

----- AuxJ basis set information -----
Your calculation utilizes the auxiliary basis: def2/J
   F. Weigend, Phys. Chem. Chem. Phys. 8, 1057 (2006).

================================================================================
                                        WARNINGS
                       Please study these warnings very carefully!
================================================================================


WARNING: your system is open-shell and RHF/RKS was chosen
  ===> : WILL SWITCH to UHF/UKS


WARNING: Geometry Optimization
  ===> : Switching off AutoStart
         For restart on a previous wavefunction, please use MOREAD

INFO   : the flag for use of LIBINT has been found!

================================================================================
                                       INPUT FILE
================================================================================
NAME = m-mfaV_2-6_hl1d_fbond_scan_11_orca.inp
|  1> ! LooseOpt PBE RI D3BJ def2-SVP def2/J CPCM(Water)
|  2> %cpcm
|  3>  surfacetype vdw_gaussian
|  4> end
|  5> %geom Constraints
|  6> { B 2 6 1.0872432992239327 C }
|  7>     end
|  8> end
|  9> %geom MaxIter 100 end
| 10> %pal nprocs 4
| 11> end
| 12> %output 
| 13> xyzfile=True 
| 14> end 
| 15> %scf 
| 16> maxiter 250 
| 17> end
| 18> %output
| 19> Print[P_Hirshfeld] = 1
| 20> end
| 21> % maxcore
| 22> 4000
| 23> *xyz 0 2
| 24> C   -1.30543545   0.06694485  -0.04520324 
| 25> C    0.02501499  -0.60456836  -0.05417877 
| 26> C    1.28921524   0.17571912  -0.03925434 
| 27> H   -1.57844004   0.44464897   0.97383565 
| 28> H   -2.12525872  -0.61520658  -0.35135892 
| 29> H   -1.32348224   0.95847595  -0.71013919 
| 30> H    1.52531719   0.62070325   1.03582316 
| 31> H    0.06976296  -1.67649313   0.20741705 
| 32> H    1.24671078   1.06265739  -0.70895474 
| 33> H    2.17649528  -0.43298147  -0.30798667 
| 34> *
| 35> 
| 36>                          ****END OF INPUT****
================================================================================

                       *****************************
                       * Geometry Optimization Run *
                       *****************************

Geometry optimization settings:
Update method            Update   .... BFGS
Choice of coordinates    CoordSys .... Z-matrix Internals
Initial Hessian          InHess   .... Almoef's Model

Convergence Tolerances:
Energy Change            TolE     ....  3.0000e-05 Eh
Max. Gradient            TolMAXG  ....  2.0000e-03 Eh/bohr
RMS Gradient             TolRMSG  ....  5.0000e-04 Eh/bohr
Max. Displacement        TolMAXD  ....  1.0000e-02 bohr
RMS Displacement         TolRMSD  ....  7.0000e-03 bohr
Strict Convergence                ....  False
------------------------------------------------------------------------------
                        ORCA OPTIMIZATION COORDINATE SETUP
------------------------------------------------------------------------------

The optimization will be done in new redundant internal coordinates
Making redundant internal coordinates   ...  (new redundants) done
Evaluating the initial hessian          ...  (Almloef) done
Evaluating the coordinates              ...  done
Calculating the B-matrix                .... done
Calculating the G-matrix                .... done
Diagonalizing the G-matrix              .... done
Imposing constraints:
 Iter   0:  RMS(Cart)=    0.0314790618 RMS(Int)=    0.0000353895
 Iter   1:  RMS(Cart)=    0.0000058952 RMS(Int)=    0.0000000139
 Iter   2:  RMS(Cart)=    0.0000000023 RMS(Int)=    0.0000000000
CONVERGED
The first mode is                       ....   12
The number of degrees of freedom        ....   24
Storing new coordinates                 .... done

    -----------------------------------------------------------------
                    Redundant Internal Coordinates


    -----------------------------------------------------------------
         Definition                    Initial Value    Approx d2E/dq
    -----------------------------------------------------------------
      1. B(C   1,C   0)                  1.4904         0.432170   
      2. B(C   2,C   1)                  1.4857         0.439614   
      3. B(H   3,C   0)                  1.1206         0.321872   
      4. B(H   4,C   0)                  1.1096         0.335105   
      5. B(H   5,C   0)                  1.1123         0.331731   
      6. B(H   6,C   2)                  1.0872         0.251929 C 
      7. B(H   7,C   1)                  1.1043         0.341683   
      8. B(H   8,C   2)                  1.1122         0.331911   
      9. B(H   9,C   2)                  1.1091         0.335757   
     10. A(C   1,C   0,H   3)          112.0151         0.326108   
     11. A(C   1,C   0,H   5)          111.8395         0.327733   
     12. A(C   1,C   0,H   4)          112.3913         0.328281   
     13. A(H   3,C   0,H   4)          106.1491         0.282599   
     14. A(H   4,C   0,H   5)          108.4100         0.283926   
     15. A(H   3,C   0,H   5)          105.6359         0.282156   
     16. A(C   2,C   1,H   7)          118.2259         0.330267   
     17. A(C   0,C   1,H   7)          118.1714         0.329336   
     18. A(C   0,C   1,C   2)          121.5292         0.383191   
     19. A(H   8,C   2,H   9)          108.8050         0.284035   
     20. A(C   1,C   2,H   8)          112.3500         0.328687   
     21. A(H   6,C   2,H   8)          104.7206         0.271759   
     22. A(C   1,C   2,H   9)          112.9595         0.329313   
     23. A(C   1,C   2,H   6)          112.0070         0.314186   
     24. A(H   6,C   2,H   9)          105.4492         0.272236   
     25. D(C   2,C   1,C   0,H   5)     41.1604         0.013791   
     26. D(H   7,C   1,C   0,H   5)   -155.5074         0.013791   
     27. D(H   7,C   1,C   0,H   4)    -33.2928         0.013791   
     28. D(C   2,C   1,C   0,H   4)    163.3750         0.013791   
     29. D(C   2,C   1,C   0,H   3)    -77.2148         0.013791   
     30. D(H   7,C   1,C   0,H   3)     86.1174         0.013791   
     31. D(H   6,C   2,C   1,C   0)     75.8546         0.014261   
     32. D(H   6,C   2,C   1,H   7)    -87.4689         0.014261   
     33. D(H   8,C   2,C   1,C   0)    -41.6947         0.014261   
     34. D(H   8,C   2,C   1,H   7)    154.9818         0.014261   
     35. D(H   9,C   2,C   1,C   0)   -165.2469         0.014261   
     36. D(H   9,C   2,C   1,H   7)     31.4296         0.014261   
    -----------------------------------------------------------------

Number of atoms                         .... 10
Number of degrees of freedom            .... 36

         *************************************************************
         *                GEOMETRY OPTIMIZATION CYCLE   1            *
         *************************************************************
---------------------------------
CARTESIAN COORDINATES (ANGSTROEM)
---------------------------------
  C     -1.303342    0.068514   -0.042405
  C      0.028309   -0.600696   -0.045900
  C      1.291093    0.181746   -0.023656
  H     -1.581960    0.444231    0.975867
  H     -2.120499   -0.614593   -0.353569
  H     -1.319684    0.961004   -0.706102
  H      1.501302    0.588048    0.962664
  H      0.073628   -1.672933    0.214318
  H      1.250324    1.069608   -0.692244
  H      2.180730   -0.425027   -0.288973

----------------------------
CARTESIAN COORDINATES (A.U.)
----------------------------
  NO LB      ZA    FRAG     MASS         X           Y           Z
   0 C     6.0000    0    12.011   -2.462959    0.129472   -0.080134
   1 C     6.0000    0    12.011    0.053496   -1.135151   -0.086738
   2 C     6.0000    0    12.011    2.439812    0.343450   -0.044704
   3 H     1.0000    0     1.008   -2.989470    0.839475    1.844121
   4 H     1.0000    0     1.008   -4.007163   -1.161413   -0.668149
   5 H     1.0000    0     1.008   -2.493842    1.816033   -1.334339
   6 H     1.0000    0     1.008    2.837050    1.111250    1.819171
   7 H     1.0000    0     1.008    0.139136   -3.161385    0.405003
   8 H     1.0000    0     1.008    2.362769    2.021266   -1.308151
   9 H     1.0000    0     1.008    4.120982   -0.803185   -0.546080

--------------------------------
INTERNAL COORDINATES (ANGSTROEM)
--------------------------------
 C      0   0   0     0.000000000000     0.00000000     0.00000000
 C      1   0   0     1.490338526859     0.00000000     0.00000000
 C      2   1   0     1.485689591454   121.52860443     0.00000000
 H      1   2   3     1.120549939877   112.01503360   282.78488091
 H      1   2   3     1.109581933829   112.39080249   163.37501356
 H      1   2   3     1.112336822414   111.84016917    41.16009397
 H      3   2   1     1.187243293412   112.03438656    75.86277391
 H      2   1   3     1.104290480988   118.17197044   163.33235649
 H      3   2   1     1.112189169912   112.35010255   318.30581635
 H      3   2   1     1.109053354368   112.95906893   194.75299315

---------------------------
INTERNAL COORDINATES (A.U.)
---------------------------
 C      0   0   0     0.000000000000     0.00000000     0.00000000
 C      1   0   0     2.816331662595     0.00000000     0.00000000
 C      2   1   0     2.807546447866   121.52860443     0.00000000
 H      1   2   3     2.117532505750   112.01503360   282.78488091
 H      1   2   3     2.096805978084   112.39080249   163.37501356
 H      1   2   3     2.102011963039   111.84016917    41.16009397
 H      3   2   1     2.243564678884   112.03438656    75.86277391
 H      2   1   3     2.086806581363   118.17197044   163.33235649
 H      3   2   1     2.101732940248   112.35010255   318.30581635
 H      3   2   1     2.095807107663   112.95906893   194.75299315

---------------------
BASIS SET INFORMATION
---------------------
There are 2 groups of distinct atoms

 Group   1 Type C   : 7s4p1d contracted to 3s2p1d pattern {511/31/1}
 Group   2 Type H   : 4s1p contracted to 2s1p pattern {31/1}

Atom   0C    basis set group =>   1
Atom   1C    basis set group =>   1
Atom   2C    basis set group =>   1
Atom   3H    basis set group =>   2
Atom   4H    basis set group =>   2
Atom   5H    basis set group =>   2
Atom   6H    basis set group =>   2
Atom   7H    basis set group =>   2
Atom   8H    basis set group =>   2
Atom   9H    basis set group =>   2
---------------------------------
AUXILIARY/J BASIS SET INFORMATION
---------------------------------
There are 2 groups of distinct atoms

 Group   1 Type C   : 12s5p4d2f1g contracted to 6s4p3d1f1g pattern {711111/2111/211/2/1}
 Group   2 Type H   : 5s2p1d contracted to 3s1p1d pattern {311/2/1}

Atom   0C    basis set group =>   1
Atom   1C    basis set group =>   1
Atom   2C    basis set group =>   1
Atom   3H    basis set group =>   2
Atom   4H    basis set group =>   2
Atom   5H    basis set group =>   2
Atom   6H    basis set group =>   2
Atom   7H    basis set group =>   2
Atom   8H    basis set group =>   2
Atom   9H    basis set group =>   2
[1589382961.099216] [ty2019:17334:0]            sys.c:618  UCX  ERROR shmget(size=2097152 flags=0xfb0) for mm_recv_desc failed: Operation not permitted, please check shared memory limits by 'ipcs -l'
[1589382961.100753] [ty2019:17333:0]            sys.c:618  UCX  ERROR shmget(size=2097152 flags=0xfb0) for mm_recv_desc failed: Operation not permitted, please check shared memory limits by 'ipcs -l'
[1589382961.106098] [ty2019:17332:0]            sys.c:618  UCX  ERROR shmget(size=2097152 flags=0xfb0) for mm_recv_desc failed: Operation not permitted, please check shared memory limits by 'ipcs -l'
[1589382961.108527] [ty2019:17335:0]            sys.c:618  UCX  ERROR shmget(size=2097152 flags=0xfb0) for mm_recv_desc failed: Operation not permitted, please check shared memory limits by 'ipcs -l'
[1589382961.116201] [ty2019:17334:0]            sys.c:618  UCX  ERROR shmget(size=2097152 flags=0xb80) for ucp_am_bufs failed: Operation not permitted, please check shared memory limits by 'ipcs -l'
[1589382961.121410] [ty2019:17332:0]            sys.c:618  UCX  ERROR shmget(size=2097152 flags=0xb80) for ucp_am_bufs failed: Operation not permitted, please check shared memory limits by 'ipcs -l'
[1589382961.122893] [ty2019:17335:0]            sys.c:618  UCX  ERROR shmget(size=2097152 flags=0xb80) for ucp_am_bufs failed: Operation not permitted, please check shared memory limits by 'ipcs -l'
[1589382961.122950] [ty2019:17333:0]            sys.c:618  UCX  ERROR shmget(size=2097152 flags=0xb80) for ucp_am_bufs failed: Operation not permitted, please check shared memory limits by 'ipcs -l'


           ************************************************************
           *        Program running with 4 parallel MPI-processes     *
           *              working on a common directory               *
           ************************************************************
------------------------------------------------------------------------------
                           ORCA GTO INTEGRAL CALCULATION
                           -- RI-GTO INTEGRALS CHOSEN --
------------------------------------------------------------------------------

                         BASIS SET STATISTICS AND STARTUP INFO

Gaussian basis set:
 # of primitive gaussian shells          ...   71
 # of primitive gaussian functions       ...  121
 # of contracted shells                  ...   39
 # of contracted basis functions         ...   77
 Highest angular momentum                ...    2
 Maximum contraction depth               ...    5
Auxiliary gaussian basis set:
 # of primitive gaussian shells          ...  128
 # of primitive gaussian functions       ...  322
 # of contracted shells                  ...   80
 # of contracted aux-basis functions     ...  224
 Highest angular momentum                ...    4
 Maximum contraction depth               ...    7
Ratio of auxiliary to basis functions    ...  2.91
Integral package used                  ... LIBINT
 One Electron integrals                  ... done
 Ordering auxiliary basis shells         ... done
 Integral threshhold             Thresh  ...  2.500e-11
 Primitive cut-off               TCut    ...  2.500e-12
 Pre-screening matrix                    ... done
 Shell pair data                         ... 
 Ordering of the shell pairs             ... done (   0.000 sec) 778 of 780 pairs
 Determination of significant pairs      ... done (   0.000 sec)
 Creation of shell pair data             ... done (   0.000 sec)
 Storage of shell pair data              ... done (   0.029 sec)
 Shell pair data done in (   0.029 sec)
 Computing two index integrals           ... done
 Cholesky decomposition of the V-matrix  ... done


Timings:
 Total evaluation time                   ...   0.131 sec (  0.002 min)
 One electron matrix time                ...   0.007 sec (  0.000 min) =  5.3%
 Schwartz matrix evaluation time         ...   0.069 sec (  0.001 min) = 52.5%
 Two index repulsion integral time       ...   0.002 sec (  0.000 min) =  1.2%
 Cholesky decomposition of V             ...   0.001 sec (  0.000 min) =  0.7%
 Three index repulsion integral time     ...   0.000 sec (  0.000 min) =  0.0%

[1589382962.113855] [ty2019:17356:0]            sys.c:618  UCX  ERROR shmget(size=2097152 flags=0xfb0) for mm_recv_desc failed: Operation not permitted, please check shared memory limits by 'ipcs -l'
[1589382962.121078] [ty2019:17357:0]            sys.c:618  UCX  ERROR shmget(size=2097152 flags=0xfb0) for mm_recv_desc failed: Operation not permitted, please check shared memory limits by 'ipcs -l'
[1589382962.121825] [ty2019:17355:0]            sys.c:618  UCX  ERROR shmget(size=2097152 flags=0xfb0) for mm_recv_desc failed: Operation not permitted, please check shared memory limits by 'ipcs -l'
[1589382962.121982] [ty2019:17354:0]            sys.c:618  UCX  ERROR shmget(size=2097152 flags=0xfb0) for mm_recv_desc failed: Operation not permitted, please check shared memory limits by 'ipcs -l'
[1589382962.128517] [ty2019:17356:0]            sys.c:618  UCX  ERROR shmget(size=2097152 flags=0xb80) for ucp_am_bufs failed: Operation not permitted, please check shared memory limits by 'ipcs -l'
[1589382962.128549] [ty2019:17354:0]            sys.c:618  UCX  ERROR shmget(size=2097152 flags=0xb80) for ucp_am_bufs failed: Operation not permitted, please check shared memory limits by 'ipcs -l'


           ************************************************************
           *        Program running with 4 parallel MPI-processes     *
           *              working on a common directory               *
           ************************************************************
[1589382962.130534] [ty2019:17355:0]            sys.c:618  UCX  ERROR shmget(size=2097152 flags=0xb80) for ucp_am_bufs failed: Operation not permitted, please check shared memory limits by 'ipcs -l'
[1589382962.130744] [ty2019:17357:0]            sys.c:618  UCX  ERROR shmget(size=2097152 flags=0xb80) for ucp_am_bufs failed: Operation not permitted, please check shared memory limits by 'ipcs -l'
-------------------------------------------------------------------------------
                                 ORCA SCF
-------------------------------------------------------------------------------

------------
SCF SETTINGS
------------
Hamiltonian:
 Density Functional     Method          .... DFT(GTOs)
 Exchange Functional    Exchange        .... PBE
   PBE kappa parameter   XKappa         ....  0.804000
   PBE mue parameter    XMuePBE         ....  0.219520
 Correlation Functional Correlation     .... PBE
   PBE beta parameter  CBetaPBE         ....  0.066725
 LDA part of GGA corr.  LDAOpt          .... PW91-LDA
 Gradients option       PostSCFGGA      .... off
   Density functional embedding theory  .... OFF
   NL short-range parameter             ....  6.400000
 RI-approximation to the Coulomb term is turned on
   Number of auxiliary basis functions  .... 224


General Settings:
 Integral files         IntName         .... m-mfaV_2-6_hl1d_fbond_scan_11_orca
 Hartree-Fock type      HFTyp           .... UHF
 Total Charge           Charge          ....    0
 Multiplicity           Mult            ....    2
 Number of Electrons    NEL             ....   25
 Basis Dimension        Dim             ....   77
 Nuclear Repulsion      ENuc            ....     75.0794191233 Eh

Convergence Acceleration:
 DIIS                   CNVDIIS         .... on
   Start iteration      DIISMaxIt       ....    12
   Startup error        DIISStart       ....  0.200000
   # of expansion vecs  DIISMaxEq       ....     5
   Bias factor          DIISBfac        ....   1.050
   Max. coefficient     DIISMaxC        ....  10.000
 Newton-Raphson         CNVNR           .... off
 SOSCF                  CNVSOSCF        .... off
 Level Shifting         CNVShift        .... on
   Level shift para.    LevelShift      ....    0.2500
   Turn off err/grad.   ShiftErr        ....    0.0010
 Zerner damping         CNVZerner       .... off
 Static damping         CNVDamp         .... on
   Fraction old density DampFac         ....    0.7000
   Max. Damping (<1)    DampMax         ....    0.9800
   Min. Damping (>=0)   DampMin         ....    0.0000
   Turn off err/grad.   DampErr         ....    0.1000
 Fernandez-Rico         CNVRico         .... off

SCF Procedure:
 Maximum # iterations   MaxIter         ....   250
 SCF integral mode      SCFMode         .... Direct
   Integral package                     .... LIBINT
 Reset frequency        DirectResetFreq ....    20
 Integral Threshold     Thresh          ....  2.500e-11 Eh
 Primitive CutOff       TCut            ....  2.500e-12 Eh

Convergence Tolerance:
 Convergence Check Mode ConvCheckMode   .... Total+1el-Energy
 Convergence forced     ConvForced      .... 0
 Energy Change          TolE            ....  1.000e-08 Eh
 1-El. energy change                    ....  1.000e-05 Eh
 DIIS Error             TolErr          ....  5.000e-07


Diagonalization of the overlap matrix:
Smallest eigenvalue                        ... 3.959e-03
Time for diagonalization                   ...    0.001 sec
Threshold for overlap eigenvalues          ... 1.000e-08
Number of eigenvalues below threshold      ... 0
Time for construction of square roots      ...    0.001 sec
Total time needed                          ...    0.002 sec

-------------------
DFT GRID GENERATION
-------------------

General Integration Accuracy     IntAcc      ...  4.340
Radial Grid Type                 RadialGrid  ... Gauss-Chebyshev
Angular Grid (max. acc.)         AngularGrid ... Lebedev-110
Angular grid pruning method      GridPruning ... 3 (G Style)
Weight generation scheme         WeightScheme... Becke
Basis function cutoff            BFCut       ...    1.0000e-11
Integration weight cutoff        WCut        ...    1.0000e-14
Grids for H and He will be reduced by one unit

# of grid points (after initial pruning)     ...  10526 (   0.0 sec)
# of grid points (after weights+screening)   ...  10045 (   0.0 sec)
nearest neighbour list constructed           ...    0.0 sec
Grid point re-assignment to atoms done       ...    0.0 sec
Grid point division into batches done        ...    0.0 sec
Reduced shell lists constructed in    0.0 sec

Total number of grid points                  ...    10045
Total number of batches                      ...      162
Average number of points per batch           ...       62
Average number of grid points per atom       ...     1004
Average number of shells per batch           ...    35.69 (91.51%)
Average number of basis functions per batch  ...    70.45 (91.50%)
Average number of large shells per batch     ...    32.93 (92.26%)
Average number of large basis fcns per batch ...    64.40 (91.42%)
Maximum spatial batch extension              ...  18.51, 19.45, 14.80 au
Average spatial batch extension              ...   0.67,  0.68,  0.66 au

Time for grid setup =    0.030 sec

------------------------------
INITIAL GUESS: MODEL POTENTIAL
------------------------------
Loading Hartree-Fock densities                     ... done
Calculating cut-offs                               ... done
Setting up the integral package                    ... done
Initializing the effective Hamiltonian             ... done
Starting the Coulomb interaction                   ... done (   0.0 sec)
Reading the grid                                   ... done
Mapping shells                                     ... done
Starting the XC term evaluation                    ... done (   0.0 sec)
  promolecular density results
     # of electrons  =     24.994902581
     EX              =    -17.343461804
     EC              =     -0.778897534
     EX+EC           =    -18.122359339
Transforming the Hamiltonian                       ... done (   0.0 sec)
Diagonalizing the Hamiltonian                      ... done (   0.0 sec)
Back transforming the eigenvectors                 ... done (   0.0 sec)
Now organizing SCF variables                       ... done
                      ------------------
                      INITIAL GUESS DONE (   0.1 sec)
                      ------------------

--------------------
CPCM SOLVATION MODEL
--------------------
CPCM parameters:
  Epsilon                                         ...      80.4000
  Refrac                                          ...       1.3300
  Rsolv                                           ...       1.3000
  Surface type                                    ... GAUSSIAN VDW
  Epsilon function type                           ...         CPCM
Radii:
 Radius for C  used is    3.8550 Bohr (=   2.0400 Ang.)
 Radius for H  used is    2.4944 Bohr (=   1.3200 Ang.)
Calculating surface                               ...        done! (  0.0s)
GEPOL surface points                              ...          622
GEPOL Volume                                      ...     536.9389
GEPOL Surface-area                                ...     353.4338
Calculating surface distance matrix               ...        done! (  0.0s)
Performing Cholesky decomposition & store         ...        done! (  0.0s)
Overall time for CPCM initialization              ...                 0.0s
--------------
SCF ITERATIONS
--------------
ITER       Energy         Delta-E        Max-DP      RMS-DP      [F,P]     Damp
               ***  Starting incremental Fock matrix formation  ***
  0   -118.1113507250   0.000000000000 0.03657173  0.00160929  0.1580330 0.7000
  1   -118.1606799744  -0.049329249441 0.02114505  0.00118005  0.0763053 0.7000
                               ***Turning on DIIS***
  2   -118.1785727295  -0.017892755077 0.02702568  0.00197189  0.0222948 0.0000
  3   -118.2023361274  -0.023763397883 0.01529818  0.00076299  0.0482176 0.0000
  4   -118.2115398349  -0.009203707525 0.00467082  0.00026067  0.0105608 0.0000
  5   -118.2120934002  -0.000553565245 0.00177847  0.00010583  0.0025903 0.0000
  6   -118.2121418941  -0.000048493966 0.00134174  0.00007376  0.0005954 0.0000
  7   -118.2121478498  -0.000005955663 0.00026863  0.00000739  0.0002757 0.0000
  8   -118.2121481109  -0.000000261062 0.00010596  0.00000327  0.0001352 0.0000
  9   -118.2121481964  -0.000000085546 0.00003359  0.00000112  0.0000164 0.0000
 10   -118.2121482043  -0.000000007851 0.00000833  0.00000028  0.0000067 0.0000
 11   -118.2121482053  -0.000000001035 0.00000447  0.00000016  0.0000025 0.0000
                 **** Energy Check signals convergence ****

               *****************************************************
               *                     SUCCESS                       *
               *           SCF CONVERGED AFTER  12 CYCLES          *
               *****************************************************

Setting up the final grid:

General Integration Accuracy     IntAcc      ...  4.670
Radial Grid Type                 RadialGrid  ... Gauss-Chebyshev
Angular Grid (max. acc.)         AngularGrid ... Lebedev-302
Angular grid pruning method      GridPruning ... 3 (G Style)
Weight generation scheme         WeightScheme... Becke
Basis function cutoff            BFCut       ...    1.0000e-11
Integration weight cutoff        WCut        ...    1.0000e-14
Grids for H and He will be reduced by one unit

# of grid points (after initial pruning)     ...  42394 (   0.0 sec)
# of grid points (after weights+screening)   ...  40016 (   0.0 sec)
nearest neighbour list constructed           ...    0.0 sec
Grid point re-assignment to atoms done       ...    0.0 sec
Grid point division into batches done        ...    0.1 sec
Reduced shell lists constructed in    0.1 sec

Total number of grid points                  ...    40016
Total number of batches                      ...      632
Average number of points per batch           ...       63
Average number of grid points per atom       ...     4002
Average number of shells per batch           ...    34.87 (89.40%)
Average number of basis functions per batch  ...    68.89 (89.47%)
Average number of large shells per batch     ...    31.28 (89.70%)
Average number of large basis fcns per batch ...    60.94 (88.45%)
Maximum spatial batch extension              ...  17.69, 17.87, 15.81 au
Average spatial batch extension              ...   0.44,  0.48,  0.45 au

Final grid set up in    0.1 sec
Final integration                            ... done (   0.1 sec)
Change in XC energy                          ...     0.000272327
Integrated number of electrons               ...    24.999922362
Previous integrated no of electrons          ...    25.000210186

----------------
TOTAL SCF ENERGY
----------------

Total Energy       :         -118.21187588 Eh           -3216.70868 eV

Components:
Nuclear Repulsion  :           75.07941912 Eh            2043.01486 eV
Electronic Energy  :         -193.29129500 Eh           -5259.72354 eV
One Electron Energy:         -306.08180299 Eh           -8328.90929 eV
Two Electron Energy:          112.79050799 Eh            3069.18576 eV
CPCM Dielectric    :           -0.00114788 Eh              -0.03124 eV

Virial components:
Potential Energy   :         -234.90586120 Eh           -6392.11345 eV
Kinetic Energy     :          116.69398532 Eh            3175.40477 eV
Virial Ratio       :            2.01300744


DFT components:
N(Alpha)           :       12.999957808482 electrons
N(Beta)            :       11.999964553733 electrons
N(Total)           :       24.999922362215 electrons
E(X)               :      -17.837052224708 Eh       
E(C)               :       -0.790289988289 Eh       
E(XC)              :      -18.627342212997 Eh       
DFET-embed. en.    :        0.000000000000 Eh       
CPCM Solvation Model Properties:
Surface-charge          :           -0.02027579
Charge-correction       :            0.00001722 Eh               0.00047 eV
Free-energy (cav+disp)  :            0.00317196 Eh               0.08631 eV
Corrected G(solv)       :         -118.20868670 Eh           -3216.62189 eV

---------------
SCF CONVERGENCE
---------------

  Last Energy change         ...    1.7327e-10  Tolerance :   1.0000e-08
  Last MAX-Density change    ...    2.4375e-06  Tolerance :   1.0000e-07
  Last RMS-Density change    ...    9.1791e-08  Tolerance :   5.0000e-09
  Last DIIS Error            ...    6.4936e-07  Tolerance :   5.0000e-07

             **** THE GBW FILE WAS UPDATED (m-mfaV_2-6_hl1d_fbond_scan_11_orca.gbw) ****
             **** DENSITY FILE WAS UPDATED (m-mfaV_2-6_hl1d_fbond_scan_11_orca.scfp) ****
             **** ENERGY FILE WAS UPDATED (m-mfaV_2-6_hl1d_fbond_scan_11_orca.en.tmp) ****
----------------------
UHF SPIN CONTAMINATION
----------------------

Warning: in a DFT calculation there is little theoretical justification to 
         calculate <S**2> as in Hartree-Fock theory. We will do it anyways
         but you should keep in mind that the values have only limited relevance

Expectation value of <S**2>     :     0.753332
Ideal value S*(S+1) for S=0.5   :     0.750000
Deviation                       :     0.003332

             **** THE GBW FILE WAS UPDATED (m-mfaV_2-6_hl1d_fbond_scan_11_orca.gbw) ****
             **** DENSITY FILE WAS UPDATED (m-mfaV_2-6_hl1d_fbond_scan_11_orca.scfp) ****
----------------
ORBITAL ENERGIES
----------------
                 SPIN UP ORBITALS
  NO   OCC          E(Eh)            E(eV) 
   0   1.0000      -9.897392      -269.3217 
   1   1.0000      -9.889211      -269.0991 
   2   1.0000      -9.885788      -269.0060 
   3   1.0000      -0.695663       -18.9300 
   4   1.0000      -0.610413       -16.6102 
   5   1.0000      -0.497459       -13.5366 
   6   1.0000      -0.397077       -10.8050 
   7   1.0000      -0.373007       -10.1500 
   8   1.0000      -0.357717        -9.7340 
   9   1.0000      -0.331689        -9.0257 
  10   1.0000      -0.307486        -8.3671 
  11   1.0000      -0.296965        -8.0808 
  12   1.0000      -0.143750        -3.9116 
  13   0.0000       0.048916         1.3311 
  14   0.0000       0.075458         2.0533 
  15   0.0000       0.085183         2.3179 
  16   0.0000       0.111831         3.0431 
  17   0.0000       0.126838         3.4514 
  18   0.0000       0.129518         3.5244 
  19   0.0000       0.137122         3.7313 
  20   0.0000       0.209732         5.7071 
  21   0.0000       0.251043         6.8312 
  22   0.0000       0.360733         9.8161 
  23   0.0000       0.395294        10.7565 
  24   0.0000       0.414217        11.2714 
  25   0.0000       0.431825        11.7505 
  26   0.0000       0.440095        11.9756 
  27   0.0000       0.494233        13.4488 
  28   0.0000       0.569700        15.5023 
  29   0.0000       0.580905        15.8072 
  30   0.0000       0.596562        16.2333 
  31   0.0000       0.604982        16.4624 
  32   0.0000       0.615730        16.7549 
  33   0.0000       0.630230        17.1494 
  34   0.0000       0.637957        17.3597 
  35   0.0000       0.646597        17.5948 
  36   0.0000       0.647535        17.6203 
  37   0.0000       0.667602        18.1664 
  38   0.0000       0.688816        18.7436 
  39   0.0000       0.805765        21.9260 
  40   0.0000       0.916640        24.9430 
  41   0.0000       1.084180        29.5020 
  42   0.0000       1.102158        29.9913 
  43   0.0000       1.219116        33.1738 
  44   0.0000       1.359613        36.9970 
  45   0.0000       1.453007        39.5383 
  46   0.0000       1.472522        40.0694 
  47   0.0000       1.482765        40.3481 
  48   0.0000       1.510566        41.1046 
  49   0.0000       1.624501        44.2049 
  50   0.0000       1.636675        44.5362 
  51   0.0000       1.685147        45.8552 
  52   0.0000       1.703511        46.3549 
  53   0.0000       1.726231        46.9731 
  54   0.0000       1.737291        47.2741 
  55   0.0000       1.756500        47.7968 
  56   0.0000       1.817337        49.4523 
  57   0.0000       1.821742        49.5721 
  58   0.0000       1.834624        49.9227 
  59   0.0000       1.919939        52.2442 
  60   0.0000       2.030438        55.2510 
  61   0.0000       2.100042        57.1451 
  62   0.0000       2.120689        57.7069 
  63   0.0000       2.158360        58.7320 
  64   0.0000       2.304446        62.7072 
  65   0.0000       2.308606        62.8204 
  66   0.0000       2.400491        65.3207 
  67   0.0000       2.460106        66.9429 
  68   0.0000       2.478739        67.4499 
  69   0.0000       2.507527        68.2333 
  70   0.0000       2.629951        71.5646 
  71   0.0000       2.754663        74.9582 
  72   0.0000       2.822939        76.8161 
  73   0.0000       2.835618        77.1611 
  74   0.0000       2.849419        77.5366 
  75   0.0000       2.919446        79.4422 
  76   0.0000       3.013641        82.0053 

                 SPIN DOWN ORBITALS
  NO   OCC          E(Eh)            E(eV) 
   0   1.0000      -9.890015      -269.1210 
   1   1.0000      -9.886549      -269.0267 
   2   1.0000      -9.884143      -268.9612 
   3   1.0000      -0.681138       -18.5347 
   4   1.0000      -0.607908       -16.5420 
   5   1.0000      -0.480818       -13.0837 
   6   1.0000      -0.392017       -10.6673 
   7   1.0000      -0.359249        -9.7757 
   8   1.0000      -0.352180        -9.5833 
   9   1.0000      -0.327222        -8.9042 
  10   1.0000      -0.304226        -8.2784 
  11   1.0000      -0.292271        -7.9531 
  12   0.0000      -0.066586        -1.8119 
  13   0.0000       0.052198         1.4204 
  14   0.0000       0.079388         2.1602 
  15   0.0000       0.088589         2.4106 
  16   0.0000       0.119529         3.2526 
  17   0.0000       0.133036         3.6201 
  18   0.0000       0.135278         3.6811 
  19   0.0000       0.139966         3.8087 
  20   0.0000       0.222697         6.0599 
  21   0.0000       0.257993         7.0203 
  22   0.0000       0.364217         9.9108 
  23   0.0000       0.399212        10.8631 
  24   0.0000       0.433535        11.7971 
  25   0.0000       0.439115        11.9489 
  26   0.0000       0.459637        12.5074 
  27   0.0000       0.540276        14.7016 
  28   0.0000       0.584356        15.9011 
  29   0.0000       0.587513        15.9871 
  30   0.0000       0.601454        16.3664 
  31   0.0000       0.612677        16.6718 
  32   0.0000       0.627990        17.0885 
  33   0.0000       0.638188        17.3660 
  34   0.0000       0.639868        17.4117 
  35   0.0000       0.651805        17.7365 
  36   0.0000       0.654459        17.8087 
  37   0.0000       0.672535        18.3006 
  38   0.0000       0.695522        18.9261 
  39   0.0000       0.815258        22.1843 
  40   0.0000       0.920900        25.0590 
  41   0.0000       1.092520        29.7290 
  42   0.0000       1.116817        30.3901 
  43   0.0000       1.219927        33.1959 
  44   0.0000       1.368471        37.2380 
  45   0.0000       1.468397        39.9571 
  46   0.0000       1.478845        40.2414 
  47   0.0000       1.488562        40.5058 
  48   0.0000       1.533878        41.7390 
  49   0.0000       1.630358        44.3643 
  50   0.0000       1.644807        44.7575 
  51   0.0000       1.699301        46.2403 
  52   0.0000       1.717887        46.7461 
  53   0.0000       1.739445        47.3327 
  54   0.0000       1.752529        47.6887 
  55   0.0000       1.762432        47.9582 
  56   0.0000       1.823455        49.6187 
  57   0.0000       1.831478        49.8371 
  58   0.0000       1.836623        49.9770 
  59   0.0000       1.944193        52.9042 
  60   0.0000       2.053560        55.8802 
  61   0.0000       2.118985        57.6605 
  62   0.0000       2.146815        58.4178 
  63   0.0000       2.163955        58.8842 
  64   0.0000       2.310368        62.8683 
  65   0.0000       2.312774        62.9338 
  66   0.0000       2.411046        65.6079 
  67   0.0000       2.477290        67.4105 
  68   0.0000       2.490079        67.7585 
  69   0.0000       2.512977        68.3816 
  70   0.0000       2.642563        71.9078 
  71   0.0000       2.761163        75.1351 
  72   0.0000       2.828101        76.9565 
  73   0.0000       2.841248        77.3143 
  74   0.0000       2.854561        77.6766 
  75   0.0000       2.925119        79.5965 
  76   0.0000       3.020536        82.1930 

                    ********************************
                    * MULLIKEN POPULATION ANALYSIS *
                    ********************************

--------------------------------------------
MULLIKEN ATOMIC CHARGES AND SPIN POPULATIONS
--------------------------------------------
   0 C :   -0.033262   -0.082670
   1 C :   -0.212310    1.009201
   2 C :   -0.013797   -0.080285
   3 H :    0.041735    0.071451
   4 H :    0.040053    0.011016
   5 H :    0.036990    0.019043
   6 H :    0.033405    0.065817
   7 H :    0.036496   -0.045355
   8 H :    0.034939    0.021234
   9 H :    0.035751    0.010550
Sum of atomic charges         :    0.0000000
Sum of atomic spin populations:    1.0000000

-----------------------------------------------------
MULLIKEN REDUCED ORBITAL CHARGES AND SPIN POPULATIONS
-----------------------------------------------------
CHARGE
  0 C s       :     3.015211  s :     3.015211
      pz      :     1.014435  p :     2.992340
      px      :     0.979631
      py      :     0.998274
      dz2     :     0.004229  d :     0.025712
      dxz     :     0.004678
      dyz     :     0.005776
      dx2y2   :     0.004713
      dxy     :     0.006315
  1 C s       :     3.221758  s :     3.221758
      pz      :     1.028343  p :     2.961130
      px      :     0.964310
      py      :     0.968477
      dz2     :     0.002551  d :     0.029421
      dxz     :     0.004996
      dyz     :     0.002826
      dx2y2   :     0.010486
      dxy     :     0.008562
  2 C s       :     2.994644  s :     2.994644
      pz      :     1.019650  p :     2.992859
      px      :     0.980258
      py      :     0.992951
      dz2     :     0.004652  d :     0.026294
      dxz     :     0.003971
      dyz     :     0.006507
      dx2y2   :     0.005005
      dxy     :     0.006158
  3 H s       :     0.934968  s :     0.934968
      pz      :     0.011841  p :     0.023297
      px      :     0.005216
      py      :     0.006240
  4 H s       :     0.937154  s :     0.937154
      pz      :     0.005954  p :     0.022793
      px      :     0.008887
      py      :     0.007952
  5 H s       :     0.940148  s :     0.940148
      pz      :     0.008382  p :     0.022862
      px      :     0.004335
      py      :     0.010145
  6 H s       :     0.941396  s :     0.941396
      pz      :     0.012522  p :     0.025199
      px      :     0.005648
      py      :     0.007028
  7 H s       :     0.941460  s :     0.941460
      pz      :     0.005911  p :     0.022044
      px      :     0.003320
      py      :     0.012813
  8 H s       :     0.942027  s :     0.942027
      pz      :     0.008662  p :     0.023034
      px      :     0.004380
      py      :     0.009992
  9 H s       :     0.941307  s :     0.941307
      pz      :     0.005900  p :     0.022942
      px      :     0.009800
      py      :     0.007242

SPIN
  0 C s       :    -0.025897  s :    -0.025897
      pz      :    -0.020348  p :    -0.063679
      px      :    -0.029576
      py      :    -0.013755
      dz2     :     0.000411  d :     0.006906
      dxz     :     0.004014
      dyz     :     0.002191
      dx2y2   :     0.000012
      dxy     :     0.000278
  1 C s       :     0.110454  s :     0.110454
      pz      :     0.813602  p :     0.900698
      px      :     0.031039
      py      :     0.056058
      dz2     :    -0.002052  d :    -0.001951
      dxz     :     0.000265
      dyz     :    -0.000183
      dx2y2   :     0.000148
      dxy     :    -0.000129
  2 C s       :    -0.025856  s :    -0.025856
      pz      :    -0.018668  p :    -0.061543
      px      :    -0.026959
      py      :    -0.015916
      dz2     :     0.000499  d :     0.007114
      dxz     :     0.003378
      dyz     :     0.002965
      dx2y2   :     0.000057
      dxy     :     0.000214
  3 H s       :     0.071673  s :     0.071673
      pz      :    -0.000219  p :    -0.000222
      px      :     0.000020
      py      :    -0.000024
  4 H s       :     0.011185  s :     0.011185
      pz      :    -0.000012  p :    -0.000169
      px      :    -0.000143
      py      :    -0.000014
  5 H s       :     0.019285  s :     0.019285
      pz      :    -0.000065  p :    -0.000242
      px      :    -0.000054
      py      :    -0.000123
  6 H s       :     0.066001  s :     0.066001
      pz      :    -0.000197  p :    -0.000183
      px      :     0.000064
      py      :    -0.000050
  7 H s       :    -0.050277  s :    -0.050277
      pz      :     0.004616  p :     0.004922
      px      :    -0.000175
      py      :     0.000481
  8 H s       :     0.021466  s :     0.021466
      pz      :    -0.000064  p :    -0.000232
      px      :    -0.000027
      py      :    -0.000141
  9 H s       :     0.010707  s :     0.010707
      pz      :     0.000004  p :    -0.000158
      px      :    -0.000129
      py      :    -0.000033


                     *******************************
                     * LOEWDIN POPULATION ANALYSIS *
                     *******************************

-------------------------------------------
LOEWDIN ATOMIC CHARGES AND SPIN POPULATIONS
-------------------------------------------
   0 C :   -0.090484   -0.011075
   1 C :   -0.057975    0.848372
   2 C :   -0.086767   -0.008403
   3 H :    0.038688    0.061326
   4 H :    0.037000    0.009417
   5 H :    0.034836    0.016308
   6 H :    0.034255    0.056691
   7 H :    0.017793    0.000417
   8 H :    0.035604    0.018045
   9 H :    0.037050    0.008901

----------------------------------------------------
LOEWDIN REDUCED ORBITAL CHARGES AND SPIN POPULATIONS
----------------------------------------------------
CHARGE
  0 C s       :     2.850664  s :     2.850664
      pz      :     1.062526  p :     3.167391
      px      :     1.043292
      py      :     1.061573
      dz2     :     0.012737  d :     0.072429
      dxz     :     0.011778
      dyz     :     0.016711
      dx2y2   :     0.012631
      dxy     :     0.018572
  1 C s       :     2.915762  s :     2.915762
      pz      :     0.995351  p :     3.070355
      px      :     1.027356
      py      :     1.047649
      dz2     :     0.005137  d :     0.071859
      dxz     :     0.009041
      dyz     :     0.005246
      dx2y2   :     0.028037
      dxy     :     0.024397
  2 C s       :     2.840780  s :     2.840780
      pz      :     1.069888  p :     3.171766
      px      :     1.043575
      py      :     1.058304
      dz2     :     0.013776  d :     0.074221
      dxz     :     0.009858
      dyz     :     0.018756
      dx2y2   :     0.012786
      dxy     :     0.019045
  3 H s       :     0.897218  s :     0.897218
      pz      :     0.034455  p :     0.064094
      px      :     0.014221
      py      :     0.015417
  4 H s       :     0.899371  s :     0.899371
      pz      :     0.014483  p :     0.063629
      px      :     0.026809
      py      :     0.022336
  5 H s       :     0.901697  s :     0.901697
      pz      :     0.022076  p :     0.063467
      px      :     0.011592
      py      :     0.029799
  6 H s       :     0.895729  s :     0.895729
      pz      :     0.036355  p :     0.070015
      px      :     0.015429
      py      :     0.018232
  7 H s       :     0.909860  s :     0.909860
      pz      :     0.022063  p :     0.072347
      px      :     0.010790
      py      :     0.039494
  8 H s       :     0.901039  s :     0.901039
      pz      :     0.022308  p :     0.063358
      px      :     0.011539
      py      :     0.029510
  9 H s       :     0.899496  s :     0.899496
      pz      :     0.014063  p :     0.063454
      px      :     0.029426
      py      :     0.019966

SPIN
  0 C s       :    -0.004998  s :    -0.004998
      pz      :    -0.006397  p :    -0.024546
      px      :    -0.012735
      py      :    -0.005414
      dz2     :     0.001548  d :     0.018469
      dxz     :     0.009644
      dyz     :     0.005733
      dx2y2   :     0.000354
      dxy     :     0.001190
  1 C s       :     0.034958  s :     0.034958
      pz      :     0.764671  p :     0.816482
      px      :     0.016073
      py      :     0.035738
      dz2     :    -0.001654  d :    -0.003068
      dxz     :     0.000112
      dyz     :    -0.000063
      dx2y2   :    -0.000661
      dxy     :    -0.000802
  2 C s       :    -0.004934  s :    -0.004934
      pz      :    -0.004726  p :    -0.022365
      px      :    -0.011449
      py      :    -0.006190
      dz2     :     0.001727  d :     0.018896
      dxz     :     0.008032
      dyz     :     0.007663
      dx2y2   :     0.000377
      dxy     :     0.001097
  3 H s       :     0.061787  s :     0.061787
      pz      :    -0.000686  p :    -0.000462
      px      :     0.000197
      py      :     0.000027
  4 H s       :     0.010159  s :     0.010159
      pz      :    -0.000117  p :    -0.000742
      px      :    -0.000422
      py      :    -0.000203
  5 H s       :     0.017038  s :     0.017038
      pz      :    -0.000060  p :    -0.000730
      px      :    -0.000250
      py      :    -0.000420
  6 H s       :     0.057083  s :     0.057083
      pz      :    -0.000592  p :    -0.000391
      px      :     0.000187
      py      :     0.000014
  7 H s       :    -0.021655  s :    -0.021655
      pz      :     0.018581  p :     0.022073
      px      :     0.000282
      py      :     0.003210
  8 H s       :     0.018716  s :     0.018716
      pz      :    -0.000004  p :    -0.000671
      px      :    -0.000211
      py      :    -0.000456
  9 H s       :     0.009559  s :     0.009559
      pz      :    -0.000048  p :    -0.000658
      px      :    -0.000386
      py      :    -0.000223


                      *****************************
                      * MAYER POPULATION ANALYSIS *
                      *****************************

  NA   - Mulliken gross atomic population
  ZA   - Total nuclear charge
  QA   - Mulliken gross atomic charge
  VA   - Mayer's total valence
  BVA  - Mayer's bonded valence
  FA   - Mayer's free valence

  ATOM       NA         ZA         QA         VA         BVA        FA
  0 C      6.0333     6.0000    -0.0333     3.9640     3.9608     0.0032
  1 C      6.2123     6.0000    -0.2123     4.0773     3.3428     0.7345
  2 C      6.0138     6.0000    -0.0138     3.9649     3.9618     0.0031
  3 H      0.9583     1.0000     0.0417     0.9804     0.9751     0.0054
  4 H      0.9599     1.0000     0.0401     0.9832     0.9831     0.0001
  5 H      0.9630     1.0000     0.0370     0.9903     0.9899     0.0004
  6 H      0.9666     1.0000     0.0334     0.9835     0.9790     0.0046
  7 H      0.9635     1.0000     0.0365     0.9791     0.9765     0.0026
  8 H      0.9651     1.0000     0.0349     0.9909     0.9904     0.0005
  9 H      0.9642     1.0000     0.0358     0.9841     0.9840     0.0001

  Mayer bond orders larger than 0.100000
B(  0-C ,  1-C ) :   1.1215 B(  0-C ,  3-H ) :   0.9360 B(  0-C ,  4-H ) :   0.9581 
B(  0-C ,  5-H ) :   0.9574 B(  1-C ,  2-C ) :   1.1213 B(  1-C ,  7-H ) :   0.9610 
B(  2-C ,  6-H ) :   0.9391 B(  2-C ,  8-H ) :   0.9558 B(  2-C ,  9-H ) :   0.9577 



------------------
HIRSHFELD ANALYSIS
------------------

Total integrated alpha density =     13.000926133
Total integrated beta density  =     11.999284053

  ATOM     CHARGE      SPIN    
   0 C   -0.082922    0.052709
   1 C   -0.031568    0.684141
   2 C   -0.084023    0.054666
   3 H    0.029488    0.055995
   4 H    0.030554    0.011848
   5 H    0.029043    0.017101
   6 H    0.029450    0.052079
   7 H    0.018578    0.043102
   8 H    0.030037    0.018680
   9 H    0.031153    0.011321

  TOTAL  -0.000210    1.001642

-------
TIMINGS
-------

Total SCF time: 0 days 0 hours 0 min 4 sec 

Total time                  ....       4.209 sec
Sum of individual times     ....       4.101 sec  ( 97.5%)

Fock matrix formation       ....       3.775 sec  ( 89.7%)
  Split-RI-J                ....       1.040 sec  ( 27.5% of F)
  XC integration            ....       0.407 sec  ( 10.8% of F)
    Basis function eval.    ....       0.119 sec  ( 29.2% of XC)
    Density eval.           ....       0.077 sec  ( 18.9% of XC)
    XC-Functional eval.     ....       0.036 sec  (  8.8% of XC)
    XC-Potential eval.      ....       0.141 sec  ( 34.7% of XC)
Diagonalization             ....       0.019 sec  (  0.4%)
Density matrix formation    ....       0.001 sec  (  0.0%)
Population analysis         ....       0.018 sec  (  0.4%)
Initial guess               ....       0.107 sec  (  2.5%)
Orbital Transformation      ....       0.000 sec  (  0.0%)
Orbital Orthonormalization  ....       0.000 sec  (  0.0%)
DIIS solution               ....       0.007 sec  (  0.2%)
Grid generation             ....       0.175 sec  (  4.2%)


-------------------------------------------------------------------------------
                          DFT DISPERSION CORRECTION                            
                                                                               
                              DFTD3 V3.1  Rev 1                                
                          USING Becke-Johnson damping                          
-------------------------------------------------------------------------------
The PBE functional is recognized
Active option DFTDOPT                   ...         4   

molecular C6(AA) [au] = 670.499324 


            DFT-D V3
 parameters
 s6 scaling factor         :     1.0000 
 a1 scaling factor         :     0.4289 
 s8 scaling factor         :     0.7875 
 a2 scaling factor         :     4.4407 
 ad hoc parameters k1-k3   :    16.0000     1.3333    -4.0000 

 Edisp/kcal,au: -3.321284662569  -0.005292803448 
 E6   /kcal   :  -2.412650334 
 E8   /kcal   :  -0.908634328 
 % E8         :  27.357917807 

-------------------------   ----------------
Dispersion correction           -0.005292803
-------------------------   ----------------


-------------------------   --------------------
FINAL SINGLE POINT ENERGY      -118.217168681470
-------------------------   --------------------

[1589382967.246847] [ty2019:17382:0]            sys.c:618  UCX  ERROR shmget(size=2097152 flags=0xfb0) for mm_recv_desc failed: Operation not permitted, please check shared memory limits by 'ipcs -l'
[1589382967.252363] [ty2019:17380:0]            sys.c:618  UCX  ERROR shmget(size=2097152 flags=0xfb0) for mm_recv_desc failed: Operation not permitted, please check shared memory limits by 'ipcs -l'
[1589382967.255094] [ty2019:17379:0]            sys.c:618  UCX  ERROR shmget(size=2097152 flags=0xfb0) for mm_recv_desc failed: Operation not permitted, please check shared memory limits by 'ipcs -l'
[1589382967.255678] [ty2019:17381:0]            sys.c:618  UCX  ERROR shmget(size=2097152 flags=0xfb0) for mm_recv_desc failed: Operation not permitted, please check shared memory limits by 'ipcs -l'
[1589382967.262656] [ty2019:17379:0]            sys.c:618  UCX  ERROR shmget(size=2097152 flags=0xb80) for ucp_am_bufs failed: Operation not permitted, please check shared memory limits by 'ipcs -l'


           ************************************************************
           *        Program running with 4 parallel MPI-processes     *
           *              working on a common directory               *
           ************************************************************
[1589382967.266870] [ty2019:17380:0]            sys.c:618  UCX  ERROR shmget(size=2097152 flags=0xb80) for ucp_am_bufs failed: Operation not permitted, please check shared memory limits by 'ipcs -l'
[1589382967.266873] [ty2019:17381:0]            sys.c:618  UCX  ERROR shmget(size=2097152 flags=0xb80) for ucp_am_bufs failed: Operation not permitted, please check shared memory limits by 'ipcs -l'
------------------------------------------------------------------------------
                         ORCA SCF GRADIENT CALCULATION
------------------------------------------------------------------------------

[1589382967.270226] [ty2019:17382:0]            sys.c:618  UCX  ERROR shmget(size=2097152 flags=0xb80) for ucp_am_bufs failed: Operation not permitted, please check shared memory limits by 'ipcs -l'
Gradient of the Kohn-Sham DFT energy:
Kohn-Sham wavefunction type      ... UKS
Hartree-Fock exchange scaling    ...    0.000
Number of operators              ...    2
Number of atoms                  ...   10
Basis set dimensions             ...   77
Integral neglect threshold       ... 2.5e-11
Integral primitive cutoff        ... 2.5e-12

Nuclear repulsion gradient       ... done
One Electron Gradient            ... done
Pre-screening matrix             ... done
RI-J gradient                    ... done
Exchange-correlation gradient    ... done
Dispersion correction            ... done

------------------
CARTESIAN GRADIENT
------------------

   1   C   :   -0.000145661    0.000109667   -0.000214139
   2   C   :    0.002181071    0.001842488    0.000951307
   3   C   :    0.000610914    0.004542235    0.015495001
   4   H   :    0.000143539   -0.000156212    0.000023786
   5   H   :    0.000086939   -0.000005923   -0.000042565
   6   H   :    0.000015175   -0.000013050    0.000088824
   7   H   :   -0.003520228   -0.007571061   -0.019559480
   8   H   :    0.000072897    0.000027107    0.000012650
   9   H   :    0.000234626    0.000695618    0.001697125
  10   H   :    0.000320729    0.000529133    0.001547490

Difference to translation invariance:
           :   -0.0000000000   -0.0000000000   -0.0000000000

Norm of the cartesian gradient     ...    0.0269960834
RMS gradient                       ...    0.0049287879
MAX gradient                       ...    0.0195594795

-------
TIMINGS
-------

Total SCF gradient time            ...        0.852 sec

One electron gradient       ....       0.008 sec  (  1.0%)
Prescreening matrices       ....       0.009 sec  (  1.1%)
RI-J Coulomb gradient       ....       0.108 sec  ( 12.6%)
XC gradient                 ....       0.280 sec  ( 32.9%)
CPCM gradient               ....       0.120 sec  ( 14.0%)
   A-Matrix (El+Nuc)        ....       0.021 sec  (  2.5%)
   Potential                ....       0.098 sec  ( 11.6%)
------------------------------------------------------------------------------
                         ORCA GEOMETRY RELAXATION STEP
------------------------------------------------------------------------------

Reading the OPT-File                    .... done
Getting information on internals        .... done
Copying old internal coords+grads       .... done
Making the new internal coordinates     .... (new redundants).... done
Validating the new internal coordinates .... (new redundants).... done
Calculating the B-matrix                .... done
Calculating the G,G- and P matrices     .... done
Transforming gradient to internals      .... done
Projecting the internal gradient        .... done
Number of atoms                         ....  10
Number of internal coordinates          ....  36
Current Energy                          ....  -118.217168681 Eh
Current gradient norm                   ....     0.026996083 Eh/bohr
Maximum allowed component of the step   ....  0.300
Current trust radius                    ....  0.300
Evaluating the initial hessian          ....  (Almloef) done
Projecting the Hessian                  .... done
Forming the augmented Hessian           .... done
Diagonalizing the augmented Hessian     .... done
Last element of RFO vector              ....  0.999760078
Lowest eigenvalues of augmented Hessian:
 -0.000075690  0.013790214  0.014258840  0.016333139  0.125153733
Length of the computed step             ....  0.021909291
The final length of the internal step   ....  0.021909291
Converting the step to cartesian space:
 Initial RMS(Int)=    0.0036515484
Transforming coordinates:
 Iter   0:  RMS(Cart)=    0.0028919573 RMS(Int)=    0.0036485179
 Iter   1:  RMS(Cart)=    0.0000139021 RMS(Int)=    0.0000119305
 Iter   2:  RMS(Cart)=    0.0000000524 RMS(Int)=    0.0000000602
Imposing constraints:
 Iter   0:  RMS(Cart)=    0.0000000000 RMS(Int)=    0.0000000000
CONVERGED
done
Storing new coordinates                 .... done

                                .--------------------.
          ----------------------|Geometry convergence|-------------------------
          Item                value                   Tolerance       Converged
          ---------------------------------------------------------------------
          RMS gradient        0.0007113976            0.0005000000      NO
          MAX gradient        0.0029622992            0.0020000000      NO
          RMS step            0.0036515484            0.0070000000      YES
          MAX step            0.0089637829            0.0100000000      YES
          ........................................................
          Max(Bonds)      0.0036      Max(Angles)    0.42
          Max(Dihed)        0.51      Max(Improp)    0.00
          ---------------------------------------------------------------------

The optimization has not yet converged - more geometry cycles are needed


    ---------------------------------------------------------------------------
                         Redundant Internal Coordinates
                            (Angstroem and degrees)

        Definition                    Value    dE/dq     Step     New-Value
    ----------------------------------------------------------------------------
     1. B(C   1,C   0)                1.4904 -0.000123  0.0002    1.4905   
     2. B(C   2,C   1)                1.4857 -0.002962  0.0036    1.4893   
     3. B(H   3,C   0)                1.1206 -0.000069  0.0001    1.1207   
     4. B(H   4,C   0)                1.1096 -0.000047  0.0001    1.1097   
     5. B(H   5,C   0)                1.1123 -0.000065  0.0001    1.1124   
     6. B(H   6,C   2)                1.0872 -0.021258  0.0000    1.0872 C 
     7. B(H   7,C   1)                1.1043 -0.000016  0.0000    1.1043   
     8. B(H   8,C   2)                1.1122 -0.000470  0.0007    1.1129   
     9. B(H   9,C   2)                1.1091 -0.000402  0.0006    1.1097   
    10. A(C   1,C   0,H   3)          112.02 -0.000250    0.05    112.06   
    11. A(C   1,C   0,H   5)          111.84  0.000070   -0.02    111.82   
    12. A(C   1,C   0,H   4)          112.39 -0.000065    0.01    112.40   
    13. A(H   3,C   0,H   4)          106.15  0.000122   -0.01    106.14   
    14. A(H   4,C   0,H   5)          108.41  0.000041   -0.02    108.39   
    15. A(H   3,C   0,H   5)          105.64  0.000100   -0.02    105.62   
    16. A(C   2,C   1,H   7)          118.23 -0.000147    0.02    118.24   
    17. A(C   0,C   1,H   7)          118.17 -0.000004   -0.01    118.16   
    18. A(C   0,C   1,C   2)          121.53  0.000162   -0.03    121.50   
    19. A(H   8,C   2,H   9)          108.80  0.000103   -0.30    108.51   
    20. A(C   1,C   2,H   8)          112.35  0.001057   -0.26    112.09   
    21. A(H   6,C   2,H   8)          104.72 -0.001387    0.42    105.14   
    22. A(C   1,C   2,H   9)          112.96  0.001039   -0.26    112.70   
    23. A(C   1,C   2,H   6)          112.01  0.000139    0.10    112.11   
    24. A(H   6,C   2,H   9)          105.45 -0.001261    0.37    105.82   
    25. D(C   2,C   1,C   0,H   5)     41.16 -0.000064    0.21     41.37   
    26. D(H   7,C   1,C   0,H   5)   -155.51 -0.000051    0.13   -155.37   
    27. D(H   7,C   1,C   0,H   4)    -33.29  0.000006    0.11    -33.18   
    28. D(C   2,C   1,C   0,H   4)    163.37 -0.000006    0.19    163.56   
    29. D(C   2,C   1,C   0,H   3)    -77.21 -0.000070    0.22    -77.00   
    30. D(H   7,C   1,C   0,H   3)     86.12 -0.000057    0.14     86.25   
    31. D(H   6,C   2,C   1,C   0)     75.85 -0.000019   -0.08     75.77   
    32. D(H   6,C   2,C   1,H   7)    -87.47 -0.000055    0.00    -87.47   
    33. D(H   8,C   2,C   1,C   0)    -41.69  0.000942   -0.51    -42.21   
    34. D(H   8,C   2,C   1,H   7)    154.98  0.000907   -0.43    154.55   
    35. D(H   9,C   2,C   1,C   0)   -165.25 -0.000825    0.29   -164.96   
    36. D(H   9,C   2,C   1,H   7)     31.43 -0.000861    0.38     31.80   
    ----------------------------------------------------------------------------

         *************************************************************
         *                GEOMETRY OPTIMIZATION CYCLE   2            *
         *************************************************************
---------------------------------
CARTESIAN COORDINATES (ANGSTROEM)
---------------------------------
  C     -1.303944    0.068180   -0.042281
  C      0.027841   -0.601095   -0.046078
  C      1.293206    0.183836   -0.020079
  H     -1.582905    0.444847    0.975670
  H     -2.121414   -0.614841   -0.353077
  H     -1.320323    0.960354   -0.706574
  H      1.502909    0.589481    0.966620
  H      0.072863   -1.673760    0.212528
  H      1.251323    1.067822   -0.694951
  H      2.180345   -0.424924   -0.291777

----------------------------
CARTESIAN COORDINATES (A.U.)
----------------------------
  NO LB      ZA    FRAG     MASS         X           Y           Z
   0 C     6.0000    0    12.011   -2.464097    0.128841   -0.079900
   1 C     6.0000    0    12.011    0.052611   -1.135905   -0.087075
   2 C     6.0000    0    12.011    2.443804    0.347399   -0.037944
   3 H     1.0000    0     1.008   -2.991257    0.840640    1.843748
   4 H     1.0000    0     1.008   -4.008891   -1.161880   -0.667218
   5 H     1.0000    0     1.008   -2.495049    1.814806   -1.335231
   6 H     1.0000    0     1.008    2.840086    1.113957    1.826647
   7 H     1.0000    0     1.008    0.137690   -3.162947    0.401619
   8 H     1.0000    0     1.008    2.364658    2.017891   -1.313267
   9 H     1.0000    0     1.008    4.120255   -0.802990   -0.551379

--------------------------------
INTERNAL COORDINATES (ANGSTROEM)
--------------------------------
 C      0   0   0     0.000000000000     0.00000000     0.00000000
 C      1   0   0     1.490500887119     0.00000000     0.00000000
 C      2   1   0     1.489275316374   121.49804650     0.00000000
 H      1   2   3     1.120678990638   112.06447681   283.00104352
 H      1   2   3     1.109670279490   112.40405942   163.56478626
 H      1   2   3     1.112442169283   111.82372300    41.37362308
 H      3   2   1     1.087243301090   112.10850565    75.77326679
 H      2   1   3     1.104315711227   118.16345073   163.25211185
 H      3   2   1     1.112940932409   112.09041581   317.79280512
 H      3   2   1     1.109695884348   112.69593964   195.04275712

---------------------------
INTERNAL COORDINATES (A.U.)
---------------------------
 C      0   0   0     0.000000000000     0.00000000     0.00000000
 C      1   0   0     2.816638479021     0.00000000     0.00000000
 C      2   1   0     2.814322485957   121.49804650     0.00000000
 H      1   2   3     2.117776376345   112.06447681   283.00104352
 H      1   2   3     2.096972927189   112.40405942   163.56478626
 H      1   2   3     2.102211039769   111.82372300    41.37362308
 H      3   2   1     2.054592080000   112.10850565    75.77326679
 H      2   1   3     2.086854259606   118.16345073   163.25211185
 H      3   2   1     2.103153565484   112.09041581   317.79280512
 H      3   2   1     2.097021313357   112.69593964   195.04275712

[1589382969.047677] [ty2019:17403:0]            sys.c:618  UCX  ERROR shmget(size=2097152 flags=0xfb0) for mm_recv_desc failed: Operation not permitted, please check shared memory limits by 'ipcs -l'
[1589382969.053014] [ty2019:17405:0]            sys.c:618  UCX  ERROR shmget(size=2097152 flags=0xfb0) for mm_recv_desc failed: Operation not permitted, please check shared memory limits by 'ipcs -l'
[1589382969.053379] [ty2019:17404:0]            sys.c:618  UCX  ERROR shmget(size=2097152 flags=0xfb0) for mm_recv_desc failed: Operation not permitted, please check shared memory limits by 'ipcs -l'
[1589382969.061431] [ty2019:17406:0]            sys.c:618  UCX  ERROR shmget(size=2097152 flags=0xfb0) for mm_recv_desc failed: Operation not permitted, please check shared memory limits by 'ipcs -l'
[1589382969.069448] [ty2019:17403:0]            sys.c:618  UCX  ERROR shmget(size=2097152 flags=0xb80) for ucp_am_bufs failed: Operation not permitted, please check shared memory limits by 'ipcs -l'
[1589382969.070099] [ty2019:17404:0]            sys.c:618  UCX  ERROR shmget(size=2097152 flags=0xb80) for ucp_am_bufs failed: Operation not permitted, please check shared memory limits by 'ipcs -l'
[1589382969.070664] [ty2019:17405:0]            sys.c:618  UCX  ERROR shmget(size=2097152 flags=0xb80) for ucp_am_bufs failed: Operation not permitted, please check shared memory limits by 'ipcs -l'


           ************************************************************
           *        Program running with 4 parallel MPI-processes     *
           *              working on a common directory               *
           ************************************************************
 One Electron integrals                  ... done
 Pre-screening matrix                    ... done
[1589382969.202008] [ty2019:17406:0]            sys.c:618  UCX  ERROR shmget(size=2097152 flags=0xb80) for ucp_am_bufs failed: Operation not permitted, please check shared memory limits by 'ipcs -l'
[1589382970.044465] [ty2019:17427:0]            sys.c:618  UCX  ERROR shmget(size=2097152 flags=0xfb0) for mm_recv_desc failed: Operation not permitted, please check shared memory limits by 'ipcs -l'
[1589382970.046302] [ty2019:17424:0]            sys.c:618  UCX  ERROR shmget(size=2097152 flags=0xfb0) for mm_recv_desc failed: Operation not permitted, please check shared memory limits by 'ipcs -l'
[1589382970.054808] [ty2019:17425:0]            sys.c:618  UCX  ERROR shmget(size=2097152 flags=0xfb0) for mm_recv_desc failed: Operation not permitted, please check shared memory limits by 'ipcs -l'
[1589382970.055651] [ty2019:17426:0]            sys.c:618  UCX  ERROR shmget(size=2097152 flags=0xfb0) for mm_recv_desc failed: Operation not permitted, please check shared memory limits by 'ipcs -l'
[1589382970.062285] [ty2019:17424:0]            sys.c:618  UCX  ERROR shmget(size=2097152 flags=0xb80) for ucp_am_bufs failed: Operation not permitted, please check shared memory limits by 'ipcs -l'
[1589382970.062935] [ty2019:17425:0]            sys.c:618  UCX  ERROR shmget(size=2097152 flags=0xb80) for ucp_am_bufs failed: Operation not permitted, please check shared memory limits by 'ipcs -l'
[1589382970.063503] [ty2019:17426:0]            sys.c:618  UCX  ERROR shmget(size=2097152 flags=0xb80) for ucp_am_bufs failed: Operation not permitted, please check shared memory limits by 'ipcs -l'


           ************************************************************
           *        Program running with 4 parallel MPI-processes     *
           *              working on a common directory               *
           ************************************************************

Diagonalization of the overlap matrix:
Smallest eigenvalue                        ... 3.986e-03
Time for diagonalization                   ...    0.003 sec
Threshold for overlap eigenvalues          ... 1.000e-08
Number of eigenvalues below threshold      ... 0
[1589382970.070566] [ty2019:17427:0]            sys.c:618  UCX  ERROR shmget(size=2097152 flags=0xb80) for ucp_am_bufs failed: Operation not permitted, please check shared memory limits by 'ipcs -l'
Time for construction of square roots      ...    0.001 sec
Total time needed                          ...    0.004 sec

-------------------
DFT GRID GENERATION
-------------------

General Integration Accuracy     IntAcc      ...  4.340
Radial Grid Type                 RadialGrid  ... Gauss-Chebyshev
Angular Grid (max. acc.)         AngularGrid ... Lebedev-110
Angular grid pruning method      GridPruning ... 3 (G Style)
Weight generation scheme         WeightScheme... Becke
Basis function cutoff            BFCut       ...    1.0000e-11
Integration weight cutoff        WCut        ...    1.0000e-14
Grids for H and He will be reduced by one unit

# of grid points (after initial pruning)     ...  10526 (   0.0 sec)
# of grid points (after weights+screening)   ...  10045 (   0.0 sec)
nearest neighbour list constructed           ...    0.0 sec
Grid point re-assignment to atoms done       ...    0.0 sec
Grid point division into batches done        ...    0.0 sec
Reduced shell lists constructed in    0.0 sec

Total number of grid points                  ...    10045
Total number of batches                      ...      162
Average number of points per batch           ...       62
Average number of grid points per atom       ...     1004
Average number of shells per batch           ...    35.69 (91.51%)
Average number of basis functions per batch  ...    70.45 (91.50%)
Average number of large shells per batch     ...    32.93 (92.26%)
Average number of large basis fcns per batch ...    64.45 (91.48%)
Maximum spatial batch extension              ...  18.51, 19.45, 14.80 au
Average spatial batch extension              ...   0.68,  0.68,  0.66 au

Time for grid setup =    0.047 sec


--------------------
CPCM SOLVATION MODEL
--------------------
CPCM parameters:
  Epsilon                                         ...      80.4000
  Refrac                                          ...       1.3300
  Rsolv                                           ...       1.3000
  Surface type                                    ... GAUSSIAN VDW
  Epsilon function type                           ...         CPCM
Radii:
 Radius for C  used is    3.8550 Bohr (=   2.0400 Ang.)
 Radius for H  used is    2.4944 Bohr (=   1.3200 Ang.)
Calculating surface                               ...        done! (  0.0s)
GEPOL surface points                              ...          623
GEPOL Volume                                      ...     537.1894
GEPOL Surface-area                                ...     353.5646
Calculating surface distance matrix               ...        done! (  0.0s)
Performing Cholesky decomposition & store         ...        done! (  0.0s)
Overall time for CPCM initialization              ...                 0.0s
--------------
SCF ITERATIONS
--------------
ITER       Energy         Delta-E        Max-DP      RMS-DP      [F,P]     Damp
               ***  Starting incremental Fock matrix formation  ***
  0   -118.2122172679   0.000000000000 0.00023094  0.00001082  0.0009477 0.7000
  1   -118.2122199382  -0.000002670276 0.00019650  0.00001012  0.0007141 0.7000
                               ***Turning on DIIS***
  2   -118.2122219858  -0.000002047617 0.00058498  0.00002974  0.0005137 0.0000
  3   -118.2122269499  -0.000004964112 0.00008417  0.00000324  0.0000587 0.0000
  4   -118.2122269735  -0.000000023557 0.00004440  0.00000152  0.0000524 0.0000
  5   -118.2122269829  -0.000000009418 0.00002139  0.00000060  0.0000273 0.0000
  6   -118.2122269849  -0.000000001959 0.00000373  0.00000015  0.0000042 0.0000
                 **** Energy Check signals convergence ****

               *****************************************************
               *                     SUCCESS                       *
               *           SCF CONVERGED AFTER   7 CYCLES          *
               *****************************************************

Setting up the final grid:

General Integration Accuracy     IntAcc      ...  4.670
Radial Grid Type                 RadialGrid  ... Gauss-Chebyshev
Angular Grid (max. acc.)         AngularGrid ... Lebedev-302
Angular grid pruning method      GridPruning ... 3 (G Style)
Weight generation scheme         WeightScheme... Becke
Basis function cutoff            BFCut       ...    1.0000e-11
Integration weight cutoff        WCut        ...    1.0000e-14
Grids for H and He will be reduced by one unit

# of grid points (after initial pruning)     ...  42394 (   0.0 sec)
# of grid points (after weights+screening)   ...  40016 (   0.0 sec)
nearest neighbour list constructed           ...    0.0 sec
Grid point re-assignment to atoms done       ...    0.0 sec
Grid point division into batches done        ...    0.1 sec
Reduced shell lists constructed in    0.1 sec

Total number of grid points                  ...    40016
Total number of batches                      ...      632
Average number of points per batch           ...       63
Average number of grid points per atom       ...     4002
Average number of shells per batch           ...    34.86 (89.39%)
Average number of basis functions per batch  ...    68.87 (89.45%)
Average number of large shells per batch     ...    31.26 (89.66%)
Average number of large basis fcns per batch ...    60.91 (88.43%)
[...]
  34   0.0000       0.639541        17.4028 
  35   0.0000       0.651475        17.7275 
  36   0.0000       0.654064        17.7980 
  37   0.0000       0.671413        18.2701 
  38   0.0000       0.692561        18.8455 
  39   0.0000       0.814844        22.1730 
  40   0.0000       0.919487        25.0205 
  41   0.0000       1.091766        29.7085 
  42   0.0000       1.115588        30.3567 
  43   0.0000       1.221938        33.2506 
  44   0.0000       1.371750        37.3272 
  45   0.0000       1.466915        39.9168 
  46   0.0000       1.478505        40.2322 
  47   0.0000       1.486261        40.4432 
  48   0.0000       1.534374        41.7524 
  49   0.0000       1.629222        44.3334 
  50   0.0000       1.641769        44.6748 
  51   0.0000       1.698172        46.2096 
  52   0.0000       1.718016        46.7496 
  53   0.0000       1.735503        47.2254 
  54   0.0000       1.751586        47.6631 
  55   0.0000       1.758005        47.8377 
  56   0.0000       1.824775        49.6547 
  57   0.0000       1.832599        49.8676 
  58   0.0000       1.837365        49.9972 
  59   0.0000       1.945067        52.9280 
  60   0.0000       2.049942        55.7818 
  61   0.0000       2.120646        57.7057 
  62   0.0000       2.147941        58.4484 
  63   0.0000       2.161181        58.8087 
  64   0.0000       2.305580        62.7380 
  65   0.0000       2.310945        62.8840 
  66   0.0000       2.409700        65.5713 
  67   0.0000       2.474994        67.3480 
  68   0.0000       2.489605        67.7456 
  69   0.0000       2.511941        68.3534 
  70   0.0000       2.646014        72.0017 
  71   0.0000       2.763043        75.1862 
  72   0.0000       2.825155        76.8764 
  73   0.0000       2.844235        77.3956 
  74   0.0000       2.849462        77.5378 
  75   0.0000       2.918369        79.4129 
  76   0.0000       3.013626        82.0049 

                    ********************************
                    * MULLIKEN POPULATION ANALYSIS *
                    ********************************

--------------------------------------------
MULLIKEN ATOMIC CHARGES AND SPIN POPULATIONS
--------------------------------------------
   0 C :   -0.033684   -0.082862
   1 C :   -0.213428    1.012024
   2 C :   -0.017162   -0.079492
   3 H :    0.041813    0.071543
   4 H :    0.039955    0.010496
   5 H :    0.037170    0.019837
   6 H :    0.036087    0.062994
   7 H :    0.037240   -0.045341
   8 H :    0.035907    0.020810
   9 H :    0.036102    0.009991
Sum of atomic charges         :   -0.0000000
Sum of atomic spin populations:    1.0000000

-----------------------------------------------------
MULLIKEN REDUCED ORBITAL CHARGES AND SPIN POPULATIONS
-----------------------------------------------------
CHARGE
  0 C s       :     3.015841  s :     3.015841
      pz      :     1.014438  p :     2.992149
      px      :     0.979232
      py      :     0.998479
      dz2     :     0.004209  d :     0.025695
      dxz     :     0.004650
      dyz     :     0.005814
      dx2y2   :     0.004701
      dxy     :     0.006322
  1 C s       :     3.223848  s :     3.223848
      pz      :     1.027572  p :     2.960308
      px      :     0.963981
      py      :     0.968755
      dz2     :     0.002561  d :     0.029272
      dxz     :     0.004926
      dyz     :     0.002780
      dx2y2   :     0.010491
      dxy     :     0.008514
  2 C s       :     2.999127  s :     2.999127
      pz      :     1.016363  p :     2.992036
      px      :     0.981036
      py      :     0.994637
      dz2     :     0.004594  d :     0.025999
      dxz     :     0.003939
      dyz     :     0.006546
      dx2y2   :     0.004803
      dxy     :     0.006117
  3 H s       :     0.934898  s :     0.934898
      pz      :     0.011827  p :     0.023289
      px      :     0.005202
      py      :     0.006260
  4 H s       :     0.937260  s :     0.937260
      pz      :     0.005933  p :     0.022785
      px      :     0.008898
      py      :     0.007954
  5 H s       :     0.939966  s :     0.939966
      pz      :     0.008411  p :     0.022864
      px      :     0.004338
      py      :     0.010114
  6 H s       :     0.938921  s :     0.938921
      pz      :     0.012514  p :     0.024992
      px      :     0.005559
      py      :     0.006919
  7 H s       :     0.940741  s :     0.940741
      pz      :     0.005887  p :     0.022019
      px      :     0.003313
      py      :     0.012819
  8 H s       :     0.941106  s :     0.941106
      pz      :     0.008679  p :     0.022987
      px      :     0.004445
      py      :     0.009863
  9 H s       :     0.941005  s :     0.941005
      pz      :     0.005886  p :     0.022893
      px      :     0.009694
      py      :     0.007313

SPIN
  0 C s       :    -0.025935  s :    -0.025935
      pz      :    -0.020453  p :    -0.063847
      px      :    -0.029566
      py      :    -0.013828
      dz2     :     0.000407  d :     0.006920
      dxz     :     0.004005
      dyz     :     0.002236
      dx2y2   :     0.000011
      dxy     :     0.000263
  1 C s       :     0.110890  s :     0.110890
      pz      :     0.817598  p :     0.903093
      px      :     0.031256
      py      :     0.054239
      dz2     :    -0.002063  d :    -0.001958
      dxz     :     0.000258
      dyz     :    -0.000169
      dx2y2   :     0.000146
      dxy     :    -0.000130
  2 C s       :    -0.025439  s :    -0.025439
      pz      :    -0.017964  p :    -0.060976
      px      :    -0.027147
      py      :    -0.015864
      dz2     :     0.000490  d :     0.006922
      dxz     :     0.003288
      dyz     :     0.002899
      dx2y2   :     0.000052
      dxy     :     0.000194
  3 H s       :     0.071769  s :     0.071769
      pz      :    -0.000219  p :    -0.000226
      px      :     0.000022
      py      :    -0.000029
  4 H s       :     0.010665  s :     0.010665
      pz      :    -0.000011  p :    -0.000168
      px      :    -0.000140
      py      :    -0.000017
  5 H s       :     0.020081  s :     0.020081
      pz      :    -0.000068  p :    -0.000244
      px      :    -0.000051
      py      :    -0.000126
  6 H s       :     0.063176  s :     0.063176
      pz      :    -0.000194  p :    -0.000182
      px      :     0.000062
      py      :    -0.000050
  7 H s       :    -0.050268  s :    -0.050268
      pz      :     0.004633  p :     0.004927
      px      :    -0.000174
      py      :     0.000468
  8 H s       :     0.021046  s :     0.021046
      pz      :    -0.000068  p :    -0.000236
      px      :    -0.000023
      py      :    -0.000145
  9 H s       :     0.010152  s :     0.010152
      pz      :    -0.000004  p :    -0.000161
      px      :    -0.000132
      py      :    -0.000025


                     *******************************
                     * LOEWDIN POPULATION ANALYSIS *
                     *******************************

-------------------------------------------
LOEWDIN ATOMIC CHARGES AND SPIN POPULATIONS
-------------------------------------------
   0 C :   -0.091031   -0.011101
   1 C :   -0.057307    0.851627
   2 C :   -0.086480   -0.008888
   3 H :    0.038755    0.061410
   4 H :    0.036913    0.008942
   5 H :    0.034940    0.017004
   6 H :    0.033959    0.054290
   7 H :    0.017541    0.000433
   8 H :    0.035710    0.017811
   9 H :    0.037000    0.008472

----------------------------------------------------
LOEWDIN REDUCED ORBITAL CHARGES AND SPIN POPULATIONS
----------------------------------------------------
CHARGE
  0 C s       :     2.850898  s :     2.850898
      pz      :     1.062554  p :     3.167717
      px      :     1.043522
      py      :     1.061642
      dz2     :     0.012695  d :     0.072416
      dxz     :     0.011698
      dyz     :     0.016821
      dx2y2   :     0.012606
      dxy     :     0.018597
  1 C s       :     2.917729  s :     2.917729
      pz      :     0.994250  p :     3.068274
      px      :     1.026453
      py      :     1.047572
      dz2     :     0.005126  d :     0.071304
      dxz     :     0.008867
      dyz     :     0.005129
      dx2y2   :     0.027944
      dxy     :     0.024238
  2 C s       :     2.842658  s :     2.842658
      pz      :     1.067911  p :     3.170521
      px      :     1.043411
      py      :     1.059199
      dz2     :     0.013714  d :     0.073301
      dxz     :     0.009755
      dyz     :     0.018801
      dx2y2   :     0.012194
      dxy     :     0.018838
  3 H s       :     0.897175  s :     0.897175
      pz      :     0.034393  p :     0.064070
      px      :     0.014185
      py      :     0.015491
  4 H s       :     0.899472  s :     0.899472
      pz      :     0.014430  p :     0.063615
      px      :     0.026849
      py      :     0.022337
  5 H s       :     0.901615  s :     0.901615
      pz      :     0.022164  p :     0.063445
      px      :     0.011589
      py      :     0.029692
  6 H s       :     0.896226  s :     0.896226
      pz      :     0.036469  p :     0.069815
      px      :     0.015283
      py      :     0.018063
  7 H s       :     0.910073  s :     0.910073
      pz      :     0.021984  p :     0.072386
      px      :     0.010803
      py      :     0.039599
  8 H s       :     0.901074  s :     0.901074
      pz      :     0.022562  p :     0.063216
      px      :     0.011666
      py      :     0.028988
  9 H s       :     0.899664  s :     0.899664
      pz      :     0.014068  p :     0.063336
      px      :     0.029108
      py      :     0.020160

SPIN
  0 C s       :    -0.005010  s :    -0.005010
      pz      :    -0.006414  p :    -0.024593
      px      :    -0.012701
      py      :    -0.005478
      dz2     :     0.001528  d :     0.018502
      dxz     :     0.009611
      dyz     :     0.005860
      dx2y2   :     0.000355
      dxy     :     0.001148
  1 C s       :     0.035412  s :     0.035412
      pz      :     0.768931  p :     0.819278
      px      :     0.016352
      py      :     0.033995
      dz2     :    -0.001649  d :    -0.003063
      dxz     :     0.000108
      dyz     :    -0.000056
      dx2y2   :    -0.000665
      dxy     :    -0.000801
  2 C s       :    -0.004896  s :    -0.004896
      pz      :    -0.004359  p :    -0.022325
      px      :    -0.011707
      py      :    -0.006259
      dz2     :     0.001680  d :     0.018333
      dxz     :     0.007777
      dyz     :     0.007469
      dx2y2   :     0.000361
      dxy     :     0.001045
  3 H s       :     0.061892  s :     0.061892
      pz      :    -0.000685  p :    -0.000482
      px      :     0.000196
      py      :     0.000008
  4 H s       :     0.009676  s :     0.009676
      pz      :    -0.000115  p :    -0.000735
      px      :    -0.000415
      py      :    -0.000204
  5 H s       :     0.017745  s :     0.017745
      pz      :    -0.000067  p :    -0.000741
      px      :    -0.000246
      py      :    -0.000428
  6 H s       :     0.054706  s :     0.054706
      pz      :    -0.000591  p :    -0.000416
      px      :     0.000168
      py      :     0.000006
  7 H s       :    -0.021650  s :    -0.021650
      pz      :     0.018619  p :     0.022083
      px      :     0.000289
      py      :     0.003175
  8 H s       :     0.018508  s :     0.018508
      pz      :    -0.000045  p :    -0.000697
      px      :    -0.000203
      py      :    -0.000448
  9 H s       :     0.009145  s :     0.009145
      pz      :    -0.000070  p :    -0.000673
      px      :    -0.000387
      py      :    -0.000215


                      *****************************
                      * MAYER POPULATION ANALYSIS *
                      *****************************

  NA   - Mulliken gross atomic population
  ZA   - Total nuclear charge
  QA   - Mulliken gross atomic charge
  VA   - Mayer's total valence
  BVA  - Mayer's bonded valence
  FA   - Mayer's free valence

  ATOM       NA         ZA         QA         VA         BVA        FA
  0 C      6.0337     6.0000    -0.0337     3.9643     3.9611     0.0032
  1 C      6.2134     6.0000    -0.2134     4.0744     3.3355     0.7389
  2 C      6.0172     6.0000    -0.0172     3.9645     3.9614     0.0031
  3 H      0.9582     1.0000     0.0418     0.9805     0.9751     0.0054
  4 H      0.9600     1.0000     0.0400     0.9832     0.9831     0.0001
  5 H      0.9628     1.0000     0.0372     0.9902     0.9898     0.0004
  6 H      0.9639     1.0000     0.0361     0.9838     0.9796     0.0042
  7 H      0.9628     1.0000     0.0372     0.9790     0.9764     0.0026
  8 H      0.9641     1.0000     0.0359     0.9908     0.9903     0.0005
  9 H      0.9639     1.0000     0.0361     0.9842     0.9841     0.0001

  Mayer bond orders larger than 0.100000
B(  0-C ,  1-C ) :   1.1217 B(  0-C ,  3-H ) :   0.9360 B(  0-C ,  4-H ) :   0.9583 
B(  0-C ,  5-H ) :   0.9572 B(  1-C ,  2-C ) :   1.1160 B(  1-C ,  7-H ) :   0.9612 
B(  2-C ,  6-H ) :   0.9418 B(  2-C ,  8-H ) :   0.9569 B(  2-C ,  9-H ) :   0.9585 



------------------
HIRSHFELD ANALYSIS
------------------

Total integrated alpha density =     13.001123593
Total integrated beta density  =     11.999427505

  ATOM     CHARGE      SPIN    
   0 C   -0.083176    0.052885
   1 C   -0.031306    0.687121
   2 C   -0.083755    0.053560
   3 H    0.029570    0.056052
   4 H    0.030482    0.011412
   5 H    0.028968    0.017726
   6 H    0.030001    0.050025
   7 H    0.018308    0.043394
   8 H    0.029677    0.018528
   9 H    0.030678    0.010994

  TOTAL  -0.000551    1.001696

-------
TIMINGS
-------

Total SCF time: 0 days 0 hours 0 min 2 sec 

Total time                  ....       2.335 sec
Sum of individual times     ....       2.198 sec  ( 94.1%)

Fock matrix formation       ....       1.905 sec  ( 81.6%)
  Split-RI-J                ....       0.522 sec  ( 27.4% of F)
  XC integration            ....       0.182 sec  (  9.5% of F)
    Basis function eval.    ....       0.054 sec  ( 30.0% of XC)
    Density eval.           ....       0.035 sec  ( 19.3% of XC)
    XC-Functional eval.     ....       0.018 sec  (  9.7% of XC)
    XC-Potential eval.      ....       0.052 sec  ( 28.7% of XC)
Diagonalization             ....       0.008 sec  (  0.3%)
Density matrix formation    ....       0.001 sec  (  0.0%)
Population analysis         ....       0.029 sec  (  1.3%)
Initial guess               ....       0.004 sec  (  0.2%)
Orbital Transformation      ....       0.000 sec  (  0.0%)
Orbital Orthonormalization  ....       0.001 sec  (  0.1%)
DIIS solution               ....       0.002 sec  (  0.1%)
Grid generation             ....       0.249 sec  ( 10.7%)


-------------------------------------------------------------------------------
                          DFT DISPERSION CORRECTION                            
                                                                               
                              DFTD3 V3.1  Rev 1                                
                          USING Becke-Johnson damping                          
-------------------------------------------------------------------------------
The PBE functional is recognized
Active option DFTDOPT                   ...         4   

molecular C6(AA) [au] = 670.520077 


            DFT-D V3
 parameters
 s6 scaling factor         :     1.0000 
 a1 scaling factor         :     0.4289 
 s8 scaling factor         :     0.7875 
 a2 scaling factor         :     4.4407 
 ad hoc parameters k1-k3   :    16.0000     1.3333    -4.0000 

 Edisp/kcal,au: -3.319806320024  -0.005290447560 
 E6   /kcal   :  -2.411555360 
 E8   /kcal   :  -0.908250960 
 % E8         :  27.358552645 

-------------------------   ----------------
Dispersion correction           -0.005290448
-------------------------   ----------------


-------------------------   --------------------
FINAL SINGLE POINT ENERGY      -118.217270963210
-------------------------   --------------------

                                *** OPTIMIZATION RUN DONE ***

                            ***************************************
                            *     ORCA property calculations      *
                            ***************************************

                                    ---------------------
                                    Active property flags
                                    ---------------------
   (+) Dipole Moment


------------------------------------------------------------------------------
                       ORCA ELECTRIC PROPERTIES CALCULATION
------------------------------------------------------------------------------

Dipole Moment Calculation                       ... on
Quadrupole Moment Calculation                   ... off
Polarizability Calculation                      ... off
GBWName                                         ... m-mfaV_2-6_hl1d_fbond_scan_11_orca.gbw
Electron density file                           ... m-mfaV_2-6_hl1d_fbond_scan_11_orca.scfp
The origin for moment calculation is the CENTER OF MASS  = ( 0.009685, -0.167120 -0.049859)

-------------
DIPOLE MOMENT
-------------
                                X             Y             Z
Electronic contribution:      0.05209      -0.79927      -0.13821
Nuclear contribution   :     -0.05259       0.90559       0.27021
                        -----------------------------------------
Total Dipole Moment    :     -0.00049       0.10633       0.13200
                        -----------------------------------------
Magnitude (a.u.)       :      0.16950
Magnitude (Debye)      :      0.43083



--------------------
Rotational spectrum 
--------------------
 
Rotational constants in cm-1:     1.241576     0.275074     0.246034 
Rotational constants in MHz : 37221.499533  8246.516824  7375.904894 

 Dipole components along the rotational axes: 
x,y,z [a.u.] :     0.005570     0.101259    -0.135812 
x,y,z [Debye]:     0.014157     0.257380    -0.345206 

 
[1589382986.641134] [ty2019:17595:0]            sys.c:618  UCX  ERROR shmget(size=2097152 flags=0xfb0) for mm_recv_desc failed: Operation not permitted, please check shared memory limits by 'ipcs -l'
[1589382986.643446] [ty2019:17596:0]            sys.c:618  UCX  ERROR shmget(size=2097152 flags=0xfb0) for mm_recv_desc failed: Operation not permitted, please check shared memory limits by 'ipcs -l'
[1589382986.654561] [ty2019:17597:0]            sys.c:618  UCX  ERROR shmget(size=2097152 flags=0xfb0) for mm_recv_desc failed: Operation not permitted, please check shared memory limits by 'ipcs -l'
[1589382986.654869] [ty2019:17598:0]            sys.c:618  UCX  ERROR shmget(size=2097152 flags=0xfb0) for mm_recv_desc failed: Operation not permitted, please check shared memory limits by 'ipcs -l'
[1589382986.661289] [ty2019:17597:0]            sys.c:618  UCX  ERROR shmget(size=2097152 flags=0xb80) for ucp_am_bufs failed: Operation not permitted, please check shared memory limits by 'ipcs -l'
[1589382986.661286] [ty2019:17598:0]            sys.c:618  UCX  ERROR shmget(size=2097152 flags=0xb80) for ucp_am_bufs failed: Operation not permitted, please check shared memory limits by 'ipcs -l'
[1589382986.662889] [ty2019:17596:0]            sys.c:618  UCX  ERROR shmget(size=2097152 flags=0xb80) for ucp_am_bufs failed: Operation not permitted, please check shared memory limits by 'ipcs -l'

Timings for individual modules:

Sum of individual times         ...       25.208 sec (=   0.420 min)
GTO integral calculation        ...        4.037 sec (=   0.067 min)  16.0 %
SCF iterations                  ...       15.677 sec (=   0.261 min)  62.2 %
SCF Gradient evaluation         ...        5.282 sec (=   0.088 min)  21.0 %
Geometry relaxation             ...        0.212 sec (=   0.004 min)   0.8 %
                             ****ORCA TERMINATED NORMALLY****
TOTAL RUN TIME: 0 days 0 hours 0 minutes 26 seconds 479 msec
