      -----------------------------------------------------------      
     |                   =====================                   |     
     |                           x T B                           |     
     |                   =====================                   |     
     |                         S. Grimme                         |     
     |          Mulliken Center for Theoretical Chemistry        |     
     |                    University of Bonn                     |     
      -----------------------------------------------------------      

   * xtb version 6.2.3 (830e466) compiled by 'ehlert@majestix' on 2020-03-16

   xtb is free software: you can redistribute it and/or modify it under
   the terms of the GNU Lesser General Public License as published by
   the Free Software Foundation, either version 3 of the License, or
   (at your option) any later version.
   
   xtb is distributed in the hope that it will be useful,
   but WITHOUT ANY WARRANTY; without even the implied warranty of
   MERCHANTABILITY or FITNESS FOR A PARTICULAR PURPOSE.  See the
   GNU Lesser General Public License for more details.
   
   Cite this work as:
   * S. Grimme, C. Bannwarth, P. Shushkov, J. Chem. Theory Comput., 2017,
     13, 1989-2009. DOI: 10.1021/acs.jctc.7b00118
   * C. Bannwarth, S. Ehlert and S. Grimme., J. Chem. Theory Comput., 2019,
     15, 1652-1671. DOI: 10.1021/acs.jctc.8b01176
   * P. Pracht, E. Caldeweyher, S. Ehlert, S. Grimme, ChemRxiv, 2019, preprint.
     DOI: 10.26434/chemrxiv.8326202.v1
   
   for DFT-D4:
   * E. Caldeweyher, C. Bannwarth and S. Grimme, J. Chem. Phys., 2017,
     147, 034112. DOI: 10.1063/1.4993215
   * E. Caldeweyher, S. Ehlert, A. Hansen, H. Neugebauer, S. Spicher,
     C. Bannwarth and S. Grimme, J. Chem. Phys., 2019, 150, 154122.
     DOI: 10.1063/1.5090222
   
   for sTDA-xTB:
   * S. Grimme and C. Bannwarth, J. Chem. Phys., 2016, 145, 054103.
     DOI: 10.1063/1.4959605
   
   in the mass-spec context:
   * V. Asgeirsson, C. Bauer and S. Grimme, Chem. Sci., 2017, 8, 4879.
     DOI: 10.1039/c7sc00601b
   
   for metadynamics refer to:
   * S. Grimme, J. Chem. Theory Comput., 2019, 155, 2847-2862
     DOI: 10.1021/acs.jctc.9b00143
   
   with help from (in alphabetical order)
   C. Bannwarth, F. Bohle, G. Brandenburg, E. Caldeweyher, M. Checinski,
   S. Dohm, S. Ehlert, S. Ehrlich, F. März, H. Neugebauer, J. Pisarek,
   P. Pracht, P. Shushkov, and S. Spicher.
   
 * started run on 2020/08/20 at 17:46:32.063     

           -------------------------------------------------
          |                Calculation Setup                |
           -------------------------------------------------

          program call               : /u/fd/ball4935/opt/bin/xtb 3_8_xtb.xyz --chrg -1 --grad --gbsa Water
          hostname                   : comp0810
          coordinate file            : 3_8_xtb.xyz
          omp threads                :                     1
          number of atoms            :                     6
          number of electrons        :                    22
          charge                     :                    -1
          spin                       :                   0.0
          first test random number   :      0.76937606902652


molecular fragmentation (1/2 indicates fragments):
122222
# atoms in fragment 1/2:     1     5
 fragment masses (1/2) :       19.00       50.49
CMA distance (Bohr)    :   7.008
constraining FC (au)   :  0.0500
########################################################################
[WARNING] Please study the warnings concerning your input carefully
-2- prog_main: XTBPATH is not set, using XTBHOME instead
-1- prog_main: XTBHOME is not set, using HOME instead
########################################################################
           ------------------------------------------------- 
          |                 G F N 2 - x T B                 |
          | Geometry, Frequencies, Noncovalent interactions |
          |            JCTC 2019 parametrisation            |
           ------------------------------------------------- 
             k(s)              :                1.8500
             k(p)              :                2.2300
             k(d)              :                2.2300
             k(f)              :                2.0000
             kEN (H0ij)        :               -2.0000
             D4 a1             :                0.5200
             D4 a2             :                5.0000
             D4 s6             :                1.0000
             D4 s8             :                2.7000
             D4 s9             :                5.0000
             alphaj            :                2.0000

  Z AO/shell   Hii/eV     exponent
  1     Wed Apr 25 08:07:45 CEST 2018   EN: 2.200 GM2: 0.406  GM3: 0.0800  RAES: 1.40
     1s    -10.707211    1.230000
  6     Wed Apr 25 08:07:45 CEST 2018   EN: 2.550 GM2: 0.538  GM3: 0.1500  RAES: 3.00
     2s    -13.970922    2.096432
     2p    -10.063292    1.800000
  9     Mon Apr 23 13:58:50 CEST 2018   EN: 3.980 GM2: 0.532  GM3: 0.1426  RAES: 2.40
     2s    -23.458179    2.416361
     2p    -15.746583    2.308399
 17     Mon Apr 23 14:09:22 CEST 2018   EN: 3.160 GM2: 0.249  GM3: 0.1495  RAES: 2.50
     3s    -29.278781    2.485265
     3p    -12.673758    2.199650
     3d     -0.240338    2.476089

 Solvent             : Water
 Using internal parameter file: .param_gbsa2_Water
 Gsolv ref. state (COSMO-RS): gsolv [1 M gas/solution]
 temperature (mdtemp)       :    298.150000000000     
 dielectric constant        :    80.2000000000000     
 rho                        :    1.00000000000000     
 mass                       :    18.0000000000000     
 surface tension            :    15.5689454083859     
 probe radius               :   0.975313790000000     
 Gshift (Eh)                :   1.857443126794793E-003
 c1                         :    1.55243817000000     
 soset                      :   0.130326360000000     
 HB correction              :  T
           ------------------------------------------------- 
          |        Self-Consistent Charge Iterations        |
           ------------------------------------------------- 

          ...................................................
          :                      SETUP                      :
          :.................................................:
          :  # basis functions                  21          :
          :  # atomic orbitals                  20          :
          :  # shells                           10          :
          :  # electrons                        22          :
          :  max. iterations                   250          :
          :  Hamiltonian                  GFN2-xTB          :
          :  restarted?                      false          :
          :  GBSA solvation                   true          :
          :  PC potential                    false          :
          :  electronic temp.          300.0000000     K    :
          :  accuracy                    1.0000000          :
          :  -> integral cutoff          0.2500000E+02      :
          :  -> integral neglect         0.1000000E-07      :
          :  -> SCF convergence          0.1000000E-05 Eh   :
          :  -> wf. convergence          0.1000000E-03 e    :
          :  Broyden damping             0.4000000          :
          ...................................................

 iter      E             dE          RMSdq      gap      omega  full diag
   1    -13.2780883 -0.132781E+02  0.555E+00    7.75       0.0  T
   2    -13.3258671 -0.477787E-01  0.321E+00    6.03       1.0  T
   3    -13.3268455 -0.978402E-03  0.166E+00    5.62       1.0  T
   4    -13.3276711 -0.825657E-03  0.496E-01    5.18       1.0  T
   5    -13.3282503 -0.579150E-03  0.258E-01    5.16       1.0  T
   6    -13.3284656 -0.215361E-03  0.133E-01    5.04       1.0  T
   7    -13.3285107 -0.450323E-04  0.123E-02    5.02       3.3  T
   8    -13.3285104  0.274777E-06  0.133E-02    5.02       3.1  T
   9    -13.3285109 -0.466448E-06  0.900E-04    5.02      45.3  T
  10    -13.3285109 -0.180352E-08  0.269E-04    5.02     151.7  T

   *** convergence criteria satisfied after 10 iterations ***

         #    Occupation            Energy/Eh            Energy/eV
      -------------------------------------------------------------
         1        2.0000           -1.0567163             -28.7547
       ...           ...                  ...                  ...
         5        2.0000           -0.5069058             -13.7936
         6        2.0000           -0.4964580             -13.5093
         7        2.0000           -0.4169917             -11.3469
         8        2.0000           -0.4169555             -11.3459
         9        2.0000           -0.3376553              -9.1881
        10        2.0000           -0.3376526              -9.1880
        11        2.0000           -0.3375108              -9.1841 (HOMO)
        12                         -0.1530160              -4.1638 (LUMO)
        13                          0.0210041               0.5715
        14                          0.0210957               0.5740
        15                          0.0255609               0.6955
        16                          0.0256234               0.6972
       ...                                ...                  ...
        20                          0.2056763               5.5967
      -------------------------------------------------------------
                  HL-Gap            0.1844948 Eh            5.0204 eV
             Fermi-level           -0.2452634 Eh           -6.6740 eV

 SCC (total)                   0 d,  0 h,  0 min,  0.006 sec
 SCC setup                      ...        0 min,  0.000 sec (  4.902%)
 Dispersion                     ...        0 min,  0.000 sec (  0.543%)
 integral evaluation            ...        0 min,  0.001 sec ( 15.771%)
 zeroth order Hamiltonian       ...        0 min,  0.000 sec (  0.603%)
 iterations                     ...        0 min,  0.004 sec ( 56.054%)
 molecular gradient             ...        0 min,  0.001 sec ( 19.461%)
 printout                       ...        0 min,  0.000 sec (  1.937%)

         :::::::::::::::::::::::::::::::::::::::::::::::::::::
         ::                     SUMMARY                     ::
         :::::::::::::::::::::::::::::::::::::::::::::::::::::
         :: total energy             -13.270518545927 Eh    ::
         :: total w/o Gsasa/hb       -13.268922728860 Eh    ::
         :: gradient norm              0.015315832257 Eh/a0 ::
         :: HOMO-LUMO gap              5.020359252739 eV    ::
         ::.................................................::
         :: SCC energy               -13.325936592413 Eh    ::
         :: -> isotropic ES            0.271322943970 Eh    ::
         :: -> anisotropic ES         -0.006895209205 Eh    ::
         :: -> anisotropic XC         -0.005581658654 Eh    ::
         :: -> dispersion             -0.002117604731 Eh    ::
         :: -> Gsolv                  -0.131065037442 Eh    ::
         ::    -> Gborn               -0.129469220375 Eh    ::
         ::    -> Gsasa                0.000716823919 Eh    ::
         ::    -> Ghb                 -0.004170084112 Eh    ::
         ::    -> Gshift               0.001857443127 Eh    ::
         :: repulsion energy           0.055418221744 Eh    ::
         :: add. restraining           0.000000000000 Eh    ::
         :::::::::::::::::::::::::::::::::::::::::::::::::::::

           -------------------------------------------------
          |                Property Printout                |
           -------------------------------------------------

    * Orbital Energies and Occupations

         #    Occupation            Energy/Eh            Energy/eV
      -------------------------------------------------------------
         1        2.0000           -1.0567163             -28.7547
         2        2.0000           -0.6066436             -16.5076
         3        2.0000           -0.5946010             -16.1799
         4        2.0000           -0.5069818             -13.7957
         5        2.0000           -0.5069058             -13.7936
         6        2.0000           -0.4964580             -13.5093
         7        2.0000           -0.4169917             -11.3469
         8        2.0000           -0.4169555             -11.3459
         9        2.0000           -0.3376553              -9.1881
        10        2.0000           -0.3376526              -9.1880
        11        2.0000           -0.3375108              -9.1841 (HOMO)
        12                         -0.1530160              -4.1638 (LUMO)
        13                          0.0210041               0.5715
        14                          0.0210957               0.5740
        15                          0.0255609               0.6955
        16                          0.0256234               0.6972
        17                          0.1570969               4.2748
        18                          0.1863691               5.0714
        19                          0.2048140               5.5733
        20                          0.2056763               5.5967
      -------------------------------------------------------------
                  HL-Gap            0.1844948 Eh            5.0204 eV
             Fermi-level           -0.2452634 Eh           -6.6740 eV

     #   Z        covCN         q      C6AA      α(0)
     1   9 F      0.000    -0.989    24.273     5.738
     2  17 Cl     0.890    -0.215   105.917    15.745
     3   6 C      3.663     0.025    20.417     6.482
     4   1 H      0.924     0.059     2.206     2.322
     5   1 H      0.924     0.060     2.202     2.321
     6   1 H      0.924     0.060     2.202     2.321

 Mol. C6AA /au·bohr⁶  :        577.887191
 Mol. C8AA /au·bohr⁸  :      15873.570348
 Mol. α(0) /au        :         34.928396


Wiberg/Mayer (AO) data.
largest (>0.10) Wiberg bond orders for each atom
          total WBO             WBO to atom ...
     1  F   0.022
     2  Cl  0.989        C    3 0.954
     3  C   3.927        H    5 0.987    H    6 0.987    H    4 0.987    Cl   2 0.954
     4  H   0.996        C    3 0.987
     5  H   0.996        C    3 0.987
     6  H   0.996        C    3 0.987

molecular dipole:
                 x           y           z       tot (Debye)
 q only:        4.367       0.075      -0.080
   full:        3.738       0.061      -0.073       9.505
molecular quadrupole (traceless):
                xx          xy          yy          xz          yz          zz
 q only:      -29.025      -0.828      14.510       0.689       0.012      14.515
  q+dip:      -33.078      -0.979      16.535       0.747       0.012      16.543
   full:      -31.972      -0.939      15.982       0.733       0.013      15.989


           -------------------------------------------------
          | TOTAL ENERGY              -13.270518545927 Eh   |
          | GRADIENT NORM               0.015315832257 Eh/α |
          | HOMO-LUMO GAP               5.020359252739 eV   |
           -------------------------------------------------

------------------------------------------------------------------------
 * finished run on 2020/08/20 at 17:46:32.153     
------------------------------------------------------------------------
 total:
 * wall-time:     0 d,  0 h,  0 min,  0.089 sec
 *  cpu-time:     0 d,  0 h,  0 min,  0.017 sec
 * ratio c/w:     0.189 speedup
 SCF:
 * wall-time:     0 d,  0 h,  0 min,  0.007 sec
 *  cpu-time:     0 d,  0 h,  0 min,  0.007 sec
 * ratio c/w:     0.997 speedup

