      -----------------------------------------------------------      
     |                   =====================                   |     
     |                           x T B                           |     
     |                   =====================                   |     
     |                         S. Grimme                         |     
     |          Mulliken Center for Theoretical Chemistry        |     
     |                    University of Bonn                     |     
      -----------------------------------------------------------      

   * xtb version 6.2.3 (830e466) compiled by 'ehlert@majestix' on 2020-03-16

   xtb is free software: you can redistribute it and/or modify it under
   the terms of the GNU Lesser General Public License as published by
   the Free Software Foundation, either version 3 of the License, or
   (at your option) any later version.
   
   xtb is distributed in the hope that it will be useful,
   but WITHOUT ANY WARRANTY; without even the implied warranty of
   MERCHANTABILITY or FITNESS FOR A PARTICULAR PURPOSE.  See the
   GNU Lesser General Public License for more details.
   
   Cite this work as:
   * S. Grimme, C. Bannwarth, P. Shushkov, J. Chem. Theory Comput., 2017,
     13, 1989-2009. DOI: 10.1021/acs.jctc.7b00118
   * C. Bannwarth, S. Ehlert and S. Grimme., J. Chem. Theory Comput., 2019,
     15, 1652-1671. DOI: 10.1021/acs.jctc.8b01176
   * P. Pracht, E. Caldeweyher, S. Ehlert, S. Grimme, ChemRxiv, 2019, preprint.
     DOI: 10.26434/chemrxiv.8326202.v1
   
   for DFT-D4:
   * E. Caldeweyher, C. Bannwarth and S. Grimme, J. Chem. Phys., 2017,
     147, 034112. DOI: 10.1063/1.4993215
   * E. Caldeweyher, S. Ehlert, A. Hansen, H. Neugebauer, S. Spicher,
     C. Bannwarth and S. Grimme, J. Chem. Phys., 2019, 150, 154122.
     DOI: 10.1063/1.5090222
   
   for sTDA-xTB:
   * S. Grimme and C. Bannwarth, J. Chem. Phys., 2016, 145, 054103.
     DOI: 10.1063/1.4959605
   
   in the mass-spec context:
   * V. Asgeirsson, C. Bauer and S. Grimme, Chem. Sci., 2017, 8, 4879.
     DOI: 10.1039/c7sc00601b
   
   for metadynamics refer to:
   * S. Grimme, J. Chem. Theory Comput., 2019, 155, 2847-2862
     DOI: 10.1021/acs.jctc.9b00143
   
   with help from (in alphabetical order)
   C. Bannwarth, F. Bohle, G. Brandenburg, E. Caldeweyher, M. Checinski,
   S. Dohm, S. Ehlert, S. Ehrlich, F. März, H. Neugebauer, J. Pisarek,
   P. Pracht, P. Shushkov, and S. Spicher.
   
 * started run on 2020/08/20 at 17:46:30.477     

           -------------------------------------------------
          |                Calculation Setup                |
           -------------------------------------------------

          program call               : /u/fd/ball4935/opt/bin/xtb 12_3_xtb.xyz --chrg -1 --grad --gbsa Water
          hostname                   : comp0810
          coordinate file            : 12_3_xtb.xyz
          omp threads                :                     1
          number of atoms            :                     6
          number of electrons        :                    22
          charge                     :                    -1
          spin                       :                   0.0
          first test random number   :      0.02973068204108


molecular fragmentation (1/2 indicates fragments):
121111
# atoms in fragment 1/2:     5     1
 fragment masses (1/2) :       34.03       35.45
CMA distance (Bohr)    :   8.680
constraining FC (au)   :  0.0500
########################################################################
[WARNING] Please study the warnings concerning your input carefully
-2- prog_main: XTBPATH is not set, using XTBHOME instead
-1- prog_main: XTBHOME is not set, using HOME instead
########################################################################
           ------------------------------------------------- 
          |                 G F N 2 - x T B                 |
          | Geometry, Frequencies, Noncovalent interactions |
          |            JCTC 2019 parametrisation            |
           ------------------------------------------------- 
             k(s)              :                1.8500
             k(p)              :                2.2300
             k(d)              :                2.2300
             k(f)              :                2.0000
             kEN (H0ij)        :               -2.0000
             D4 a1             :                0.5200
             D4 a2             :                5.0000
             D4 s6             :                1.0000
             D4 s8             :                2.7000
             D4 s9             :                5.0000
             alphaj            :                2.0000

  Z AO/shell   Hii/eV     exponent
  1     Wed Apr 25 08:07:45 CEST 2018   EN: 2.200 GM2: 0.406  GM3: 0.0800  RAES: 1.40
     1s    -10.707211    1.230000
  6     Wed Apr 25 08:07:45 CEST 2018   EN: 2.550 GM2: 0.538  GM3: 0.1500  RAES: 3.00
     2s    -13.970922    2.096432
     2p    -10.063292    1.800000
  9     Mon Apr 23 13:58:50 CEST 2018   EN: 3.980 GM2: 0.532  GM3: 0.1426  RAES: 2.40
     2s    -23.458179    2.416361
     2p    -15.746583    2.308399
 17     Mon Apr 23 14:09:22 CEST 2018   EN: 3.160 GM2: 0.249  GM3: 0.1495  RAES: 2.50
     3s    -29.278781    2.485265
     3p    -12.673758    2.199650
     3d     -0.240338    2.476089

 Solvent             : Water
 Using internal parameter file: .param_gbsa2_Water
 Gsolv ref. state (COSMO-RS): gsolv [1 M gas/solution]
 temperature (mdtemp)       :    298.150000000000     
 dielectric constant        :    80.2000000000000     
 rho                        :    1.00000000000000     
 mass                       :    18.0000000000000     
 surface tension            :    15.5689454083859     
 probe radius               :   0.975313790000000     
 Gshift (Eh)                :   1.857443126794793E-003
 c1                         :    1.55243817000000     
 soset                      :   0.130326360000000     
 HB correction              :  T
           ------------------------------------------------- 
          |        Self-Consistent Charge Iterations        |
           ------------------------------------------------- 

          ...................................................
          :                      SETUP                      :
          :.................................................:
          :  # basis functions                  21          :
          :  # atomic orbitals                  20          :
          :  # shells                           10          :
          :  # electrons                        22          :
          :  max. iterations                   250          :
          :  Hamiltonian                  GFN2-xTB          :
          :  restarted?                      false          :
          :  GBSA solvation                   true          :
          :  PC potential                    false          :
          :  electronic temp.          300.0000000     K    :
          :  accuracy                    1.0000000          :
          :  -> integral cutoff          0.2500000E+02      :
          :  -> integral neglect         0.1000000E-07      :
          :  -> SCF convergence          0.1000000E-05 Eh   :
          :  -> wf. convergence          0.1000000E-03 e    :
          :  Broyden damping             0.4000000          :
          ...................................................

 iter      E             dE          RMSdq      gap      omega  full diag
   1    -13.2910107 -0.132910E+02  0.570E+00   11.58       0.0  T
   2    -13.3517462 -0.607354E-01  0.274E+00    9.17       1.0  T
   3    -13.3525293 -0.783127E-03  0.149E+00    8.81       1.0  T
   4    -13.3527045 -0.175186E-03  0.183E-01    8.57       1.0  T
   5    -13.3527353 -0.307842E-04  0.783E-02    8.67       1.0  T
   6    -13.3527413 -0.597973E-05  0.529E-02    8.67       1.0  T
   7    -13.3527466 -0.536639E-05  0.148E-02    8.68       2.8  T
   8    -13.3527466 -0.477958E-08  0.341E-03    8.68      12.0  T
   9    -13.3527467 -0.455524E-07  0.500E-04    8.68      81.7  T
  10    -13.3527467 -0.122284E-09  0.125E-04    8.68     325.8  T

   *** convergence criteria satisfied after 10 iterations ***

         #    Occupation            Energy/Eh            Energy/eV
      -------------------------------------------------------------
         1        2.0000           -0.9862550             -26.8374
       ...           ...                  ...                  ...
         5        2.0000           -0.5298226             -14.4172
         6        2.0000           -0.5297839             -14.4162
         7        2.0000           -0.4623852             -12.5821
         8        2.0000           -0.4623375             -12.5808
         9        2.0000           -0.3900515             -10.6138
        10        2.0000           -0.3892605             -10.5923
        11        2.0000           -0.3892599             -10.5923 (HOMO)
        12                         -0.0702107              -1.9105 (LUMO)
        13                          0.1416763               3.8552
        14                          0.1420933               3.8666
        15                          0.1420945               3.8666
        16                          0.1425529               3.8791
       ...                                ...                  ...
        20                          0.2397499               6.5239
      -------------------------------------------------------------
                  HL-Gap            0.3190492 Eh            8.6818 eV
             Fermi-level           -0.2297353 Eh           -6.2514 eV

 SCC (total)                   0 d,  0 h,  0 min,  0.006 sec
 SCC setup                      ...        0 min,  0.000 sec (  4.976%)
 Dispersion                     ...        0 min,  0.000 sec (  0.509%)
 integral evaluation            ...        0 min,  0.001 sec ( 18.459%)
 zeroth order Hamiltonian       ...        0 min,  0.000 sec (  0.493%)
 iterations                     ...        0 min,  0.003 sec ( 55.154%)
 molecular gradient             ...        0 min,  0.001 sec ( 17.602%)
 printout                       ...        0 min,  0.000 sec (  1.907%)

         :::::::::::::::::::::::::::::::::::::::::::::::::::::
         ::                     SUMMARY                     ::
         :::::::::::::::::::::::::::::::::::::::::::::::::::::
         :: total energy             -13.287923908699 Eh    ::
         :: total w/o Gsasa/hb       -13.287690574410 Eh    ::
         :: gradient norm              0.061564738242 Eh/a0 ::
         :: HOMO-LUMO gap              8.681771621571 eV    ::
         ::.................................................::
         :: SCC energy               -13.350636092274 Eh    ::
         :: -> isotropic ES            0.171255139269 Eh    ::
         :: -> anisotropic ES         -0.001031511773 Eh    ::
         :: -> anisotropic XC          0.000032193701 Eh    ::
         :: -> dispersion             -0.001487970023 Eh    ::
         :: -> Gsolv                  -0.102938910866 Eh    ::
         ::    -> Gborn               -0.102705576577 Eh    ::
         ::    -> Gsasa                0.000253132263 Eh    ::
         ::    -> Ghb                 -0.002343909679 Eh    ::
         ::    -> Gshift               0.001857443127 Eh    ::
         :: repulsion energy           0.062712717863 Eh    ::
         :: add. restraining           0.000000000000 Eh    ::
         :::::::::::::::::::::::::::::::::::::::::::::::::::::

           -------------------------------------------------
          |                Property Printout                |
           -------------------------------------------------

    * Orbital Energies and Occupations

         #    Occupation            Energy/Eh            Energy/eV
      -------------------------------------------------------------
         1        2.0000           -0.9862550             -26.8374
         2        2.0000           -0.7989528             -21.7406
         3        2.0000           -0.6125296             -16.6678
         4        2.0000           -0.5317059             -14.4685
         5        2.0000           -0.5298226             -14.4172
         6        2.0000           -0.5297839             -14.4162
         7        2.0000           -0.4623852             -12.5821
         8        2.0000           -0.4623375             -12.5808
         9        2.0000           -0.3900515             -10.6138
        10        2.0000           -0.3892605             -10.5923
        11        2.0000           -0.3892599             -10.5923 (HOMO)
        12                         -0.0702107              -1.9105 (LUMO)
        13                          0.1416763               3.8552
        14                          0.1420933               3.8666
        15                          0.1420945               3.8666
        16                          0.1425529               3.8791
        17                          0.1425529               3.8791
        18                          0.1546433               4.2081
        19                          0.2382263               6.4825
        20                          0.2397499               6.5239
      -------------------------------------------------------------
                  HL-Gap            0.3190492 Eh            8.6818 eV
             Fermi-level           -0.2297353 Eh           -6.2514 eV

     #   Z        covCN         q      C6AA      α(0)
     1   9 F      0.774    -0.308    12.410     4.161
     2  17 Cl     0.000    -1.000   127.007    17.151
     3   6 C      3.554     0.046    20.717     6.647
     4   1 H      0.927     0.087     1.906     2.159
     5   1 H      0.927     0.087     1.910     2.161
     6   1 H      0.927     0.087     1.907     2.160

 Mol. C6AA /au·bohr⁶  :        546.754564
 Mol. C8AA /au·bohr⁸  :      15827.038430
 Mol. α(0) /au        :         34.439779


Wiberg/Mayer (AO) data.
largest (>0.10) Wiberg bond orders for each atom
          total WBO             WBO to atom ...
     1  F   0.933        C    3 0.908
     2  Cl  0.000
     3  C   3.860        H    5 0.984    H    6 0.984    H    4 0.984    F    1 0.908
     4  H   0.992        C    3 0.984
     5  H   0.992        C    3 0.984
     6  H   0.992        C    3 0.984

molecular dipole:
                 x           y           z       tot (Debye)
 q only:       -4.048      -0.105       0.021
   full:       -3.869      -0.101       0.018       9.838
molecular quadrupole (traceless):
                xx          xy          yy          xz          yz          zz
 q only:      -32.496      -1.153      16.237       0.473       0.012      16.259
  q+dip:      -34.594      -1.214      17.285       0.533       0.013      17.309
   full:      -33.869      -1.193      16.923       0.512       0.012      16.946


           -------------------------------------------------
          | TOTAL ENERGY              -13.287923908699 Eh   |
          | GRADIENT NORM               0.061564738242 Eh/α |
          | HOMO-LUMO GAP               8.681771621571 eV   |
           -------------------------------------------------

------------------------------------------------------------------------
 * finished run on 2020/08/20 at 17:46:30.553     
------------------------------------------------------------------------
 total:
 * wall-time:     0 d,  0 h,  0 min,  0.075 sec
 *  cpu-time:     0 d,  0 h,  0 min,  0.018 sec
 * ratio c/w:     0.234 speedup
 SCF:
 * wall-time:     0 d,  0 h,  0 min,  0.006 sec
 *  cpu-time:     0 d,  0 h,  0 min,  0.006 sec
 * ratio c/w:     0.998 speedup

