      -----------------------------------------------------------      
     |                   =====================                   |     
     |                           x T B                           |     
     |                   =====================                   |     
     |                         S. Grimme                         |     
     |          Mulliken Center for Theoretical Chemistry        |     
     |                    University of Bonn                     |     
      -----------------------------------------------------------      

   * xtb version 6.2.3 (830e466) compiled by 'ehlert@majestix' on 2020-03-16

   xtb is free software: you can redistribute it and/or modify it under
   the terms of the GNU Lesser General Public License as published by
   the Free Software Foundation, either version 3 of the License, or
   (at your option) any later version.
   
   xtb is distributed in the hope that it will be useful,
   but WITHOUT ANY WARRANTY; without even the implied warranty of
   MERCHANTABILITY or FITNESS FOR A PARTICULAR PURPOSE.  See the
   GNU Lesser General Public License for more details.
   
   Cite this work as:
   * S. Grimme, C. Bannwarth, P. Shushkov, J. Chem. Theory Comput., 2017,
     13, 1989-2009. DOI: 10.1021/acs.jctc.7b00118
   * C. Bannwarth, S. Ehlert and S. Grimme., J. Chem. Theory Comput., 2019,
     15, 1652-1671. DOI: 10.1021/acs.jctc.8b01176
   * P. Pracht, E. Caldeweyher, S. Ehlert, S. Grimme, ChemRxiv, 2019, preprint.
     DOI: 10.26434/chemrxiv.8326202.v1
   
   for DFT-D4:
   * E. Caldeweyher, C. Bannwarth and S. Grimme, J. Chem. Phys., 2017,
     147, 034112. DOI: 10.1063/1.4993215
   * E. Caldeweyher, S. Ehlert, A. Hansen, H. Neugebauer, S. Spicher,
     C. Bannwarth and S. Grimme, J. Chem. Phys., 2019, 150, 154122.
     DOI: 10.1063/1.5090222
   
   for sTDA-xTB:
   * S. Grimme and C. Bannwarth, J. Chem. Phys., 2016, 145, 054103.
     DOI: 10.1063/1.4959605
   
   in the mass-spec context:
   * V. Asgeirsson, C. Bauer and S. Grimme, Chem. Sci., 2017, 8, 4879.
     DOI: 10.1039/c7sc00601b
   
   for metadynamics refer to:
   * S. Grimme, J. Chem. Theory Comput., 2019, 155, 2847-2862
     DOI: 10.1021/acs.jctc.9b00143
   
   with help from (in alphabetical order)
   C. Bannwarth, F. Bohle, G. Brandenburg, E. Caldeweyher, M. Checinski,
   S. Dohm, S. Ehlert, S. Ehrlich, F. März, H. Neugebauer, J. Pisarek,
   P. Pracht, P. Shushkov, and S. Spicher.
   
 * started run on 2020/08/20 at 17:46:30.884     

           -------------------------------------------------
          |                Calculation Setup                |
           -------------------------------------------------

          program call               : /u/fd/ball4935/opt/bin/xtb 12_4_xtb.xyz --chrg -1 --grad --gbsa Water
          hostname                   : comp0810
          coordinate file            : 12_4_xtb.xyz
          omp threads                :                     1
          number of atoms            :                     6
          number of electrons        :                    22
          charge                     :                    -1
          spin                       :                   0.0
          first test random number   :      0.05425589141052


molecular fragmentation (1/2 indicates fragments):
121111
# atoms in fragment 1/2:     5     1
 fragment masses (1/2) :       34.03       35.45
CMA distance (Bohr)    :   8.486
constraining FC (au)   :  0.0500
########################################################################
[WARNING] Please study the warnings concerning your input carefully
-2- prog_main: XTBPATH is not set, using XTBHOME instead
-1- prog_main: XTBHOME is not set, using HOME instead
########################################################################
           ------------------------------------------------- 
          |                 G F N 2 - x T B                 |
          | Geometry, Frequencies, Noncovalent interactions |
          |            JCTC 2019 parametrisation            |
           ------------------------------------------------- 
             k(s)              :                1.8500
             k(p)              :                2.2300
             k(d)              :                2.2300
             k(f)              :                2.0000
             kEN (H0ij)        :               -2.0000
             D4 a1             :                0.5200
             D4 a2             :                5.0000
             D4 s6             :                1.0000
             D4 s8             :                2.7000
             D4 s9             :                5.0000
             alphaj            :                2.0000

  Z AO/shell   Hii/eV     exponent
  1     Wed Apr 25 08:07:45 CEST 2018   EN: 2.200 GM2: 0.406  GM3: 0.0800  RAES: 1.40
     1s    -10.707211    1.230000
  6     Wed Apr 25 08:07:45 CEST 2018   EN: 2.550 GM2: 0.538  GM3: 0.1500  RAES: 3.00
     2s    -13.970922    2.096432
     2p    -10.063292    1.800000
  9     Mon Apr 23 13:58:50 CEST 2018   EN: 3.980 GM2: 0.532  GM3: 0.1426  RAES: 2.40
     2s    -23.458179    2.416361
     2p    -15.746583    2.308399
 17     Mon Apr 23 14:09:22 CEST 2018   EN: 3.160 GM2: 0.249  GM3: 0.1495  RAES: 2.50
     3s    -29.278781    2.485265
     3p    -12.673758    2.199650
     3d     -0.240338    2.476089

 Solvent             : Water
 Using internal parameter file: .param_gbsa2_Water
 Gsolv ref. state (COSMO-RS): gsolv [1 M gas/solution]
 temperature (mdtemp)       :    298.150000000000     
 dielectric constant        :    80.2000000000000     
 rho                        :    1.00000000000000     
 mass                       :    18.0000000000000     
 surface tension            :    15.5689454083859     
 probe radius               :   0.975313790000000     
 Gshift (Eh)                :   1.857443126794793E-003
 c1                         :    1.55243817000000     
 soset                      :   0.130326360000000     
 HB correction              :  T
           ------------------------------------------------- 
          |        Self-Consistent Charge Iterations        |
           ------------------------------------------------- 

          ...................................................
          :                      SETUP                      :
          :.................................................:
          :  # basis functions                  21          :
          :  # atomic orbitals                  20          :
          :  # shells                           10          :
          :  # electrons                        22          :
          :  max. iterations                   250          :
          :  Hamiltonian                  GFN2-xTB          :
          :  restarted?                      false          :
          :  GBSA solvation                   true          :
          :  PC potential                    false          :
          :  electronic temp.          300.0000000     K    :
          :  accuracy                    1.0000000          :
          :  -> integral cutoff          0.2500000E+02      :
          :  -> integral neglect         0.1000000E-07      :
          :  -> SCF convergence          0.1000000E-05 Eh   :
          :  -> wf. convergence          0.1000000E-03 e    :
          :  Broyden damping             0.4000000          :
          ...................................................

 iter      E             dE          RMSdq      gap      omega  full diag
   1    -13.2966792 -0.132967E+02  0.566E+00   12.58       0.0  T
   2    -13.3551717 -0.584925E-01  0.277E+00   10.33       1.0  T
   3    -13.3559173 -0.745532E-03  0.148E+00    9.92       1.0  T
   4    -13.3560819 -0.164634E-03  0.174E-01    9.69       1.0  T
   5    -13.3561107 -0.287987E-04  0.756E-02    9.78       1.0  T
   6    -13.3561154 -0.468623E-05  0.548E-02    9.78       1.0  T
   7    -13.3561211 -0.572953E-05  0.144E-02    9.79       2.8  T
   8    -13.3561211 -0.324344E-07  0.142E-03    9.79      28.8  T
   9    -13.3561212 -0.410405E-08  0.416E-04    9.79      98.2  T
  10    -13.3561212 -0.188187E-10  0.631E-05    9.79     646.8  T

   *** convergence criteria satisfied after 10 iterations ***

         #    Occupation            Energy/Eh            Energy/eV
      -------------------------------------------------------------
         1        2.0000           -0.9861208             -26.8337
       ...           ...                  ...                  ...
         5        2.0000           -0.5334505             -14.5159
         6        2.0000           -0.5334226             -14.5152
         7        2.0000           -0.4616076             -12.5610
         8        2.0000           -0.4615921             -12.5606
         9        2.0000           -0.3899264             -10.6104
        10        2.0000           -0.3891281             -10.5887
        11        2.0000           -0.3891274             -10.5887 (HOMO)
        12                         -0.0293573              -0.7989 (LUMO)
        13                          0.1417344               3.8568
        14                          0.1421962               3.8694
        15                          0.1421978               3.8694
        16                          0.1426710               3.8823
       ...                                ...                  ...
        20                          0.2403813               6.5411
      -------------------------------------------------------------
                  HL-Gap            0.3597702 Eh            9.7898 eV
             Fermi-level           -0.2092423 Eh           -5.6938 eV

 SCC (total)                   0 d,  0 h,  0 min,  0.006 sec
 SCC setup                      ...        0 min,  0.000 sec (  4.661%)
 Dispersion                     ...        0 min,  0.000 sec (  0.469%)
 integral evaluation            ...        0 min,  0.001 sec ( 18.020%)
 zeroth order Hamiltonian       ...        0 min,  0.000 sec (  0.646%)
 iterations                     ...        0 min,  0.003 sec ( 55.743%)
 molecular gradient             ...        0 min,  0.001 sec ( 17.820%)
 printout                       ...        0 min,  0.000 sec (  1.696%)

         :::::::::::::::::::::::::::::::::::::::::::::::::::::
         ::                     SUMMARY                     ::
         :::::::::::::::::::::::::::::::::::::::::::::::::::::
         :: total energy             -13.289996485712 Eh    ::
         :: total w/o Gsasa/hb       -13.289883403214 Eh    ::
         :: gradient norm              0.047387752003 Eh/a0 ::
         :: HOMO-LUMO gap              9.789844546633 eV    ::
         ::.................................................::
         :: SCC energy               -13.354016141092 Eh    ::
         :: -> isotropic ES            0.169904057128 Eh    ::
         :: -> anisotropic ES         -0.000937885546 Eh    ::
         :: -> anisotropic XC         -0.000805784027 Eh    ::
         :: -> dispersion             -0.001541683934 Eh    ::
         :: -> Gsolv                  -0.102576452236 Eh    ::
         ::    -> Gborn               -0.102463369737 Eh    ::
         ::    -> Gsasa                0.000247566136 Eh    ::
         ::    -> Ghb                 -0.002218091761 Eh    ::
         ::    -> Gshift               0.001857443127 Eh    ::
         :: repulsion energy           0.064020076290 Eh    ::
         :: add. restraining           0.000000000000 Eh    ::
         :::::::::::::::::::::::::::::::::::::::::::::::::::::

           -------------------------------------------------
          |                Property Printout                |
           -------------------------------------------------

    * Orbital Energies and Occupations

         #    Occupation            Energy/Eh            Energy/eV
      -------------------------------------------------------------
         1        2.0000           -0.9861208             -26.8337
         2        2.0000           -0.8050364             -21.9062
         3        2.0000           -0.6133293             -16.6895
         4        2.0000           -0.5344294             -14.5426
         5        2.0000           -0.5334505             -14.5159
         6        2.0000           -0.5334226             -14.5152
         7        2.0000           -0.4616076             -12.5610
         8        2.0000           -0.4615921             -12.5606
         9        2.0000           -0.3899264             -10.6104
        10        2.0000           -0.3891281             -10.5887
        11        2.0000           -0.3891274             -10.5887 (HOMO)
        12                         -0.0293573              -0.7989 (LUMO)
        13                          0.1417344               3.8568
        14                          0.1421962               3.8694
        15                          0.1421978               3.8694
        16                          0.1426710               3.8823
        17                          0.1426711               3.8823
        18                          0.1573764               4.2824
        19                          0.2402554               6.5377
        20                          0.2403813               6.5411
      -------------------------------------------------------------
                  HL-Gap            0.3597702 Eh            9.7898 eV
             Fermi-level           -0.2092423 Eh           -5.6938 eV

     #   Z        covCN         q      C6AA      α(0)
     1   9 F      0.779    -0.298    12.295     4.142
     2  17 Cl     0.000    -1.000   127.005    17.151
     3   6 C      3.559     0.053    20.559     6.615
     4   1 H      0.927     0.082     1.963     2.191
     5   1 H      0.927     0.081     1.966     2.192
     6   1 H      0.927     0.081     1.965     2.192

 Mol. C6AA /au·bohr⁶  :        548.020085
 Mol. C8AA /au·bohr⁸  :      15839.650064
 Mol. α(0) /au        :         34.482733


Wiberg/Mayer (AO) data.
largest (>0.10) Wiberg bond orders for each atom
          total WBO             WBO to atom ...
     1  F   0.945        C    3 0.916
     2  Cl  0.000
     3  C   3.867        H    5 0.984    H    6 0.984    H    4 0.984    F    1 0.916
     4  H   0.993        C    3 0.984
     5  H   0.993        C    3 0.984
     6  H   0.993        C    3 0.984

molecular dipole:
                 x           y           z       tot (Debye)
 q only:       -3.958      -0.103       0.020
   full:       -3.784      -0.100       0.018       9.621
molecular quadrupole (traceless):
                xx          xy          yy          xz          yz          zz
 q only:      -30.584      -1.088      15.281       0.443       0.011      15.303
  q+dip:      -32.788      -1.151      16.382       0.505       0.012      16.406
   full:      -32.047      -1.130      16.012       0.484       0.012      16.035


           -------------------------------------------------
          | TOTAL ENERGY              -13.289996485712 Eh   |
          | GRADIENT NORM               0.047387752003 Eh/α |
          | HOMO-LUMO GAP               9.789844546633 eV   |
           -------------------------------------------------

------------------------------------------------------------------------
 * finished run on 2020/08/20 at 17:46:30.976     
------------------------------------------------------------------------
 total:
 * wall-time:     0 d,  0 h,  0 min,  0.092 sec
 *  cpu-time:     0 d,  0 h,  0 min,  0.017 sec
 * ratio c/w:     0.183 speedup
 SCF:
 * wall-time:     0 d,  0 h,  0 min,  0.006 sec
 *  cpu-time:     0 d,  0 h,  0 min,  0.006 sec
 * ratio c/w:     0.997 speedup

