      -----------------------------------------------------------      
     |                   =====================                   |     
     |                           x T B                           |     
     |                   =====================                   |     
     |                         S. Grimme                         |     
     |          Mulliken Center for Theoretical Chemistry        |     
     |                    University of Bonn                     |     
      -----------------------------------------------------------      

   * xtb version 6.2.3 (830e466) compiled by 'ehlert@majestix' on 2020-03-16

   xtb is free software: you can redistribute it and/or modify it under
   the terms of the GNU Lesser General Public License as published by
   the Free Software Foundation, either version 3 of the License, or
   (at your option) any later version.
   
   xtb is distributed in the hope that it will be useful,
   but WITHOUT ANY WARRANTY; without even the implied warranty of
   MERCHANTABILITY or FITNESS FOR A PARTICULAR PURPOSE.  See the
   GNU Lesser General Public License for more details.
   
   Cite this work as:
   * S. Grimme, C. Bannwarth, P. Shushkov, J. Chem. Theory Comput., 2017,
     13, 1989-2009. DOI: 10.1021/acs.jctc.7b00118
   * C. Bannwarth, S. Ehlert and S. Grimme., J. Chem. Theory Comput., 2019,
     15, 1652-1671. DOI: 10.1021/acs.jctc.8b01176
   * P. Pracht, E. Caldeweyher, S. Ehlert, S. Grimme, ChemRxiv, 2019, preprint.
     DOI: 10.26434/chemrxiv.8326202.v1
   
   for DFT-D4:
   * E. Caldeweyher, C. Bannwarth and S. Grimme, J. Chem. Phys., 2017,
     147, 034112. DOI: 10.1063/1.4993215
   * E. Caldeweyher, S. Ehlert, A. Hansen, H. Neugebauer, S. Spicher,
     C. Bannwarth and S. Grimme, J. Chem. Phys., 2019, 150, 154122.
     DOI: 10.1063/1.5090222
   
   for sTDA-xTB:
   * S. Grimme and C. Bannwarth, J. Chem. Phys., 2016, 145, 054103.
     DOI: 10.1063/1.4959605
   
   in the mass-spec context:
   * V. Asgeirsson, C. Bauer and S. Grimme, Chem. Sci., 2017, 8, 4879.
     DOI: 10.1039/c7sc00601b
   
   for metadynamics refer to:
   * S. Grimme, J. Chem. Theory Comput., 2019, 155, 2847-2862
     DOI: 10.1021/acs.jctc.9b00143
   
   with help from (in alphabetical order)
   C. Bannwarth, F. Bohle, G. Brandenburg, E. Caldeweyher, M. Checinski,
   S. Dohm, S. Ehlert, S. Ehrlich, F. März, H. Neugebauer, J. Pisarek,
   P. Pracht, P. Shushkov, and S. Spicher.
   
 * started run on 2020/08/20 at 17:46:31.936     

           -------------------------------------------------
          |                Calculation Setup                |
           -------------------------------------------------

          program call               : /u/fd/ball4935/opt/bin/xtb 12_7_xtb.xyz --chrg -1 --grad --gbsa Water
          hostname                   : comp0810
          coordinate file            : 12_7_xtb.xyz
          omp threads                :                     1
          number of atoms            :                     6
          number of electrons        :                    22
          charge                     :                    -1
          spin                       :                   0.0
          first test random number   :      0.01732561200516


molecular fragmentation (1/2 indicates fragments):
121111
# atoms in fragment 1/2:     5     1
 fragment masses (1/2) :       34.03       35.45
CMA distance (Bohr)    :   8.392
constraining FC (au)   :  0.0500
########################################################################
[WARNING] Please study the warnings concerning your input carefully
-2- prog_main: XTBPATH is not set, using XTBHOME instead
-1- prog_main: XTBHOME is not set, using HOME instead
########################################################################
           ------------------------------------------------- 
          |                 G F N 2 - x T B                 |
          | Geometry, Frequencies, Noncovalent interactions |
          |            JCTC 2019 parametrisation            |
           ------------------------------------------------- 
             k(s)              :                1.8500
             k(p)              :                2.2300
             k(d)              :                2.2300
             k(f)              :                2.0000
             kEN (H0ij)        :               -2.0000
             D4 a1             :                0.5200
             D4 a2             :                5.0000
             D4 s6             :                1.0000
             D4 s8             :                2.7000
             D4 s9             :                5.0000
             alphaj            :                2.0000

  Z AO/shell   Hii/eV     exponent
  1     Wed Apr 25 08:07:45 CEST 2018   EN: 2.200 GM2: 0.406  GM3: 0.0800  RAES: 1.40
     1s    -10.707211    1.230000
  6     Wed Apr 25 08:07:45 CEST 2018   EN: 2.550 GM2: 0.538  GM3: 0.1500  RAES: 3.00
     2s    -13.970922    2.096432
     2p    -10.063292    1.800000
  9     Mon Apr 23 13:58:50 CEST 2018   EN: 3.980 GM2: 0.532  GM3: 0.1426  RAES: 2.40
     2s    -23.458179    2.416361
     2p    -15.746583    2.308399
 17     Mon Apr 23 14:09:22 CEST 2018   EN: 3.160 GM2: 0.249  GM3: 0.1495  RAES: 2.50
     3s    -29.278781    2.485265
     3p    -12.673758    2.199650
     3d     -0.240338    2.476089

 Solvent             : Water
 Using internal parameter file: .param_gbsa2_Water
 Gsolv ref. state (COSMO-RS): gsolv [1 M gas/solution]
 temperature (mdtemp)       :    298.150000000000     
 dielectric constant        :    80.2000000000000     
 rho                        :    1.00000000000000     
 mass                       :    18.0000000000000     
 surface tension            :    15.5689454083859     
 probe radius               :   0.975313790000000     
 Gshift (Eh)                :   1.857443126794793E-003
 c1                         :    1.55243817000000     
 soset                      :   0.130326360000000     
 HB correction              :  T
           ------------------------------------------------- 
          |        Self-Consistent Charge Iterations        |
           ------------------------------------------------- 

          ...................................................
          :                      SETUP                      :
          :.................................................:
          :  # basis functions                  21          :
          :  # atomic orbitals                  20          :
          :  # shells                           10          :
          :  # electrons                        22          :
          :  max. iterations                   250          :
          :  Hamiltonian                  GFN2-xTB          :
          :  restarted?                      false          :
          :  GBSA solvation                   true          :
          :  PC potential                    false          :
          :  electronic temp.          300.0000000     K    :
          :  accuracy                    1.0000000          :
          :  -> integral cutoff          0.2500000E+02      :
          :  -> integral neglect         0.1000000E-07      :
          :  -> SCF convergence          0.1000000E-05 Eh   :
          :  -> wf. convergence          0.1000000E-03 e    :
          :  Broyden damping             0.4000000          :
          ...................................................

 iter      E             dE          RMSdq      gap      omega  full diag
   1    -13.2904802 -0.132905E+02  0.549E+00   12.29       0.0  T
   2    -13.3500150 -0.595349E-01  0.282E+00   13.26       1.0  T
   3    -13.3507804 -0.765320E-03  0.154E+00   13.75       1.0  T
   4    -13.3509434 -0.163089E-03  0.162E-01   13.82       1.0  T
   5    -13.3509708 -0.273317E-04  0.677E-02   13.86       1.0  T
   6    -13.3509741 -0.332103E-05  0.529E-02   13.87       1.0  T
   7    -13.3509793 -0.524767E-05  0.131E-02   13.88       3.1  T
   8    -13.3509793  0.269180E-07  0.427E-03   13.88       9.6  T
   9    -13.3509794 -0.629857E-07  0.430E-04   13.88      94.9  T
  10    -13.3509794 -0.317879E-10  0.775E-05   13.88     526.5  T

   *** convergence criteria satisfied after 10 iterations ***

         #    Occupation            Energy/Eh            Energy/eV
      -------------------------------------------------------------
         1        2.0000           -0.9862266             -26.8366
       ...           ...                  ...                  ...
         5        2.0000           -0.5457253             -14.8499
         6        2.0000           -0.5433660             -14.7857
         7        2.0000           -0.4579726             -12.4621
         8        2.0000           -0.4579298             -12.4609
         9        2.0000           -0.3898171             -10.6075
        10        2.0000           -0.3891527             -10.5894
        11        2.0000           -0.3891522             -10.5894 (HOMO)
        12                          0.1210201               3.2931 (LUMO)
        13                          0.1275920               3.4720
        14                          0.1422101               3.8697
        15                          0.1422141               3.8698
        16                          0.1426454               3.8816
       ...                                ...                  ...
        20                          0.1864363               5.0732
      -------------------------------------------------------------
                  HL-Gap            0.5101724 Eh           13.8825 eV
             Fermi-level           -0.1340661 Eh           -3.6481 eV

 SCC (total)                   0 d,  0 h,  0 min,  0.006 sec
 SCC setup                      ...        0 min,  0.000 sec (  5.073%)
 Dispersion                     ...        0 min,  0.000 sec (  0.494%)
 integral evaluation            ...        0 min,  0.001 sec ( 19.292%)
 zeroth order Hamiltonian       ...        0 min,  0.000 sec (  0.478%)
 iterations                     ...        0 min,  0.003 sec ( 53.194%)
 molecular gradient             ...        0 min,  0.001 sec ( 18.793%)
 printout                       ...        0 min,  0.000 sec (  1.711%)

         :::::::::::::::::::::::::::::::::::::::::::::::::::::
         ::                     SUMMARY                     ::
         :::::::::::::::::::::::::::::::::::::::::::::::::::::
         :: total energy             -13.290793424305 Eh    ::
         :: total w/o Gsasa/hb       -13.290971943315 Eh    ::
         :: gradient norm              0.044142281557 Eh/a0 ::
         :: HOMO-LUMO gap             13.882496645994 eV    ::
         ::.................................................::
         :: SCC energy               -13.348923374892 Eh    ::
         :: -> isotropic ES            0.166430837436 Eh    ::
         :: -> anisotropic ES         -0.000338414173 Eh    ::
         :: -> anisotropic XC         -0.003022286341 Eh    ::
         :: -> dispersion             -0.001606852053 Eh    ::
         :: -> Gsolv                  -0.102695524451 Eh    ::
         ::    -> Gborn               -0.102874043461 Eh    ::
         ::    -> Gsasa                0.000198560303 Eh    ::
         ::    -> Ghb                 -0.001877484419 Eh    ::
         ::    -> Gshift               0.001857443127 Eh    ::
         :: repulsion energy           0.058130251214 Eh    ::
         :: add. restraining           0.000000000000 Eh    ::
         :::::::::::::::::::::::::::::::::::::::::::::::::::::

           -------------------------------------------------
          |                Property Printout                |
           -------------------------------------------------

    * Orbital Energies and Occupations

         #    Occupation            Energy/Eh            Energy/eV
      -------------------------------------------------------------
         1        2.0000           -0.9862266             -26.8366
         2        2.0000           -0.8258568             -22.4727
         3        2.0000           -0.6161445             -16.7661
         4        2.0000           -0.5457635             -14.8510
         5        2.0000           -0.5457253             -14.8499
         6        2.0000           -0.5433660             -14.7857
         7        2.0000           -0.4579726             -12.4621
         8        2.0000           -0.4579298             -12.4609
         9        2.0000           -0.3898171             -10.6075
        10        2.0000           -0.3891527             -10.5894
        11        2.0000           -0.3891522             -10.5894 (HOMO)
        12                          0.1210201               3.2931 (LUMO)
        13                          0.1275920               3.4720
        14                          0.1422101               3.8697
        15                          0.1422141               3.8698
        16                          0.1426454               3.8816
        17                          0.1426455               3.8816
        18                          0.1426603               3.8820
        19                          0.1856744               5.0525
        20                          0.1864363               5.0732
      -------------------------------------------------------------
                  HL-Gap            0.5101724 Eh           13.8825 eV
             Fermi-level           -0.1340661 Eh           -3.6481 eV

     #   Z        covCN         q      C6AA      α(0)
     1   9 F      0.784    -0.255    11.819     4.061
     2  17 Cl     0.000    -1.000   127.005    17.151
     3   6 C      3.553     0.078    20.184     6.562
     4   1 H      0.923     0.059     2.211     2.325
     5   1 H      0.923     0.059     2.213     2.326
     6   1 H      0.923     0.059     2.214     2.327

 Mol. C6AA /au·bohr⁶  :        554.985737
 Mol. C8AA /au·bohr⁸  :      15938.869677
 Mol. α(0) /au        :         34.752613


Wiberg/Mayer (AO) data.
largest (>0.10) Wiberg bond orders for each atom
          total WBO             WBO to atom ...
     1  F   1.003        C    3 0.950
     2  Cl  0.000
     3  C   3.886        H    5 0.979    H    4 0.979    H    6 0.979    F    1 0.950
     4  H   0.997        C    3 0.979
     5  H   0.997        C    3 0.979
     6  H   0.997        C    3 0.979

molecular dipole:
                 x           y           z       tot (Debye)
 q only:       -4.066      -0.106       0.023
   full:       -3.902      -0.102       0.021       9.922
molecular quadrupole (traceless):
                xx          xy          yy          xz          yz          zz
 q only:      -28.563      -1.024      14.271       0.402       0.010      14.292
  q+dip:      -31.003      -1.094      15.490       0.467       0.011      15.513
   full:      -30.277      -1.074      15.128       0.447       0.011      15.150


           -------------------------------------------------
          | TOTAL ENERGY              -13.290793424305 Eh   |
          | GRADIENT NORM               0.044142281557 Eh/α |
          | HOMO-LUMO GAP              13.882496645994 eV   |
           -------------------------------------------------

------------------------------------------------------------------------
 * finished run on 2020/08/20 at 17:46:31.991     
------------------------------------------------------------------------
 total:
 * wall-time:     0 d,  0 h,  0 min,  0.055 sec
 *  cpu-time:     0 d,  0 h,  0 min,  0.017 sec
 * ratio c/w:     0.307 speedup
 SCF:
 * wall-time:     0 d,  0 h,  0 min,  0.006 sec
 *  cpu-time:     0 d,  0 h,  0 min,  0.006 sec
 * ratio c/w:     0.998 speedup

