 Entering Gaussian System, Link 0=/usr/local/gaussian/g09/g09
 Input=angle_fail_cartesian_g09.com
 Output=angle_fail_cartesian_g09.log
 Initial command:
 /usr/local/gaussian/g09/l1.exe "/home/aleph/fd/shug5449/autodE/tests/data/Gau-226885.inp" -scrdir="/home/aleph/fd/shug5449/autodE/tests/data/"
 Entering Link 1 = /usr/local/gaussian/g09/l1.exe PID=    226886.
  
 Copyright (c) 1988,1990,1992,1993,1995,1998,2003,2009,2013,
            Gaussian, Inc.  All Rights Reserved.
  
 This is part of the Gaussian(R) 09 program.  It is based on
 the Gaussian(R) 03 system (copyright 2003, Gaussian, Inc.),
 the Gaussian(R) 98 system (copyright 1998, Gaussian, Inc.),
 the Gaussian(R) 94 system (copyright 1995, Gaussian, Inc.),
 the Gaussian 92(TM) system (copyright 1992, Gaussian, Inc.),
 the Gaussian 90(TM) system (copyright 1990, Gaussian, Inc.),
 the Gaussian 88(TM) system (copyright 1988, Gaussian, Inc.),
 the Gaussian 86(TM) system (copyright 1986, Carnegie Mellon
 University), and the Gaussian 82(TM) system (copyright 1983,
 Carnegie Mellon University). Gaussian is a federally registered
 trademark of Gaussian, Inc.
  
 This software contains proprietary and confidential information,
 including trade secrets, belonging to Gaussian, Inc.
  
 This software is provided under written license and may be
 used, copied, transmitted, or stored only in accord with that
 written license.
  
 The following legend is applicable only to US Government
 contracts under FAR:
  
                    RESTRICTED RIGHTS LEGEND
  
 Use, reproduction and disclosure by the US Government is
 subject to restrictions as set forth in subparagraphs (a)
 and (c) of the Commercial Computer Software - Restricted
 Rights clause in FAR 52.227-19.
  
 Gaussian, Inc.
 340 Quinnipiac St., Bldg. 40, Wallingford CT 06492
  
  
 ---------------------------------------------------------------
 Warning -- This program may not be used in any manner that
 competes with the business of Gaussian, Inc. or will provide
 assistance to any competitor of Gaussian, Inc.  The licensee
 of this program is prohibited from giving any competitor of
 Gaussian, Inc. access to this program.  By using this program,
 the user acknowledges that Gaussian, Inc. is engaged in the
 business of creating and licensing software in the field of
 computational chemistry and represents and warrants to the
 licensee that it is not a competitor of Gaussian, Inc. and that
 it will not use this program in any manner prohibited above.
 ---------------------------------------------------------------
  

 Cite this work as:
 Gaussian 09, Revision D.01,
 M. J. Frisch, G. W. Trucks, H. B. Schlegel, G. E. Scuseria, 
 M. A. Robb, J. R. Cheeseman, G. Scalmani, V. Barone, B. Mennucci, 
 G. A. Petersson, H. Nakatsuji, M. Caricato, X. Li, H. P. Hratchian, 
 A. F. Izmaylov, J. Bloino, G. Zheng, J. L. Sonnenberg, M. Hada, 
 M. Ehara, K. Toyota, R. Fukuda, J. Hasegawa, M. Ishida, T. Nakajima, 
 Y. Honda, O. Kitao, H. Nakai, T. Vreven, J. A. Montgomery, Jr., 
 J. E. Peralta, F. Ogliaro, M. Bearpark, J. J. Heyd, E. Brothers, 
 K. N. Kudin, V. N. Staroverov, T. Keith, R. Kobayashi, J. Normand, 
 K. Raghavachari, A. Rendell, J. C. Burant, S. S. Iyengar, J. Tomasi, 
 M. Cossi, N. Rega, J. M. Millam, M. Klene, J. E. Knox, J. B. Cross, 
 V. Bakken, C. Adamo, J. Jaramillo, R. Gomperts, R. E. Stratmann, 
 O. Yazyev, A. J. Austin, R. Cammi, C. Pomelli, J. W. Ochterski, 
 R. L. Martin, K. Morokuma, V. G. Zakrzewski, G. A. Voth, 
 P. Salvador, J. J. Dannenberg, S. Dapprich, A. D. Daniels, 
 O. Farkas, J. B. Foresman, J. V. Ortiz, J. Cioslowski, 
 and D. J. Fox, Gaussian, Inc., Wallingford CT, 2013.
 
 ******************************************
 Gaussian 09:  EM64L-G09RevD.01 24-Apr-2013
                16-Dec-2019 
 ******************************************
 %mem=1000MB
 ---------------------------------------------------------
 # PBE1PBE/Def2SVP Opt=(maxcycles=3, maxstep=1, cartesian)
 ---------------------------------------------------------
 1/6=3,8=1,10=7,14=-1,18=10,26=3,38=1/1,3;
 2/12=2,17=6,18=5,29=2,40=1/2;
 3/5=43,7=101,11=2,16=1,25=1,30=1,71=1,74=-13/1,2,3;
 4//1;
 5/5=2,38=5/2;
 6/7=2,8=2,9=2,10=2,28=1/1;
 7/7=1,29=1/1,2,3,16;
 1/6=3,8=1,10=7,14=-1,18=10,26=3/3(2);
 2/29=1/2;
 99/12=1/99;
 2/29=1/2;
 3/5=43,7=101,11=2,16=1,25=1,30=1,71=1,74=-13/1,2,3;
 4/5=5,16=3,69=1/1;
 5/5=2,38=5/2;
 7/7=1/1,2,3,16;
 1/6=3,8=1,14=-1,18=10,26=3/3(-5);
 2/29=1/2;
 6/7=2,8=2,9=2,10=2,19=2,28=1/1;
 99/9=1,12=1/99;
 --------------------
 angle_fail_cartesian
 --------------------
 Symbolic Z-matrix:
 Charge =  0 Multiplicity = 1
 C                    -1.88198   1.41716  -0.42965 
 C                    -1.62649   0.87831   0.83533 
 C                    -2.45319   2.37677  -0.34938 
 C                    -2.50265   0.75958  -1.10162 
 C                    -0.95306   1.65669  -1.01292 
 O                    -0.93484  -2.01172  -0.54264 
 H                    -0.13899  -1.24606   0.51214 
 H                     1.25465  -0.99154   0.21842 
 H                     1.77833   0.94623  -0.16279 
 H                    -0.63071  -3.0793   -0.67589 
 H                    -2.02273  -2.02084  -0.3121 
 H                    -0.83695  -1.53644  -1.54375 
 H                    -0.95454  -0.08133   0.68933 
 H                    -0.28211  -1.64397   1.53977 
 H                     1.9782   -1.15401   1.03578 
 H                     1.64499  -1.39658  -0.73403 
 

 GradGradGradGradGradGradGradGradGradGradGradGradGradGradGradGradGradGrad
 Berny optimization.
 Initialization pass.
 No Z-matrix variables, so optimization will use Cartesian coordinates.
 Trust Radius=1.00D-02 FncErr=1.00D-07 GrdErr=1.00D-06
 Number of steps in this run=      3 maximum allowed number of steps=    100.
 GradGradGradGradGradGradGradGradGradGradGradGradGradGradGradGradGradGrad

 ---------------------------------------------------------------------------------------------------
                            Z-MATRIX (ANGSTROMS AND DEGREES)
   CD    Cent   Atom    N1       Length/X        N2       Alpha/Y        N3        Beta/Z          J
 ---------------------------------------------------------------------------------------------------
      1      1  C        0  -1.881984          1.417162         -0.429654
      2      2  C        0  -1.626493          0.878313          0.835325
      3      3  C        0  -2.453186          2.376773         -0.349375
      4      4  C        0  -2.502651          0.759575         -1.101617
      5      5  C        0  -0.953059          1.656690         -1.012916
      6      6  O        0  -0.934836         -2.011723         -0.542637
      7      7  H        0  -0.138987         -1.246056          0.512140
      8      8  H        0   1.254649         -0.991536          0.218418
      9      9  H        0   1.778332          0.946226         -0.162788
     10     10  H        0  -0.630713         -3.079296         -0.675890
     11     11  H        0  -2.022733         -2.020840         -0.312101
     12     12  H        0  -0.836947         -1.536438         -1.543751
     13     13  H        0  -0.954541         -0.081329          0.689333
     14     14  H        0  -0.282112         -1.643972          1.539773
     15     15  H        0   1.978200         -1.154009          1.035776
     16     16  H        0   1.644991         -1.396578         -0.734032
 ---------------------------------------------------------------------------------------------------
                         Z-Matrix orientation:                         
 ---------------------------------------------------------------------
 Center     Atomic      Atomic             Coordinates (Angstroms)
 Number     Number       Type             X           Y           Z
 ---------------------------------------------------------------------
      1          6           0       -1.881984    1.417162   -0.429654
      2          6           0       -1.626493    0.878313    0.835325
      3          6           0       -2.453186    2.376773   -0.349375
      4          6           0       -2.502651    0.759575   -1.101617
      5          6           0       -0.953059    1.656690   -1.012916
      6          8           0       -0.934836   -2.011723   -0.542637
      7          1           0       -0.138987   -1.246056    0.512140
      8          1           0        1.254649   -0.991536    0.218418
      9          1           0        1.778332    0.946226   -0.162788
     10          1           0       -0.630713   -3.079296   -0.675890
     11          1           0       -2.022733   -2.020840   -0.312101
     12          1           0       -0.836947   -1.536438   -1.543751
     13          1           0       -0.954541   -0.081329    0.689333
     14          1           0       -0.282112   -1.643972    1.539773
     15          1           0        1.978200   -1.154009    1.035776
     16          1           0        1.644991   -1.396578   -0.734032
 ---------------------------------------------------------------------
                    Distance matrix (angstroms):
                    1          2          3          4          5
     1  C    0.000000
     2  C    1.398501   0.000000
     3  C    1.119629   2.081422   0.000000
     4  C    1.126580   2.129201   1.784277   0.000000
     5  C    1.122706   2.115509   1.791420   1.792741   0.000000
     6  O    3.559088   3.275588   4.647756   3.232738   3.698479
     7  H    3.319299   2.613440   4.384360   3.494807   3.378527
     8  H    4.007529   3.489683   5.041422   4.350424   3.661046
     9  H    3.700123   3.548757   4.470685   4.386691   2.947537
    10  H    4.673804   4.351783   5.761659   4.292124   4.758892
    11  H    3.442889   3.143037   4.418787   2.929909   3.893529
    12  H    3.325217   3.480576   4.399089   2.870841   3.239033
    13  H    2.087524   1.180570   3.060575   2.512223   2.432769
    14  H    3.976025   2.943727   4.944576   4.205327   4.226199
    15  H    4.864096   4.142985   5.832859   5.320552   4.548565
    16  H    4.522094   4.282595   5.584012   4.689035   4.018717
                    6          7          8          9         10
     6  O    0.000000
     7  H    1.527146   0.000000
     8  H    2.532554   1.446815   0.000000
     9  H    4.031752   2.989605   2.043155   0.000000
    10  H    1.118016   2.239192   2.951799   4.719279   0.000000
    11  H    1.112093   2.197308   3.475939   4.824300   1.786167
    12  H    1.112523   2.190470   2.788715   3.861394   1.782169
    13  H    2.290100   1.432869   2.435315   3.041476   3.310061
    14  H    2.213079   1.111239   2.129152   3.721998   2.662863
    15  H    3.422403   2.182922   1.103629   2.426415   3.666464
    16  H    2.659049   2.181325   1.106159   2.415125   2.830857
                   11         12         13         14         15
    11  H    0.000000
    12  H    1.776991   0.000000
    13  H    2.430145   2.667927   0.000000
    14  H    2.569286   3.134888   1.901910   0.000000
    15  H    4.309946   3.837351   3.141916   2.367084   0.000000
    16  H    3.744319   2.614426   3.242440   2.990839   1.817165
                   16
    16  H    0.000000
 Stoichiometry    C5H10O
 Framework group  C1[X(C5H10O)]
 Deg. of freedom    42
 Full point group                 C1      NOp   1
 Largest Abelian subgroup         C1      NOp   1
 Largest concise Abelian subgroup C1      NOp   1
                         Standard orientation:                         
 ---------------------------------------------------------------------
 Center     Atomic      Atomic             Coordinates (Angstroms)
 Number     Number       Type             X           Y           Z
 ---------------------------------------------------------------------
      1          6           0       -1.268099   -0.016379   -0.002892
      2          6           0       -0.588124    0.387777    1.150406
      3          6           0       -2.374457   -0.032526    0.168226
      4          6           0       -1.009415   -1.053308   -0.359323
      5          6           0       -1.100111    0.658446   -0.884289
      6          8           0        2.201949   -0.803218   -0.085111
      7          1           0        1.952200    0.557973    0.560614
      8          1           0        2.336611    1.722834   -0.206589
      9          1           0        0.824710    2.890213   -0.931753
     10          1           0        3.279908   -1.074184   -0.205699
     11          1           0        1.733383   -1.627461    0.496112
     12          1           0        1.756153   -0.853233   -1.103184
     13          1           0        0.559418    0.464660    0.883980
     14          1           0        2.310515    0.614232    1.610993
     15          1           0        2.863508    2.528485    0.333136
     16          1           0        2.809240    1.538165   -1.189496
 ---------------------------------------------------------------------
 Rotational constants (GHZ):      5.6344748      1.8347916      1.7097556
 Standard basis: def2SVP (5D, 7F)
 There are   140 symmetry adapted cartesian basis functions of A   symmetry.
 There are   134 symmetry adapted basis functions of A   symmetry.
   134 basis functions,   220 primitive gaussians,   140 cartesian basis functions
    24 alpha electrons       24 beta electrons
       nuclear repulsion energy       236.4164175803 Hartrees.
 NAtoms=   16 NActive=   16 NUniq=   16 SFac= 1.00D+00 NAtFMM=   60 NAOKFM=F Big=F
 Integral buffers will be    131072 words long.
 Raffenetti 2 integral format.
 Two-electron integral symmetry is turned on.
 One-electron integrals computed using PRISM.
   1 Symmetry operations used in ECPInt.
 ECPInt:  NShTT=    2211 NPrTT=    7611 LenC2=    2199 LenP2D=    6268.
 LDataN:  DoStor=T MaxTD1= 4 Len=   56
 NBasis=   134 RedAO= T EigKep=  3.81D-04  NBF=   134
 NBsUse=   134 1.00D-06 EigRej= -1.00D+00 NBFU=   134
 ExpMin= 1.22D-01 ExpMax= 2.27D+03 ExpMxC= 3.41D+02 IAcc=1 IRadAn=         1 AccDes= 0.00D+00
 Harris functional with IExCor= 1009 and IRadAn=       1 diagonalized for initial guess.
 HarFok:  IExCor= 1009 AccDes= 0.00D+00 IRadAn=         1 IDoV= 1 UseB2=F ITyADJ=14
 ICtDFT=  3500011 ScaDFX=  1.000000  1.000000  1.000000  1.000000
 FoFCou: FMM=F IPFlag=           0 FMFlag=      100000 FMFlg1=           0
         NFxFlg=           0 DoJE=T BraDBF=F KetDBF=T FulRan=T
         wScrn=  0.000000 ICntrl=     500 IOpCl=  0 I1Cent=   200000004 NGrid=           0
         NMat0=    1 NMatS0=      1 NMatT0=    0 NMatD0=    1 NMtDS0=    0 NMtDT0=    0
 Petite list used in FoFCou.
 Keep R1 ints in memory in canonical form, NReq=42391337.
 Requested convergence on RMS density matrix=1.00D-08 within 128 cycles.
 Requested convergence on MAX density matrix=1.00D-06.
 Requested convergence on             energy=1.00D-06.
 No special actions if energy rises.
 Integral accuracy reduced to 1.0D-05 until final iterations.
 EnCoef did     2 forward-backward iterations
 EnCoef did   100 forward-backward iterations
 EnCoef did   100 forward-backward iterations
 EnCoef did    15 forward-backward iterations
 EnCoef did     4 forward-backward iterations
 EnCoef did     8 forward-backward iterations
 EnCoef did     4 forward-backward iterations
 Rare condition: small coef for last iteration:  0.000D+00
 EnCoef did   100 forward-backward iterations
 Rare condition: small coef for last iteration:  0.000D+00
 Initial convergence to 1.0D-05 achieved.  Increase integral accuracy.
 SCF Done:  E(RPBE1PBE) =  -269.585752569     A.U. after   31 cycles
            NFock= 31  Conv=0.50D-08     -V/T= 1.9961

 **********************************************************************

            Population analysis using the SCF density.

 **********************************************************************

 Orbital symmetries:
       Occupied  (A) (A) (A) (A) (A) (A) (A) (A) (A) (A) (A) (A)
                 (A) (A) (A) (A) (A) (A) (A) (A) (A) (A) (A) (A)
       Virtual   (A) (A) (A) (A) (A) (A) (A) (A) (A) (A) (A) (A)
                 (A) (A) (A) (A) (A) (A) (A) (A) (A) (A) (A) (A)
                 (A) (A) (A) (A) (A) (A) (A) (A) (A) (A) (A) (A)
                 (A) (A) (A) (A) (A) (A) (A) (A) (A) (A) (A) (A)
                 (A) (A) (A) (A) (A) (A) (A) (A) (A) (A) (A) (A)
                 (A) (A) (A) (A) (A) (A) (A) (A) (A) (A) (A) (A)
                 (A) (A) (A) (A) (A) (A) (A) (A) (A) (A) (A) (A)
                 (A) (A) (A) (A) (A) (A) (A) (A) (A) (A) (A) (A)
                 (A) (A) (A) (A) (A) (A) (A) (A) (A) (A) (A) (A)
                 (A) (A)
 The electronic state is 1-A.
 Alpha  occ. eigenvalues --  -19.46010 -10.32351 -10.29453 -10.28721 -10.27394
 Alpha  occ. eigenvalues --  -10.26752  -1.22156  -1.11677  -0.78050  -0.76921
 Alpha  occ. eigenvalues --   -0.76570  -0.69954  -0.69616  -0.63448  -0.50964
 Alpha  occ. eigenvalues --   -0.48380  -0.34705  -0.34292  -0.30503  -0.29816
 Alpha  occ. eigenvalues --   -0.29350  -0.26606  -0.21907  -0.20991
 Alpha virt. eigenvalues --   -0.16025  -0.11871  -0.11283  -0.10823  -0.05088
 Alpha virt. eigenvalues --   -0.04341  -0.03117   0.01177   0.01881   0.06225
 Alpha virt. eigenvalues --    0.09117   0.17258   0.23707   0.28816   0.31779
 Alpha virt. eigenvalues --    0.33769   0.37421   0.38026   0.40878   0.42926
 Alpha virt. eigenvalues --    0.44563   0.46045   0.47144   0.48492   0.49665
 Alpha virt. eigenvalues --    0.51719   0.53012   0.54813   0.56084   0.56471
 Alpha virt. eigenvalues --    0.58000   0.59554   0.59943   0.62004   0.63826
 Alpha virt. eigenvalues --    0.64618   0.67625   0.69344   0.72610   0.76199
 Alpha virt. eigenvalues --    0.81212   0.83674   0.88610   0.89065   0.90670
 Alpha virt. eigenvalues --    0.95975   0.97694   0.99749   1.01884   1.10885
 Alpha virt. eigenvalues --    1.14805   1.19869   1.25174   1.27925   1.31067
 Alpha virt. eigenvalues --    1.31348   1.34643   1.34842   1.37623   1.38770
 Alpha virt. eigenvalues --    1.42340   1.44422   1.46498   1.47230   1.52700
 Alpha virt. eigenvalues --    1.54116   1.55077   1.63594   1.64983   1.65240
 Alpha virt. eigenvalues --    1.70260   1.73110   1.74620   1.74853   1.76582
 Alpha virt. eigenvalues --    1.78925   1.80214   1.82699   1.84997   1.88117
 Alpha virt. eigenvalues --    1.88464   1.97100   2.01017   2.03566   2.04094
 Alpha virt. eigenvalues --    2.07657   2.13821   2.19744   2.20927   2.24010
 Alpha virt. eigenvalues --    2.25803   2.32862   2.36840   2.42878   2.50884
 Alpha virt. eigenvalues --    2.52829   2.54855   2.63627   2.78134   2.81270
 Alpha virt. eigenvalues --    2.85079   2.89631   3.00484   3.04774   3.09333
 Alpha virt. eigenvalues --    3.14573   3.25177   3.29002   3.49077   3.50421
          Condensed to atoms (all electrons):
               1          2          3          4          5          6
     1  C    6.646828  -0.032143  -0.511041  -0.702286  -0.645110  -0.002176
     2  C   -0.032143   6.285311  -0.330769   0.138625   0.069096   0.004916
     3  C   -0.511041  -0.330769   7.266656  -0.022518  -0.094504   0.000080
     4  C   -0.702286   0.138625  -0.022518   7.280199   0.001139  -0.007473
     5  C   -0.645110   0.069096  -0.094504   0.001139   7.215061  -0.002570
     6  O   -0.002176   0.004916   0.000080  -0.007473  -0.002570   7.706766
     7  H    0.008018  -0.024563  -0.001139  -0.007831   0.006311  -0.108904
     8  H    0.000008   0.002037   0.000102   0.000040   0.000798  -0.000248
     9  H   -0.004139  -0.012143   0.001290   0.002417   0.013267   0.000882
    10  H    0.000386  -0.000791   0.000040   0.000602   0.000377   0.187875
    11  H   -0.004192   0.002135   0.000259   0.025364  -0.001071   0.213711
    12  H   -0.005361  -0.010456   0.001205   0.028589   0.016129   0.177326
    13  H    0.035220  -0.015241   0.061163  -0.004967  -0.023846  -0.006665
    14  H   -0.000382  -0.002136  -0.000903  -0.000222  -0.000155  -0.056300
    15  H   -0.000329   0.001480  -0.000051   0.000148  -0.001523   0.003374
    16  H    0.000402   0.001593   0.000086  -0.000759   0.002930  -0.015983
               7          8          9         10         11         12
     1  C    0.008018   0.000008  -0.004139   0.000386  -0.004192  -0.005361
     2  C   -0.024563   0.002037  -0.012143  -0.000791   0.002135  -0.010456
     3  C   -0.001139   0.000102   0.001290   0.000040   0.000259   0.001205
     4  C   -0.007831   0.000040   0.002417   0.000602   0.025364   0.028589
     5  C    0.006311   0.000798   0.013267   0.000377  -0.001071   0.016129
     6  O   -0.108904  -0.000248   0.000882   0.187875   0.213711   0.177326
     7  H    0.758683  -0.007215  -0.027424   0.019824   0.013458   0.017890
     8  H   -0.007215   0.592485   0.037487  -0.001387  -0.000286  -0.000649
     9  H   -0.027424   0.037487   1.064546  -0.000576  -0.000372  -0.001429
    10  H    0.019824  -0.001387  -0.000576   0.449514   0.020203   0.031329
    11  H    0.013458  -0.000286  -0.000372   0.020203   0.401847   0.017426
    12  H    0.017890  -0.000649  -0.001429   0.031329   0.017426   0.418321
    13  H   -0.060365   0.000268   0.034750   0.003834   0.004284   0.019741
    14  H    0.379087  -0.028607  -0.001026  -0.003911  -0.001367  -0.003259
    15  H   -0.039768   0.208720   0.090075  -0.006036  -0.001087  -0.004598
    16  H    0.030693   0.188364  -0.125155   0.024197   0.004042   0.028369
              13         14         15         16
     1  C    0.035220  -0.000382  -0.000329   0.000402
     2  C   -0.015241  -0.002136   0.001480   0.001593
     3  C    0.061163  -0.000903  -0.000051   0.000086
     4  C   -0.004967  -0.000222   0.000148  -0.000759
     5  C   -0.023846  -0.000155  -0.001523   0.002930
     6  O   -0.006665  -0.056300   0.003374  -0.015983
     7  H   -0.060365   0.379087  -0.039768   0.030693
     8  H    0.000268  -0.028607   0.208720   0.188364
     9  H    0.034750  -0.001026   0.090075  -0.125155
    10  H    0.003834  -0.003911  -0.006036   0.024197
    11  H    0.004284  -0.001367  -0.001087   0.004042
    12  H    0.019741  -0.003259  -0.004598   0.028369
    13  H    1.075936  -0.065705  -0.005982  -0.007755
    14  H   -0.065705   0.883620   0.024068  -0.028643
    15  H   -0.005982   0.024068   0.866166  -0.187690
    16  H   -0.007755  -0.028643  -0.187690   1.215374
 Mulliken charges:
               1
     1  C    1.216296
     2  C   -0.076949
     3  C   -0.369954
     4  C   -0.731065
     5  C   -0.556331
     6  O   -0.094610
     7  H    0.043247
     8  H    0.008084
     9  H   -0.072449
    10  H    0.274520
    11  H    0.305647
    12  H    0.269427
    13  H   -0.044669
    14  H   -0.094161
    15  H    0.053030
    16  H   -0.130063
 Sum of Mulliken charges =   0.00000
 Mulliken charges with hydrogens summed into heavy atoms:
               1
     1  C    1.216296
     2  C   -0.121618
     3  C   -0.369954
     4  C   -0.731065
     5  C   -0.628780
     6  O    0.635120
 Electronic spatial extent (au):  <R**2>=            843.5747
 Charge=              0.0000 electrons
 Dipole moment (field-independent basis, Debye):
    X=              9.6138    Y=             -5.3176    Z=              0.5684  Tot=             11.0012
 Quadrupole moment (field-independent basis, Debye-Ang):
   XX=            -36.8328   YY=            -47.5035   ZZ=            -49.4598
   XY=            -14.0212   XZ=             -1.0262   YZ=              1.0070
 Traceless Quadrupole moment (field-independent basis, Debye-Ang):
   XX=              7.7659   YY=             -2.9048   ZZ=             -4.8611
   XY=            -14.0212   XZ=             -1.0262   YZ=              1.0070
 Octapole moment (field-independent basis, Debye-Ang**2):
  XXX=             91.6676  YYY=            -36.2496  ZZZ=             -0.7780  XYY=             20.2761
  XXY=            -36.8323  XXZ=             -3.3596  XZZ=              6.0363  YZZ=            -15.4273
  YYZ=              8.5455  XYZ=              2.2202
 Hexadecapole moment (field-independent basis, Debye-Ang**3):
 XXXX=           -776.4352 YYYY=           -368.6864 ZZZZ=           -206.7356 XXXY=           -131.0191
 XXXZ=              5.3888 YYYX=            -76.8616 YYYZ=              5.1982 ZZZX=             -1.9100
 ZZZY=              8.9144 XXYY=           -162.7269 XXZZ=           -185.9079 YYZZ=            -91.2030
 XXYZ=             11.8614 YYXZ=             -0.6396 ZZXY=            -20.9076
 N-N= 2.364164175803D+02 E-N=-1.099980553698D+03  KE= 2.706409537053D+02
   1 Symmetry operations used in ECPInt.
 ECPInt:  NShTT=    2211 NPrTT=    7611 LenC2=    2199 LenP2D=    6268.
 LDataN:  DoStor=T MaxTD1= 5 Len=  102
 Calling FoFJK, ICntrl=      2127 FMM=F ISym2X=0 I1Cent= 0 IOpClX= 0 NMat=1 NMatS=1 NMatT=0.
 ***** Axes restored to original set *****
 -------------------------------------------------------------------
 Center     Atomic                   Forces (Hartrees/Bohr)
 Number     Number              X              Y              Z
 -------------------------------------------------------------------
      1        6           0.068781171   -0.117884467    0.566736472
      2        6           0.048787411   -0.095565644    0.046060806
      3        6          -0.295160741    0.471264795   -0.009881093
      4        6          -0.274943118   -0.353948164   -0.316716075
      5        6           0.468265440    0.073927731   -0.285032628
      6        8          -0.065784608   -0.068191629   -0.099430615
      7        1          -0.002110708   -0.026651048    0.110992249
      8        1           0.049948541   -0.022288653   -0.028765845
      9        1          -0.001111718    0.000137627    0.020100083
     10        1          -0.012707359    0.062649988    0.007803708
     11        1           0.059608911    0.009890105   -0.014286923
     12        1          -0.006600920   -0.013640722    0.050025458
     13        1          -0.012319186    0.024904630    0.000676411
     14        1           0.022730665    0.031788754   -0.052781522
     15        1          -0.015072170    0.032556780   -0.014144677
     16        1          -0.032311612   -0.008950081    0.018644192
 -------------------------------------------------------------------
 Cartesian Forces:  Max     0.566736472 RMS     0.166134091

 GradGradGradGradGradGradGradGradGradGradGradGradGradGradGradGradGradGrad
 Berny optimization.
 Search for a local minimum.
 Step number   1 out of a maximum of    3
 All quantities printed in internal units (Hartrees-Bohrs-Radians)
 Second derivative matrix not updated -- first step.
 ITU=  0
     Eigenvalues ---    0.00000   0.00000   0.00000   0.00000   0.00098
     Eigenvalues ---    0.00560   0.03353   0.04964   0.10183   0.11054
     Eigenvalues ---    0.11303   0.19232   0.25467   0.34634   0.42489
     Eigenvalues ---    0.44246   0.57491   0.61084   0.65838   0.68502
     Eigenvalues ---    0.72115   0.73883   0.89819   0.93114   0.98281
     Eigenvalues ---    0.99233   1.00000   1.00000   1.00000   1.00000
     Eigenvalues ---    1.00000   1.00000   1.00000   1.00000   1.00000
     Eigenvalues ---    1.00000   1.00000   1.00000   1.24946   3.08009
     Eigenvalues ---    3.96340   4.06670
 RFO step:  Lambda=-4.75471687D-01 EMin=-3.33066907D-16
 Linear search not attempted -- first point.
 Maximum step size (   0.010) exceeded in Quadratic search.
    -- Step size scaled by   0.021
 TrRot= -0.000084 -0.000126 -0.000130 -0.000008  0.000000 -0.000008
 Variable       Old X    -DE/DX   Delta X   Delta X   Delta X     New X
                                 (Linear)    (Quad)   (Total)
    X1       -3.55643   0.06878   0.00000  -0.00002  -0.00006  -3.55649
    Y1        2.67805  -0.11788   0.00000   0.00058   0.00051   2.67856
    Z1       -0.81193   0.56674   0.00000   0.00285   0.00272  -0.80921
    X2       -3.07363   0.04879   0.00000   0.00120   0.00114  -3.07248
    Y2        1.65977  -0.09557   0.00000  -0.00173  -0.00180   1.65797
    Z2        1.57854   0.04606   0.00000   0.00234   0.00221   1.58074
    X3       -4.63585  -0.29516   0.00000  -0.00317  -0.00318  -4.63903
    Y3        4.49145   0.47126   0.00000   0.00461   0.00456   4.49601
    Z3       -0.66022  -0.00988   0.00000  -0.00137  -0.00150  -0.66173
    X4       -4.72932  -0.27494   0.00000  -0.00145  -0.00151  -4.73083
    Y4        1.43539  -0.35395   0.00000  -0.00322  -0.00327   1.43212
    Z4       -2.08175  -0.31672   0.00000  -0.00143  -0.00156  -2.08332
    X5       -1.80102   0.46827   0.00000   0.00369   0.00365  -1.79737
    Y5        3.13069   0.07393   0.00000   0.00027   0.00017   3.13086
    Z5       -1.91413  -0.28503   0.00000  -0.00169  -0.00182  -1.91595
    X6       -1.76658  -0.06578   0.00000  -0.00105  -0.00120  -1.76778
    Y6       -3.80161  -0.06819   0.00000  -0.00136  -0.00146  -3.80307
    Z6       -1.02544  -0.09943   0.00000  -0.00170  -0.00183  -1.02726
    X7       -0.26265  -0.00211   0.00000   0.00004  -0.00009  -0.26273
    Y7       -2.35470  -0.02665   0.00000  -0.00030  -0.00042  -2.35512
    Z7        0.96780   0.11099   0.00000   0.00171   0.00158   0.96939
    X8        2.37094   0.04995   0.00000   0.00078   0.00067   2.37161
    Y8       -1.87373  -0.02229   0.00000  -0.00021  -0.00038  -1.87411
    Z8        0.41275  -0.02877   0.00000  -0.00032  -0.00045   0.41230
    X9        3.36056  -0.00111   0.00000   0.00000  -0.00005   3.36051
    Y9        1.78811   0.00014   0.00000   0.00011  -0.00007   1.78804
    Z9       -0.30762   0.02010   0.00000   0.00032   0.00019  -0.30743
   X10       -1.19187  -0.01271   0.00000   0.00004  -0.00014  -1.19202
   Y10       -5.81903   0.06265   0.00000   0.00130   0.00119  -5.81783
   Z10       -1.27725   0.00780   0.00000   0.00048   0.00034  -1.27690
   X11       -3.82241   0.05961   0.00000   0.00148   0.00133  -3.82108
   Y11       -3.81883   0.00989   0.00000   0.00031   0.00025  -3.81859
   Z11       -0.58979  -0.01429   0.00000  -0.00009  -0.00022  -0.59000
   X12       -1.58160  -0.00660   0.00000  -0.00003  -0.00016  -1.58177
   Y12       -2.90345  -0.01364   0.00000  -0.00021  -0.00031  -2.90376
   Z12       -2.91727   0.05003   0.00000   0.00124   0.00111  -2.91616
   X13       -1.80382  -0.01232   0.00000   0.00021   0.00012  -1.80370
   Y13       -0.15369   0.02490   0.00000   0.00043   0.00034  -0.15335
   Z13        1.30265   0.00068   0.00000   0.00012  -0.00001   1.30264
   X14       -0.53311   0.02273   0.00000   0.00041   0.00027  -0.53284
   Y14       -3.10666   0.03179   0.00000   0.00058   0.00046  -3.10619
   Z14        2.90975  -0.05278   0.00000  -0.00065  -0.00078   2.90897
   X15        3.73826  -0.01507   0.00000  -0.00015  -0.00027   3.73798
   Y15       -2.18076   0.03256   0.00000   0.00063   0.00044  -2.18032
   Z15        1.95733  -0.01414   0.00000  -0.00010  -0.00023   1.95710
   X16        3.10858  -0.03231   0.00000  -0.00040  -0.00053   3.10806
   Y16       -2.63915  -0.00895   0.00000  -0.00004  -0.00022  -2.63937
   Z16       -1.38712   0.01864   0.00000   0.00038   0.00025  -1.38687
         Item               Value     Threshold  Converged?
 Maximum Force            0.566736     0.000450     NO 
 RMS     Force            0.166134     0.000300     NO 
 Maximum Displacement     0.004564     0.001800     NO 
 RMS     Displacement     0.001438     0.001200     NO 
 Predicted change in Energy=-1.007933D-02
 GradGradGradGradGradGradGradGradGradGradGradGradGradGradGradGradGradGrad

                          Input orientation:                          
 ---------------------------------------------------------------------
 Center     Atomic      Atomic             Coordinates (Angstroms)
 Number     Number       Type             X           Y           Z
 ---------------------------------------------------------------------
      1          6           0       -1.882016    1.417431   -0.428214
      2          6           0       -1.625887    0.877359    0.836493
      3          6           0       -2.454867    2.379188   -0.350170
      4          6           0       -2.503450    0.757846   -1.102444
      5          6           0       -0.951126    1.656782   -1.013877
      6          8           0       -0.935471   -2.012496   -0.543604
      7          1           0       -0.139033   -1.246278    0.512977
      8          1           0        1.255004   -0.991736    0.218179
      9          1           0        1.778303    0.946189   -0.162688
     10          1           0       -0.630788   -3.078664   -0.675708
     11          1           0       -2.022030   -2.020709   -0.312216
     12          1           0       -0.837034   -1.536602   -1.543163
     13          1           0       -0.954475   -0.081150    0.689326
     14          1           0       -0.281969   -1.643727    1.539362
     15          1           0        1.978055   -1.153776    1.035652
     16          1           0        1.644713   -1.396694   -0.733900
 ---------------------------------------------------------------------
                    Distance matrix (angstroms):
                    1          2          3          4          5
     1  C    0.000000
     2  C    1.398843   0.000000
     3  C    1.122152   2.085873   0.000000
     4  C    1.129522   2.131637   1.788023   0.000000
     5  C    1.125543   2.118177   1.795443   1.796007   0.000000
     6  O    3.560009   3.276066   4.651115   3.231974   3.699325
     7  H    3.319515   2.612515   4.387723   3.495221   3.379133
     8  H    4.007842   3.489321   5.044729   4.350983   3.660549
     9  H    3.700069   3.548466   4.473071   4.387713   2.946056
    10  H    4.673510   4.350528   5.763800   4.290429   4.758301
    11  H    3.442944   3.142492   4.421298   2.928582   3.893983
    12  H    3.325870   3.480267   4.401594   2.869785   3.238960
    13  H    2.086857   1.179488   3.063493   2.512703   2.433377
    14  H    3.975197   2.942111   4.947288   4.204958   4.226129
    15  H    4.863555   4.141688   5.835507   5.320681   4.547517
    16  H    4.522230   4.281855   5.586689   4.688830   4.017522
                    6          7          8          9         10
     6  O    0.000000
     7  H    1.528977   0.000000
     8  H    2.533860   1.447423   0.000000
     9  H    4.032801   2.989918   2.043148   0.000000
    10  H    1.116690   2.238847   2.951358   4.718723   0.000000
    11  H    1.110953   2.196899   3.475493   4.823626   1.785203
    12  H    1.111433   2.190709   2.788517   3.861341   1.781284
    13  H    2.291414   1.433028   2.435763   3.041288   3.309559
    14  H    2.214002   1.109893   2.129061   3.721472   2.662190
    15  H    3.423461   2.182615   1.103324   2.426061   3.666062
    16  H    2.659469   2.181531   1.105586   2.415209   2.830250
                   11         12         13         14         15
    11  H    0.000000
    12  H    1.775895   0.000000
    13  H    2.429948   2.667609   0.000000
    14  H    2.568710   3.133933   1.901702   0.000000
    15  H    4.309177   3.836870   3.141688   2.366745   0.000000
    16  H    3.743289   2.614106   3.242223   2.990125   1.816987
                   16
    16  H    0.000000
 Stoichiometry    C5H10O
 Framework group  C1[X(C5H10O)]
 Deg. of freedom    42
 Full point group                 C1      NOp   1
 Largest Abelian subgroup         C1      NOp   1
 Largest concise Abelian subgroup C1      NOp   1
                         Standard orientation:                         
 ---------------------------------------------------------------------
 Center     Atomic      Atomic             Coordinates (Angstroms)
 Number     Number       Type             X           Y           Z
 ---------------------------------------------------------------------
      1          6           0       -1.268295   -0.015842   -0.001534
      2          6           0       -0.587092    0.388504    1.151388
      3          6           0       -2.377463   -0.033322    0.167773
      4          6           0       -1.008137   -1.055087   -0.359453
      5          6           0       -1.099491    0.659592   -0.885921
      6          8           0        2.202385   -0.803888   -0.085392
      7          1           0        1.952266    0.558716    0.561539
      8          1           0        2.336607    1.723491   -0.206976
      9          1           0        0.824248    2.890367   -0.931977
     10          1           0        3.279478   -1.073204   -0.205129
     11          1           0        1.733788   -1.626316    0.496199
     12          1           0        1.756463   -0.852885   -1.102267
     13          1           0        0.559120    0.465198    0.883978
     14          1           0        2.310101    0.615142    1.610649
     15          1           0        2.862734    2.529140    0.332880
     16          1           0        2.808985    1.538386   -1.189276
 ---------------------------------------------------------------------
 Rotational constants (GHZ):      5.6252046      1.8334669      1.7084398
 Standard basis: def2SVP (5D, 7F)
 There are   140 symmetry adapted cartesian basis functions of A   symmetry.
 There are   134 symmetry adapted basis functions of A   symmetry.
   134 basis functions,   220 primitive gaussians,   140 cartesian basis functions
    24 alpha electrons       24 beta electrons
       nuclear repulsion energy       236.1838550975 Hartrees.
 NAtoms=   16 NActive=   16 NUniq=   16 SFac= 1.00D+00 NAtFMM=   60 NAOKFM=F Big=F
 Integral buffers will be    131072 words long.
 Raffenetti 2 integral format.
 Two-electron integral symmetry is turned on.
 One-electron integrals computed using PRISM.
   1 Symmetry operations used in ECPInt.
 ECPInt:  NShTT=    2211 NPrTT=    7611 LenC2=    2199 LenP2D=    6266.
 LDataN:  DoStor=T MaxTD1= 4 Len=   56
 NBasis=   134 RedAO= T EigKep=  3.85D-04  NBF=   134
 NBsUse=   134 1.00D-06 EigRej= -1.00D+00 NBFU=   134
 Initial guess from the checkpoint file:  "/home/aleph/fd/shug5449/autodE/tests/data/Gau-226886.chk"
 B after Tr=     0.000000    0.000000    0.000000
         Rot=    1.000000    0.000071    0.000016   -0.000053 Ang=   0.01 deg.
 Keep R1 ints in memory in canonical form, NReq=42391337.
 Requested convergence on RMS density matrix=1.00D-08 within 128 cycles.
 Requested convergence on MAX density matrix=1.00D-06.
 Requested convergence on             energy=1.00D-06.
 No special actions if energy rises.
 SCF Done:  E(RPBE1PBE) =  -269.595841884     A.U. after   15 cycles
            NFock= 15  Conv=0.78D-08     -V/T= 1.9963
   1 Symmetry operations used in ECPInt.
 ECPInt:  NShTT=    2211 NPrTT=    7611 LenC2=    2199 LenP2D=    6266.
 LDataN:  DoStor=T MaxTD1= 5 Len=  102
 Calling FoFJK, ICntrl=      2127 FMM=F ISym2X=0 I1Cent= 0 IOpClX= 0 NMat=1 NMatS=1 NMatT=0.
 ***** Axes restored to original set *****
 -------------------------------------------------------------------
 Center     Atomic                   Forces (Hartrees/Bohr)
 Number     Number              X              Y              Z
 -------------------------------------------------------------------
      1        6           0.066584839   -0.113708141    0.558881079
      2        6           0.048643707   -0.095087745    0.045183802
      3        6          -0.290465994    0.463265558   -0.011630407
      4        6          -0.269136901   -0.348120597   -0.311080483
      5        6           0.460017907    0.071647680   -0.280341610
      6        8          -0.065414847   -0.067909641   -0.098856276
      7        1          -0.002091700   -0.026752622    0.111045046
      8        1           0.049854768   -0.022296949   -0.028855515
      9        1          -0.001145915    0.000155711    0.020127613
     10        1          -0.012756300    0.062464569    0.007692930
     11        1           0.059334044    0.009854016   -0.014348594
     12        1          -0.006661939   -0.013581565    0.049763427
     13        1          -0.012213458    0.024645039    0.000833153
     14        1           0.022694440    0.031772197   -0.052947194
     15        1          -0.014960969    0.032612338   -0.014125779
     16        1          -0.032281682   -0.008959847    0.018658809
 -------------------------------------------------------------------
 Cartesian Forces:  Max     0.558881079 RMS     0.163468119

 GradGradGradGradGradGradGradGradGradGradGradGradGradGradGradGradGradGrad
 Berny optimization.
 Search for a local minimum.
 Step number   2 out of a maximum of    3
 All quantities printed in internal units (Hartrees-Bohrs-Radians)
 Update second derivatives using D2CorN and points    1    2
 DE= -1.01D-02 DEPred=-1.01D-02 R= 1.00D+00
 TightC=F SS=  1.41D+00  RLast= 9.97D-03 DXNew= 1.6818D-02 2.9897D-02
 Trust test= 1.00D+00 RLast= 9.97D-03 DXMaxT set to 5.00D-02
 ITU=  1  0
     Eigenvalues ---   -0.00096   0.00000   0.00000   0.00014   0.00090
     Eigenvalues ---    0.00308   0.03276   0.04693   0.10253   0.11053
     Eigenvalues ---    0.11282   0.15275   0.25319   0.33762   0.39594
     Eigenvalues ---    0.44300   0.57291   0.60132   0.64661   0.66252
     Eigenvalues ---    0.71974   0.73421   0.89814   0.92844   0.95693
     Eigenvalues ---    0.98342   0.99242   1.00000   1.00000   1.00000
     Eigenvalues ---    1.00000   1.00000   1.00000   1.00000   1.00000
     Eigenvalues ---    1.00000   1.00000   1.00008   1.32878   2.98269
     Eigenvalues ---    3.96323   4.06562
 RFO step:  Lambda=-2.49654480D-01 EMin=-9.59261432D-04
 Quartic linear search produced a step of  2.00000.
 Maximum step size (   0.050) exceeded in Quadratic search.
    -- Step size scaled by   0.042
 TrRot=  0.000338  0.000300 -0.000051  0.201649  0.000309 -0.201823
 Variable       Old X    -DE/DX   Delta X   Delta X   Delta X     New X
                                 (Linear)    (Quad)   (Total)
    X1       -3.55649   0.06658  -0.00012   0.00119   0.00162  -3.55487
    Y1        2.67856  -0.11371   0.00102  -0.00704  -0.00516   2.67340
    Z1       -0.80921   0.55888   0.00544  -0.00138   0.00492  -0.80429
    X2       -3.07248   0.04864   0.00229  -0.00577  -0.00239  -3.07487
    Y2        1.65797  -0.09509  -0.00361  -0.00274  -0.00541   1.65256
    Z2        1.58074   0.04518   0.00441  -0.01311  -0.00792   1.57283
    X3       -4.63903  -0.29047  -0.00635   0.01591   0.01048  -4.62854
    Y3        4.49601   0.46327   0.00913   0.00024   0.01043   4.50644
    Z3       -0.66173  -0.01163  -0.00301   0.02066   0.01873  -0.64300
    X4       -4.73083  -0.26914  -0.00302  -0.01752  -0.02058  -4.75142
    Y4        1.43212  -0.34812  -0.00653   0.01268   0.00714   1.43926
    Z4       -2.08332  -0.31108  -0.00313  -0.00719  -0.00903  -2.09234
    X5       -1.79737   0.46002   0.00731  -0.00144   0.00617  -1.79120
    Y5        3.13086   0.07165   0.00035  -0.00752  -0.00668   3.12418
    Z5       -1.91595  -0.28034  -0.00363  -0.00948  -0.01282  -1.92877
    X6       -1.76778  -0.06541  -0.00240   0.00709   0.00406  -1.76372
    Y6       -3.80307  -0.06791  -0.00292   0.00751   0.00513  -3.79794
    Z6       -1.02726  -0.09886  -0.00366   0.01101   0.00807  -1.01919
    X7       -0.26273  -0.00209  -0.00017   0.00030   0.00035  -0.26239
    Y7       -2.35512  -0.02675  -0.00084   0.00108   0.00065  -2.35448
    Z7        0.96939   0.11105   0.00316  -0.00293   0.00041   0.96980
    X8        2.37161   0.04985   0.00134  -0.00111   0.00037   2.37198
    Y8       -1.87411  -0.02230  -0.00076   0.00098   0.00014  -1.87397
    Z8        0.41230  -0.02886  -0.00090   0.00107  -0.00048   0.41182
    X9        3.36051  -0.00115  -0.00011   0.00019   0.00063   3.36114
    Y9        1.78804   0.00016  -0.00014   0.00038  -0.00006   1.78797
    Z9       -0.30743   0.02013   0.00038  -0.00030  -0.00110  -0.30853
   X10       -1.19202  -0.01276  -0.00028   0.00604   0.00470  -1.18732
   Y10       -5.81783   0.06246   0.00239  -0.00078   0.00204  -5.81579
   Z10       -1.27690   0.00769   0.00069   0.00446   0.00582  -1.27108
   X11       -3.82108   0.05933   0.00266  -0.00342  -0.00126  -3.82234
   Y11       -3.81859   0.00985   0.00050  -0.00217  -0.00075  -3.81933
   Z11       -0.59000  -0.01435  -0.00044  -0.00254  -0.00164  -0.59164
   X12       -1.58177  -0.00666  -0.00033   0.01082   0.00945  -1.57232
   Y12       -2.90376  -0.01358  -0.00062   0.00210   0.00187  -2.90189
   Z12       -2.91616   0.04976   0.00222   0.00066   0.00349  -2.91267
   X13       -1.80370  -0.01221   0.00025  -0.01558  -0.01463  -1.81833
   Y13       -0.15335   0.02465   0.00068  -0.01149  -0.01012  -0.16347
   Z13        1.30264   0.00083  -0.00003  -0.00786  -0.00738   1.29526
   X14       -0.53284   0.02269   0.00054  -0.00033   0.00089  -0.53195
   Y14       -3.10619   0.03177   0.00093  -0.00066   0.00084  -3.10535
   Z14        2.90897  -0.05295  -0.00155   0.00179   0.00054   2.90951
   X15        3.73798  -0.01496  -0.00055   0.00061   0.00061   3.73859
   Y15       -2.18032   0.03261   0.00088  -0.00059   0.00006  -2.18026
   Z15        1.95710  -0.01413  -0.00047   0.00058  -0.00094   1.95616
   X16        3.10806  -0.03228  -0.00105   0.00113  -0.00046   3.10759
   Y16       -2.63937  -0.00896  -0.00044   0.00067  -0.00010  -2.63947
   Z16       -1.38687   0.01866   0.00050  -0.00034  -0.00067  -1.38754
         Item               Value     Threshold  Converged?
 Maximum Force            0.558881     0.000450     NO 
 RMS     Force            0.163468     0.000300     NO 
 Maximum Displacement     0.020584     0.001800     NO 
 RMS     Displacement     0.006737     0.001200     NO 
 Predicted change in Energy=-1.510275D-02
 GradGradGradGradGradGradGradGradGradGradGradGradGradGradGradGradGradGrad

                          Input orientation:                          
 ---------------------------------------------------------------------
 Center     Atomic      Atomic             Coordinates (Angstroms)
 Number     Number       Type             X           Y           Z
 ---------------------------------------------------------------------
      1          6           0       -1.881157    1.414700   -0.425612
      2          6           0       -1.627150    0.874496    0.832303
      3          6           0       -2.449320    2.384706   -0.340261
      4          6           0       -2.514342    0.761622   -1.107221
      5          6           0       -0.947863    1.653245   -1.020661
      6          8           0       -0.933321   -2.009783   -0.539332
      7          1           0       -0.138849   -1.245935    0.513196
      8          1           0        1.255199   -0.991661    0.217923
      9          1           0        1.778637    0.946155   -0.163269
     10          1           0       -0.628301   -3.077585   -0.672628
     11          1           0       -2.022698   -2.021104   -0.313085
     12          1           0       -0.832034   -1.535614   -1.541318
     13          1           0       -0.962220   -0.086506    0.685423
     14          1           0       -0.281498   -1.643281    1.539646
     15          1           0        1.978378   -1.153746    1.035156
     16          1           0        1.644468   -1.396747   -0.734256
 ---------------------------------------------------------------------
                    Distance matrix (angstroms):
                    1          2          3          4          5
     1  C    0.000000
     2  C    1.392368   0.000000
     3  C    1.127388   2.081251   0.000000
     4  C    1.136673   2.135791   1.796345   0.000000
     5  C    1.132265   2.121640   1.803427   1.804533   0.000000
     6  O    3.555054   3.268309   4.652893   3.240804   3.694545
     7  H    3.316018   2.610191   4.387279   3.506993   3.378234
     8  H    4.005177   3.488258   5.043301   4.363422   3.658293
     9  H    3.698980   3.549041   4.469494   4.399406   2.944300
    10  H    4.670256   4.345280   5.767426   4.299481   4.754366
    11  H    3.440559   3.138928   4.426501   2.935291   3.893170
    12  H    3.324126   3.474898   4.407614   2.880260   3.233160
    13  H    2.081457   1.177808   3.061108   2.518328   2.436732
    14  H    3.971447   2.941142   4.945521   4.216047   4.226854
    15  H    4.860737   4.141829   5.832403   5.333193   4.546258
    16  H    4.519903   4.279736   5.586924   4.700358   4.013061
                    6          7          8          9         10
     6  O    0.000000
     7  H    1.523964   0.000000
     8  H    2.529749   1.447484   0.000000
     9  H    4.029108   2.989919   2.043142   0.000000
    10  H    1.118484   2.236221   2.948174   4.716279   0.000000
    11  H    1.112680   2.198298   3.476540   4.824647   1.785991
    12  H    1.113136   2.187567   2.783408   3.856657   1.781518
    13  H    2.280319   1.432437   2.440248   3.049420   3.301872
    14  H    2.209377   1.109879   2.129084   3.721459   2.659258
    15  H    3.419036   2.182565   1.103235   2.426046   3.662302
    16  H    2.656841   2.181536   1.105563   2.415205   2.827454
                   11         12         13         14         15
    11  H    0.000000
    12  H    1.778184   0.000000
    13  H    2.421632   2.659932   0.000000
    14  H    2.570435   3.131616   1.901743   0.000000
    15  H    4.310298   3.831770   3.147766   2.366684   0.000000
    16  H    3.743703   2.608390   3.244540   2.990110   1.816966
                   16
    16  H    0.000000
 Stoichiometry    C5H10O
 Framework group  C1[X(C5H10O)]
 Deg. of freedom    42
 Full point group                 C1      NOp   1
 Largest Abelian subgroup         C1      NOp   1
 Largest concise Abelian subgroup C1      NOp   1
                         Standard orientation:                         
 ---------------------------------------------------------------------
 Center     Atomic      Atomic             Coordinates (Angstroms)
 Number     Number       Type             X           Y           Z
 ---------------------------------------------------------------------
      1          6           0       -1.264994   -0.014599    0.000730
      2          6           0       -0.584628    0.381397    1.149198
      3          6           0       -2.378880   -0.021511    0.174554
      4          6           0       -1.017447   -1.062288   -0.364091
      5          6           0       -1.094451    0.661859   -0.891091
      6          8           0        2.200795   -0.801570   -0.085246
      7          1           0        1.952948    0.555186    0.563022
      8          1           0        2.338538    1.721712   -0.202321
      9          1           0        0.827359    2.892211   -0.923914
     10          1           0        3.279151   -1.072382   -0.206974
     11          1           0        1.732609   -1.630830    0.490242
     12          1           0        1.757412   -0.846225   -1.105289
     13          1           0        0.560934    0.451465    0.884605
     14          1           0        2.310959    0.608319    1.612230
     15          1           0        2.865543    2.525187    0.339732
     16          1           0        2.810574    1.538762   -1.185164
 ---------------------------------------------------------------------
 Rotational constants (GHZ):      5.6153232      1.8329596      1.7083701
 Standard basis: def2SVP (5D, 7F)
 There are   140 symmetry adapted cartesian basis functions of A   symmetry.
 There are   134 symmetry adapted basis functions of A   symmetry.
   134 basis functions,   220 primitive gaussians,   140 cartesian basis functions
    24 alpha electrons       24 beta electrons
       nuclear repulsion energy       235.8287430442 Hartrees.
 NAtoms=   16 NActive=   16 NUniq=   16 SFac= 1.00D+00 NAtFMM=   60 NAOKFM=F Big=F
 Integral buffers will be    131072 words long.
 Raffenetti 2 integral format.
 Two-electron integral symmetry is turned on.
 One-electron integrals computed using PRISM.
   1 Symmetry operations used in ECPInt.
 ECPInt:  NShTT=    2211 NPrTT=    7611 LenC2=    2199 LenP2D=    6267.
 LDataN:  DoStor=T MaxTD1= 4 Len=   56
 NBasis=   134 RedAO= T EigKep=  3.95D-04  NBF=   134
 NBsUse=   134 1.00D-06 EigRej= -1.00D+00 NBFU=   134
 Initial guess from the checkpoint file:  "/home/aleph/fd/shug5449/autodE/tests/data/Gau-226886.chk"
 B after Tr=     0.000000    0.000000    0.000000
         Rot=    0.999999   -0.001173   -0.000045    0.000641 Ang=  -0.15 deg.
 ExpMin= 1.22D-01 ExpMax= 2.27D+03 ExpMxC= 3.41D+02 IAcc=1 IRadAn=         1 AccDes= 0.00D+00
 Harris functional with IExCor= 1009 and IRadAn=       1 diagonalized for initial guess.
 HarFok:  IExCor= 1009 AccDes= 0.00D+00 IRadAn=         1 IDoV= 1 UseB2=F ITyADJ=14
 ICtDFT=  3500011 ScaDFX=  1.000000  1.000000  1.000000  1.000000
 FoFCou: FMM=F IPFlag=           0 FMFlag=      100000 FMFlg1=           0
         NFxFlg=           0 DoJE=T BraDBF=F KetDBF=T FulRan=T
         wScrn=  0.000000 ICntrl=     500 IOpCl=  0 I1Cent=   200000004 NGrid=           0
         NMat0=    1 NMatS0=      1 NMatT0=    0 NMatD0=    1 NMtDS0=    0 NMtDT0=    0
 Petite list used in FoFCou.
 Keep R1 ints in memory in canonical form, NReq=42391337.
 Requested convergence on RMS density matrix=1.00D-08 within 128 cycles.
 Requested convergence on MAX density matrix=1.00D-06.
 Requested convergence on             energy=1.00D-06.
 No special actions if energy rises.
 Integral accuracy reduced to 1.0D-05 until final iterations.
 EnCoef did     4 forward-backward iterations
 Initial convergence to 1.0D-05 achieved.  Increase integral accuracy.
 SCF Done:  E(RPBE1PBE) =  -269.611166917     A.U. after   20 cycles
            NFock= 20  Conv=0.68D-08     -V/T= 1.9966
   1 Symmetry operations used in ECPInt.
 ECPInt:  NShTT=    2211 NPrTT=    7611 LenC2=    2199 LenP2D=    6267.
 LDataN:  DoStor=T MaxTD1= 5 Len=  102
 Calling FoFJK, ICntrl=      2127 FMM=F ISym2X=0 I1Cent= 0 IOpClX= 0 NMat=1 NMatS=1 NMatT=0.
 ***** Axes restored to original set *****
 -------------------------------------------------------------------
 Center     Atomic                   Forces (Hartrees/Bohr)
 Number     Number              X              Y              Z
 -------------------------------------------------------------------
      1        6           0.065535040   -0.110501620    0.530831152
      2        6           0.048710632   -0.097338062    0.048863989
      3        6          -0.278251582    0.450069408   -0.009142862
      4        6          -0.261274085   -0.329938074   -0.298682601
      5        6           0.440382875    0.066452762   -0.271248422
      6        8          -0.065807357   -0.068721616   -0.100404491
      7        1          -0.001890050   -0.026644365    0.111327637
      8        1           0.049902944   -0.022230686   -0.028625283
      9        1          -0.001261496    0.000167562    0.019978182
     10        1          -0.012658043    0.062532730    0.007852972
     11        1           0.059581227    0.010081796   -0.013990799
     12        1          -0.006726937   -0.013566588    0.050009120
     13        1          -0.011721445    0.024208596    0.001401198
     14        1           0.022850663    0.031878662   -0.052558554
     15        1          -0.015157490    0.032475539   -0.014217405
     16        1          -0.032214896   -0.008926044    0.018606167
 -------------------------------------------------------------------
 Cartesian Forces:  Max     0.530831152 RMS     0.157188059

 GradGradGradGradGradGradGradGradGradGradGradGradGradGradGradGradGradGrad
 Berny optimization.
 Search for a local minimum.
 Step number   3 out of a maximum of    3
 All quantities printed in internal units (Hartrees-Bohrs-Radians)
 Update second derivatives using D2CorN and points    1    2    3
 DE= -1.53D-02 DEPred=-1.51D-02 R= 1.01D+00
 TightC=F SS=  1.41D+00  RLast= 4.67D-02 DXNew= 8.4090D-02 1.4003D-01
 Trust test= 1.01D+00 RLast= 4.67D-02 DXMaxT set to 8.41D-02
 ITU=  1  1  0
 Linear search step of   0.093 exceeds DXMaxT=   0.084 but not scaled.
 Quartic linear search produced a step of  2.00000.
 TrRot=  0.000000  0.000000  0.000000  0.000000  0.000000  0.000000
 Variable       Old X    -DE/DX   Delta X   Delta X   Delta X     New X
                                 (Linear)    (Quad)   (Total)
    X1       -3.55487   0.06554   0.00325   0.00000   0.00325  -3.55162
    Y1        2.67340  -0.11050  -0.01032   0.00000  -0.01032   2.66308
    Z1       -0.80429   0.53083   0.00984   0.00000   0.00984  -0.79445
    X2       -3.07487   0.04871  -0.00477   0.00000  -0.00477  -3.07964
    Y2        1.65256  -0.09734  -0.01082   0.00000  -0.01082   1.64174
    Z2        1.57283   0.04886  -0.01583   0.00000  -0.01583   1.55699
    X3       -4.62854  -0.27825   0.02096   0.00000   0.02096  -4.60758
    Y3        4.50644   0.45007   0.02085   0.00000   0.02085   4.52730
    Z3       -0.64300  -0.00914   0.03745   0.00000   0.03745  -0.60555
    X4       -4.75142  -0.26127  -0.04117   0.00000  -0.04117  -4.79259
    Y4        1.43926  -0.32994   0.01427   0.00000   0.01427   1.45353
    Z4       -2.09234  -0.29868  -0.01805   0.00000  -0.01805  -2.11039
    X5       -1.79120   0.44038   0.01233   0.00000   0.01233  -1.77887
    Y5        3.12418   0.06645  -0.01337   0.00000  -0.01337   3.11081
    Z5       -1.92877  -0.27125  -0.02564   0.00000  -0.02564  -1.95441
    X6       -1.76372  -0.06581   0.00813   0.00000   0.00813  -1.75560
    Y6       -3.79794  -0.06872   0.01026   0.00000   0.01026  -3.78768
    Z6       -1.01919  -0.10040   0.01615   0.00000   0.01615  -1.00304
    X7       -0.26239  -0.00189   0.00069   0.00000   0.00069  -0.26169
    Y7       -2.35448  -0.02664   0.00130   0.00000   0.00130  -2.35318
    Z7        0.96980   0.11133   0.00083   0.00000   0.00083   0.97062
    X8        2.37198   0.04990   0.00074   0.00000   0.00074   2.37272
    Y8       -1.87397  -0.02223   0.00028   0.00000   0.00028  -1.87369
    Z8        0.41182  -0.02863  -0.00097   0.00000  -0.00097   0.41085
    X9        3.36114  -0.00126   0.00126   0.00000   0.00126   3.36240
    Y9        1.78797   0.00017  -0.00013   0.00000  -0.00013   1.78785
    Z9       -0.30853   0.01998  -0.00220   0.00000  -0.00220  -0.31073
   X10       -1.18732  -0.01266   0.00940   0.00000   0.00940  -1.17792
   Y10       -5.81579   0.06253   0.00408   0.00000   0.00408  -5.81171
   Z10       -1.27108   0.00785   0.01164   0.00000   0.01164  -1.25944
   X11       -3.82234   0.05958  -0.00252   0.00000  -0.00252  -3.82487
   Y11       -3.81933   0.01008  -0.00150   0.00000  -0.00150  -3.82083
   Z11       -0.59164  -0.01399  -0.00328   0.00000  -0.00328  -0.59493
   X12       -1.57232  -0.00673   0.01890   0.00000   0.01890  -1.55342
   Y12       -2.90189  -0.01357   0.00373   0.00000   0.00373  -2.89816
   Z12       -2.91267   0.05001   0.00697   0.00000   0.00697  -2.90570
   X13       -1.81833  -0.01172  -0.02927   0.00000  -0.02927  -1.84760
   Y13       -0.16347   0.02421  -0.02024   0.00000  -0.02024  -0.18372
   Z13        1.29526   0.00140  -0.01475   0.00000  -0.01475   1.28051
   X14       -0.53195   0.02285   0.00178   0.00000   0.00178  -0.53018
   Y14       -3.10535   0.03188   0.00168   0.00000   0.00168  -3.10367
   Z14        2.90951  -0.05256   0.00107   0.00000   0.00107   2.91058
   X15        3.73859  -0.01516   0.00122   0.00000   0.00122   3.73981
   Y15       -2.18026   0.03248   0.00012   0.00000   0.00012  -2.18015
   Z15        1.95616  -0.01422  -0.00188   0.00000  -0.00188   1.95429
   X16        3.10759  -0.03221  -0.00093   0.00000  -0.00093   3.10667
   Y16       -2.63947  -0.00893  -0.00020   0.00000  -0.00020  -2.63967
   Z16       -1.38754   0.01861  -0.00135   0.00000  -0.00135  -1.38889
         Item               Value     Threshold  Converged?
 Maximum Force            0.530831     0.000450     NO 
 RMS     Force            0.157188     0.000300     NO 
 Maximum Displacement     0.041167     0.001800     NO 
 RMS     Displacement     0.013474     0.001200     NO 
 Predicted change in Energy=-2.912837D-02
 Optimization stopped.
    -- Number of steps exceeded,  NStep=   3
    -- Flag reset to prevent archiving.
 GradGradGradGradGradGradGradGradGradGradGradGradGradGradGradGradGradGrad

                          Input orientation:                          
 ---------------------------------------------------------------------
 Center     Atomic      Atomic             Coordinates (Angstroms)
 Number     Number       Type             X           Y           Z
 ---------------------------------------------------------------------
      1          6           0       -1.881157    1.414700   -0.425612
      2          6           0       -1.627150    0.874496    0.832303
      3          6           0       -2.449320    2.384706   -0.340261
      4          6           0       -2.514342    0.761622   -1.107221
      5          6           0       -0.947863    1.653245   -1.020661
      6          8           0       -0.933321   -2.009783   -0.539332
      7          1           0       -0.138849   -1.245935    0.513196
      8          1           0        1.255199   -0.991661    0.217923
      9          1           0        1.778637    0.946155   -0.163269
     10          1           0       -0.628301   -3.077585   -0.672628
     11          1           0       -2.022698   -2.021104   -0.313085
     12          1           0       -0.832034   -1.535614   -1.541318
     13          1           0       -0.962220   -0.086506    0.685423
     14          1           0       -0.281498   -1.643281    1.539646
     15          1           0        1.978378   -1.153746    1.035156
     16          1           0        1.644468   -1.396747   -0.734256
 ---------------------------------------------------------------------
                    Distance matrix (angstroms):
                    1          2          3          4          5
     1  C    0.000000
     2  C    1.392368   0.000000
     3  C    1.127388   2.081251   0.000000
     4  C    1.136673   2.135791   1.796345   0.000000
     5  C    1.132265   2.121640   1.803427   1.804533   0.000000
     6  O    3.555054   3.268309   4.652893   3.240804   3.694545
     7  H    3.316018   2.610191   4.387279   3.506993   3.378234
     8  H    4.005177   3.488258   5.043301   4.363422   3.658293
     9  H    3.698980   3.549041   4.469494   4.399406   2.944300
    10  H    4.670256   4.345280   5.767426   4.299481   4.754366
    11  H    3.440559   3.138928   4.426501   2.935291   3.893170
    12  H    3.324126   3.474898   4.407614   2.880260   3.233160
    13  H    2.081457   1.177808   3.061108   2.518328   2.436732
    14  H    3.971447   2.941142   4.945521   4.216047   4.226854
    15  H    4.860737   4.141829   5.832403   5.333193   4.546258
    16  H    4.519903   4.279736   5.586924   4.700358   4.013061
                    6          7          8          9         10
     6  O    0.000000
     7  H    1.523964   0.000000
     8  H    2.529749   1.447484   0.000000
     9  H    4.029108   2.989919   2.043142   0.000000
    10  H    1.118484   2.236221   2.948174   4.716279   0.000000
    11  H    1.112680   2.198298   3.476540   4.824647   1.785991
    12  H    1.113136   2.187567   2.783408   3.856657   1.781518
    13  H    2.280319   1.432437   2.440248   3.049420   3.301872
    14  H    2.209377   1.109879   2.129084   3.721459   2.659258
    15  H    3.419036   2.182565   1.103235   2.426046   3.662302
    16  H    2.656841   2.181536   1.105563   2.415205   2.827454
                   11         12         13         14         15
    11  H    0.000000
    12  H    1.778184   0.000000
    13  H    2.421632   2.659932   0.000000
    14  H    2.570435   3.131616   1.901743   0.000000
    15  H    4.310298   3.831770   3.147766   2.366684   0.000000
    16  H    3.743703   2.608390   3.244540   2.990110   1.816966
                   16
    16  H    0.000000
 Stoichiometry    C5H10O
 Framework group  C1[X(C5H10O)]
 Deg. of freedom    42
 Full point group                 C1      NOp   1
 Largest Abelian subgroup         C1      NOp   1
 Largest concise Abelian subgroup C1      NOp   1
                         Standard orientation:                         
 ---------------------------------------------------------------------
 Center     Atomic      Atomic             Coordinates (Angstroms)
 Number     Number       Type             X           Y           Z
 ---------------------------------------------------------------------
      1          6           0       -1.264994   -0.014599    0.000730
      2          6           0       -0.584628    0.381397    1.149198
      3          6           0       -2.378880   -0.021511    0.174554
      4          6           0       -1.017447   -1.062288   -0.364091
      5          6           0       -1.094451    0.661859   -0.891091
      6          8           0        2.200795   -0.801570   -0.085246
      7          1           0        1.952948    0.555186    0.563022
      8          1           0        2.338538    1.721712   -0.202321
      9          1           0        0.827359    2.892211   -0.923914
     10          1           0        3.279151   -1.072382   -0.206974
     11          1           0        1.732609   -1.630830    0.490242
     12          1           0        1.757412   -0.846225   -1.105289
     13          1           0        0.560934    0.451465    0.884605
     14          1           0        2.310959    0.608319    1.612230
     15          1           0        2.865543    2.525187    0.339732
     16          1           0        2.810574    1.538762   -1.185164
 ---------------------------------------------------------------------
 Rotational constants (GHZ):      5.6153232      1.8329596      1.7083701

 **********************************************************************

            Population analysis using the SCF density.

 **********************************************************************

 Orbital symmetries:
       Occupied  (A) (A) (A) (A) (A) (A) (A) (A) (A) (A) (A) (A)
                 (A) (A) (A) (A) (A) (A) (A) (A) (A) (A) (A) (A)
       Virtual   (A) (A) (A) (A) (A) (A) (A) (A) (A) (A) (A) (A)
                 (A) (A) (A) (A) (A) (A) (A) (A) (A) (A) (A) (A)
                 (A) (A) (A) (A) (A) (A) (A) (A) (A) (A) (A) (A)
                 (A) (A) (A) (A) (A) (A) (A) (A) (A) (A) (A) (A)
                 (A) (A) (A) (A) (A) (A) (A) (A) (A) (A) (A) (A)
                 (A) (A) (A) (A) (A) (A) (A) (A) (A) (A) (A) (A)
                 (A) (A) (A) (A) (A) (A) (A) (A) (A) (A) (A) (A)
                 (A) (A) (A) (A) (A) (A) (A) (A) (A) (A) (A) (A)
                 (A) (A) (A) (A) (A) (A) (A) (A) (A) (A) (A) (A)
                 (A) (A)
 The electronic state is 1-A.
 Alpha  occ. eigenvalues --  -19.45981 -10.32238 -10.29584 -10.28810 -10.27463
 Alpha  occ. eigenvalues --  -10.26777  -1.22123  -1.11193  -0.77822  -0.76552
 Alpha  occ. eigenvalues --   -0.76258  -0.69904  -0.69563  -0.63489  -0.50883
 Alpha  occ. eigenvalues --   -0.48377  -0.34729  -0.34240  -0.30568  -0.29929
 Alpha  occ. eigenvalues --   -0.29286  -0.26542  -0.21920  -0.20988
 Alpha virt. eigenvalues --   -0.16033  -0.11987  -0.11409  -0.10831  -0.05113
 Alpha virt. eigenvalues --   -0.04349  -0.03092   0.00994   0.01684   0.05859
 Alpha virt. eigenvalues --    0.09156   0.17287   0.23960   0.28885   0.31745
 Alpha virt. eigenvalues --    0.33749   0.37386   0.38006   0.40882   0.42863
 Alpha virt. eigenvalues --    0.44519   0.46040   0.47037   0.48455   0.49740
 Alpha virt. eigenvalues --    0.51722   0.53092   0.54844   0.56067   0.56554
 Alpha virt. eigenvalues --    0.58025   0.59592   0.59819   0.61988   0.63766
 Alpha virt. eigenvalues --    0.64619   0.67747   0.69135   0.72727   0.76195
 Alpha virt. eigenvalues --    0.81226   0.83661   0.88061   0.89044   0.90410
 Alpha virt. eigenvalues --    0.95173   0.97128   0.99224   1.01443   1.10888
 Alpha virt. eigenvalues --    1.14864   1.19877   1.25196   1.27616   1.30358
 Alpha virt. eigenvalues --    1.30937   1.34292   1.34810   1.37536   1.38689
 Alpha virt. eigenvalues --    1.42070   1.44417   1.46502   1.47278   1.52640
 Alpha virt. eigenvalues --    1.54201   1.55095   1.63650   1.64878   1.65130
 Alpha virt. eigenvalues --    1.70306   1.73165   1.74667   1.74904   1.76588
 Alpha virt. eigenvalues --    1.78891   1.80167   1.82265   1.84854   1.87532
 Alpha virt. eigenvalues --    1.87994   1.96885   2.00841   2.02964   2.04138
 Alpha virt. eigenvalues --    2.07841   2.13905   2.19738   2.20970   2.23785
 Alpha virt. eigenvalues --    2.25886   2.32968   2.35502   2.43016   2.49626
 Alpha virt. eigenvalues --    2.51578   2.54830   2.63649   2.78032   2.81311
 Alpha virt. eigenvalues --    2.83780   2.89504   2.99127   3.04928   3.08647
 Alpha virt. eigenvalues --    3.13247   3.22747   3.26883   3.49049   3.50513
          Condensed to atoms (all electrons):
               1          2          3          4          5          6
     1  C    6.584109  -0.027703  -0.483341  -0.663910  -0.604341  -0.002213
     2  C   -0.027703   6.283500  -0.327132   0.132631   0.066667   0.004878
     3  C   -0.483341  -0.327132   7.221392  -0.023151  -0.092155   0.000074
     4  C   -0.663910   0.132631  -0.023151   7.231205  -0.002715  -0.007396
     5  C   -0.604341   0.066667  -0.092155  -0.002715   7.157832  -0.002611
     6  O   -0.002213   0.004878   0.000074  -0.007396  -0.002611   7.713347
     7  H    0.008024  -0.024311  -0.001160  -0.007675   0.006262  -0.110026
     8  H    0.000002   0.002046   0.000104   0.000052   0.000818  -0.000126
     9  H   -0.004065  -0.012051   0.001307   0.002335   0.013809   0.000879
    10  H    0.000404  -0.000818   0.000039   0.000605   0.000379   0.186581
    11  H   -0.003970   0.001934   0.000275   0.025280  -0.001079   0.211996
    12  H   -0.004920  -0.010696   0.001199   0.028052   0.016274   0.175572
    13  H    0.032940  -0.013495   0.060253  -0.003972  -0.022525  -0.006600
    14  H   -0.000391  -0.001962  -0.000875  -0.000185  -0.000174  -0.057021
    15  H   -0.000348   0.001537  -0.000050   0.000144  -0.001508   0.003375
    16  H    0.000427   0.001570   0.000082  -0.000747   0.002890  -0.016024
               7          8          9         10         11         12
     1  C    0.008024   0.000002  -0.004065   0.000404  -0.003970  -0.004920
     2  C   -0.024311   0.002046  -0.012051  -0.000818   0.001934  -0.010696
     3  C   -0.001160   0.000104   0.001307   0.000039   0.000275   0.001199
     4  C   -0.007675   0.000052   0.002335   0.000605   0.025280   0.028052
     5  C    0.006262   0.000818   0.013809   0.000379  -0.001079   0.016274
     6  O   -0.110026  -0.000126   0.000879   0.186581   0.211996   0.175572
     7  H    0.759951  -0.007239  -0.027363   0.019650   0.013324   0.017798
     8  H   -0.007239   0.591791   0.037783  -0.001393  -0.000282  -0.000649
     9  H   -0.027363   0.037783   1.065700  -0.000575  -0.000371  -0.001429
    10  H    0.019650  -0.001393  -0.000575   0.450503   0.020719   0.031842
    11  H    0.013324  -0.000282  -0.000371   0.020719   0.403286   0.018026
    12  H    0.017798  -0.000649  -0.001429   0.031842   0.018026   0.419802
    13  H   -0.062900   0.000484   0.034466   0.003992   0.004842   0.020246
    14  H    0.381070  -0.028712  -0.001058  -0.003903  -0.001375  -0.003255
    15  H   -0.038996   0.208591   0.089701  -0.006088  -0.001096  -0.004672
    16  H    0.029954   0.188263  -0.124987   0.024310   0.004079   0.028749
              13         14         15         16
     1  C    0.032940  -0.000391  -0.000348   0.000427
     2  C   -0.013495  -0.001962   0.001537   0.001570
     3  C    0.060253  -0.000875  -0.000050   0.000082
     4  C   -0.003972  -0.000185   0.000144  -0.000747
     5  C   -0.022525  -0.000174  -0.001508   0.002890
     6  O   -0.006600  -0.057021   0.003375  -0.016024
     7  H   -0.062900   0.381070  -0.038996   0.029954
     8  H    0.000484  -0.028712   0.208591   0.188263
     9  H    0.034466  -0.001058   0.089701  -0.124987
    10  H    0.003992  -0.003903  -0.006088   0.024310
    11  H    0.004842  -0.001375  -0.001096   0.004079
    12  H    0.020246  -0.003255  -0.004672   0.028749
    13  H    1.078532  -0.065985  -0.006087  -0.007639
    14  H   -0.065985   0.882528   0.023939  -0.028559
    15  H   -0.006087   0.023939   0.865312  -0.187225
    16  H   -0.007639  -0.028559  -0.187225   1.214712
 Mulliken charges:
               1
     1  C    1.169295
     2  C   -0.076596
     3  C   -0.356863
     4  C   -0.710553
     5  C   -0.537824
     6  O   -0.094688
     7  H    0.043637
     8  H    0.008468
     9  H   -0.074080
    10  H    0.273753
    11  H    0.304412
    12  H    0.268059
    13  H   -0.046553
    14  H   -0.094082
    15  H    0.053469
    16  H   -0.129854
 Sum of Mulliken charges =   0.00000
 Mulliken charges with hydrogens summed into heavy atoms:
               1
     1  C    1.169295
     2  C   -0.123149
     3  C   -0.356863
     4  C   -0.710553
     5  C   -0.611904
     6  O    0.633175
 Electronic spatial extent (au):  <R**2>=            844.4614
 Charge=              0.0000 electrons
 Dipole moment (field-independent basis, Debye):
    X=              9.5731    Y=             -5.3067    Z=              0.5491  Tot=             10.9593
 Quadrupole moment (field-independent basis, Debye-Ang):
   XX=            -36.8913   YY=            -47.6057   ZZ=            -49.5327
   XY=            -13.9764   XZ=             -1.0385   YZ=              0.9883
 Traceless Quadrupole moment (field-independent basis, Debye-Ang):
   XX=              7.7852   YY=             -2.9291   ZZ=             -4.8561
   XY=            -13.9764   XZ=             -1.0385   YZ=              0.9883
 Octapole moment (field-independent basis, Debye-Ang**2):
  XXX=             91.6574  YYY=            -36.1637  ZZZ=             -0.7951  XYY=             20.3261
  XXY=            -36.6824  XXZ=             -3.4594  XZZ=              5.9767  YZZ=            -15.3741
  YYZ=              8.6243  XYZ=              2.2870
 Hexadecapole moment (field-independent basis, Debye-Ang**3):
 XXXX=           -778.3734 YYYY=           -369.6408 ZZZZ=           -207.3817 XXXY=           -129.9490
 XXXZ=              5.3989 YYYX=            -76.8747 YYYZ=              5.1621 ZZZX=             -2.0819
 ZZZY=              8.8502 XXYY=           -163.2550 XXZZ=           -186.0793 YYZZ=            -91.5392
 XXYZ=             11.8243 YYXZ=             -0.6598 ZZXY=            -20.8630
 N-N= 2.358287430442D+02 E-N=-1.098774508929D+03  KE= 2.705213719755D+02


 MISERY NO LONGER LOVES COMPANY.  NOWADAYS IT INSISTS ON IT.

                                              -- BAKER'S LAW
 Error termination request processed by link 9999.
 Error termination via Lnk1e in /usr/local/gaussian/g09/l9999.exe at Mon Dec 16 15:19:46 2019.
 Job cpu time:       0 days  0 hours  2 minutes 12.7 seconds.
 File lengths (MBytes):  RWF=     11 Int=      0 D2E=      0 Chk=      2 Scr=      1
