 Entering Gaussian System, Link 0=/usr/local/gaussian/g09/g09
 Input=TS_conf5_opt_internal_g09.com
 Output=TS_conf5_opt_internal_g09.log
 Initial command:
 /usr/local/gaussian/g09/l1.exe "/home/aleph/fd/shug5449/autodE/examples/gaussian_elimination/ts_confs/Gau-250753.inp" -scrdir="/home/aleph/fd/shug5449/autodE/examples/gaussian_elimination/ts_confs/"
 Entering Link 1 = /usr/local/gaussian/g09/l1.exe PID=    250755.
  
 Copyright (c) 1988,1990,1992,1993,1995,1998,2003,2009,2013,
            Gaussian, Inc.  All Rights Reserved.
  
 This is part of the Gaussian(R) 09 program.  It is based on
 the Gaussian(R) 03 system (copyright 2003, Gaussian, Inc.),
 the Gaussian(R) 98 system (copyright 1998, Gaussian, Inc.),
 the Gaussian(R) 94 system (copyright 1995, Gaussian, Inc.),
 the Gaussian 92(TM) system (copyright 1992, Gaussian, Inc.),
 the Gaussian 90(TM) system (copyright 1990, Gaussian, Inc.),
 the Gaussian 88(TM) system (copyright 1988, Gaussian, Inc.),
 the Gaussian 86(TM) system (copyright 1986, Carnegie Mellon
 University), and the Gaussian 82(TM) system (copyright 1983,
 Carnegie Mellon University). Gaussian is a federally registered
 trademark of Gaussian, Inc.
  
 This software contains proprietary and confidential information,
 including trade secrets, belonging to Gaussian, Inc.
  
 This software is provided under written license and may be
 used, copied, transmitted, or stored only in accord with that
 written license.
  
 The following legend is applicable only to US Government
 contracts under FAR:
  
                    RESTRICTED RIGHTS LEGEND
  
 Use, reproduction and disclosure by the US Government is
 subject to restrictions as set forth in subparagraphs (a)
 and (c) of the Commercial Computer Software - Restricted
 Rights clause in FAR 52.227-19.
  
 Gaussian, Inc.
 340 Quinnipiac St., Bldg. 40, Wallingford CT 06492
  
  
 ---------------------------------------------------------------
 Warning -- This program may not be used in any manner that
 competes with the business of Gaussian, Inc. or will provide
 assistance to any competitor of Gaussian, Inc.  The licensee
 of this program is prohibited from giving any competitor of
 Gaussian, Inc. access to this program.  By using this program,
 the user acknowledges that Gaussian, Inc. is engaged in the
 business of creating and licensing software in the field of
 computational chemistry and represents and warrants to the
 licensee that it is not a competitor of Gaussian, Inc. and that
 it will not use this program in any manner prohibited above.
 ---------------------------------------------------------------
  

 Cite this work as:
 Gaussian 09, Revision D.01,
 M. J. Frisch, G. W. Trucks, H. B. Schlegel, G. E. Scuseria, 
 M. A. Robb, J. R. Cheeseman, G. Scalmani, V. Barone, B. Mennucci, 
 G. A. Petersson, H. Nakatsuji, M. Caricato, X. Li, H. P. Hratchian, 
 A. F. Izmaylov, J. Bloino, G. Zheng, J. L. Sonnenberg, M. Hada, 
 M. Ehara, K. Toyota, R. Fukuda, J. Hasegawa, M. Ishida, T. Nakajima, 
 Y. Honda, O. Kitao, H. Nakai, T. Vreven, J. A. Montgomery, Jr., 
 J. E. Peralta, F. Ogliaro, M. Bearpark, J. J. Heyd, E. Brothers, 
 K. N. Kudin, V. N. Staroverov, T. Keith, R. Kobayashi, J. Normand, 
 K. Raghavachari, A. Rendell, J. C. Burant, S. S. Iyengar, J. Tomasi, 
 M. Cossi, N. Rega, J. M. Millam, M. Klene, J. E. Knox, J. B. Cross, 
 V. Bakken, C. Adamo, J. Jaramillo, R. Gomperts, R. E. Stratmann, 
 O. Yazyev, A. J. Austin, R. Cammi, C. Pomelli, J. W. Ochterski, 
 R. L. Martin, K. Morokuma, V. G. Zakrzewski, G. A. Voth, 
 P. Salvador, J. J. Dannenberg, S. Dapprich, A. D. Daniels, 
 O. Farkas, J. B. Foresman, J. V. Ortiz, J. Cioslowski, 
 and D. J. Fox, Gaussian, Inc., Wallingford CT, 2013.
 
 ******************************************
 Gaussian 09:  EM64L-G09RevD.01 24-Apr-2013
                13-Dec-2019 
 ******************************************
 %mem=4000MB
 %nprocshared=4
 Will use up to    4 processors via shared memory.
 -----------------------------------------------------------------
 # PBEPBE/Def2SVP Opt=Loose Geom=ModRedun scrf=(smd,solvent=water)
 -----------------------------------------------------------------
 1/7=-1,14=-1,18=120,19=15,26=3,38=1/1,3;
 2/9=110,12=2,17=6,18=5,40=1/2;
 3/5=43,7=101,11=2,16=1,25=1,30=1,70=32201,71=1,72=1,74=1009/1,2,3;
 4//1;
 5/5=2,38=5,53=1/2;
 6/7=2,8=2,9=2,10=2,28=1/1;
 7//1,2,3,16;
 1/7=-1,14=-1,18=20,19=15,26=3/3(2);
 2/9=110/2;
 99//99;
 2/9=110/2;
 3/5=43,7=101,11=2,16=1,25=1,30=1,70=32205,71=1,72=1,74=1009/1,2,3;
 4/5=5,16=3,69=1/1;
 5/5=2,38=5,53=1/2;
 7//1,2,3,16;
 1/7=-1,14=-1,18=20,19=15,26=3/3(-5);
 2/9=110/2;
 6/7=2,8=2,9=2,10=2,19=2,28=1/1;
 99/9=1/99;
 ---------------------
 TS_conf5_opt_internal
 ---------------------
 Symbolic Z-matrix:
 Charge = -1 Multiplicity = 1
 C                     1.8838   -1.41187  -0.43226 
 O                     1.63273  -0.8811    0.83687 
 H                     2.4495   -2.37527  -0.35912 
 H                     2.50756  -0.7529   -1.10002 
 H                     0.9528   -1.64189  -1.01637 
 C                     0.92704   2.01906  -0.54312 
 C                     0.13412   1.25264   0.51291 
 C                    -1.25829   0.99029   0.21999 
 Cl                   -1.77357  -0.9533   -0.16322 
 H                     0.62027   3.08575  -0.67668 
 H                     2.01515   2.03051  -0.31351 
 H                     0.82932   1.54247  -1.54371 
 H                     0.95113   0.07288   0.69731 
 H                     0.27658   1.65039   1.54064 
 H                    -1.98206   1.14831   1.03802 
 H                    -1.65146   1.39393  -0.73189 
 
 Add virtual bond connecting atoms H13        and O2         Dist= 2.23D+00.
 Add virtual bond connecting atoms H13        and C7         Dist= 2.73D+00.
 The following ModRedundant input section has been read:
 B       2      13 1.1805 B                                                    
 B       2      13 F                                                           
 B       7      13 1.4328 B                                                    
 B       7      13 F                                                           
 B       8       9 2.0432 B                                                    
 B       8       9 F                                                           
 
 Iteration  1 RMS(Cart)=  0.00624444 RMS(Int)=  0.00000239
 Iteration  2 RMS(Cart)=  0.00000189 RMS(Int)=  0.00000160
 Iteration  3 RMS(Cart)=  0.00000000 RMS(Int)=  0.00000160
 Iteration  1 RMS(Cart)=  0.00000000 RMS(Int)=  0.00000000

 GradGradGradGradGradGradGradGradGradGradGradGradGradGradGradGradGradGrad
 Berny optimization.
 Initialization pass.
                           ----------------------------
                           !    Initial Parameters    !
                           ! (Angstroms and Degrees)  !
 --------------------------                            --------------------------
 ! Name  Definition              Value          Derivative Info.                !
 --------------------------------------------------------------------------------
 ! R1    R(1,2)                  1.3984         estimate D2E/DX2                !
 ! R2    R(1,3)                  1.1196         estimate D2E/DX2                !
 ! R3    R(1,4)                  1.1266         estimate D2E/DX2                !
 ! R4    R(1,5)                  1.1229         estimate D2E/DX2                !
 ! R5    R(2,13)                 1.1806         Frozen                          !
 ! R6    R(6,7)                  1.5269         estimate D2E/DX2                !
 ! R7    R(6,10)                 1.1179         estimate D2E/DX2                !
 ! R8    R(6,11)                 1.1121         estimate D2E/DX2                !
 ! R9    R(6,12)                 1.1126         estimate D2E/DX2                !
 ! R10   R(7,8)                  1.4469         estimate D2E/DX2                !
 ! R11   R(7,13)                 1.4329         Frozen                          !
 ! R12   R(7,14)                 1.1112         estimate D2E/DX2                !
 ! R13   R(8,9)                  2.0433         Frozen                          !
 ! R14   R(8,15)                 1.1036         estimate D2E/DX2                !
 ! R15   R(8,16)                 1.1062         estimate D2E/DX2                !
 ! A1    A(2,1,3)              110.9796         estimate D2E/DX2                !
 ! A2    A(2,1,4)              114.541          estimate D2E/DX2                !
 ! A3    A(2,1,5)              113.6408         estimate D2E/DX2                !
 ! A4    A(3,1,4)              105.2058         estimate D2E/DX2                !
 ! A5    A(3,1,5)              106.0596         estimate D2E/DX2                !
 ! A6    A(4,1,5)              105.6967         estimate D2E/DX2                !
 ! A7    A(1,2,13)             107.64           estimate D2E/DX2                !
 ! A8    A(7,6,10)             114.7763         estimate D2E/DX2                !
 ! A9    A(7,6,11)             111.7443         estimate D2E/DX2                !
 ! A10   A(7,6,12)             111.1849         estimate D2E/DX2                !
 ! A11   A(10,6,11)            106.4587         estimate D2E/DX2                !
 ! A12   A(10,6,12)            106.092          estimate D2E/DX2                !
 ! A13   A(11,6,12)            106.0226         estimate D2E/DX2                !
 ! A14   A(6,7,8)              116.7923         estimate D2E/DX2                !
 ! A15   A(6,7,13)             101.7826         estimate D2E/DX2                !
 ! A16   A(6,7,14)             113.1685         estimate D2E/DX2                !
 ! A17   A(8,7,13)             114.9218         estimate D2E/DX2                !
 ! A18   A(8,7,14)             112.0568         estimate D2E/DX2                !
 ! A19   A(13,7,14)             95.8317         estimate D2E/DX2                !
 ! A20   A(7,8,9)              116.8929         estimate D2E/DX2                !
 ! A21   A(7,8,15)             117.0714         estimate D2E/DX2                !
 ! A22   A(7,8,16)             116.7504         estimate D2E/DX2                !
 ! A23   A(9,8,15)              96.2939         estimate D2E/DX2                !
 ! A24   A(9,8,16)              95.5035         estimate D2E/DX2                !
 ! A25   A(15,8,16)            110.6407         estimate D2E/DX2                !
 ! A26   L(2,13,7,9,-1)        180.6664         estimate D2E/DX2                !
 ! A27   L(2,13,7,9,-2)        180.7629         estimate D2E/DX2                !
 ! D1    D(3,1,2,13)          -174.7931         estimate D2E/DX2                !
 ! D2    D(4,1,2,13)            66.2674         estimate D2E/DX2                !
 ! D3    D(5,1,2,13)           -55.3689         estimate D2E/DX2                !
 ! D4    D(1,2,7,6)            -50.9724         estimate D2E/DX2                !
 ! D5    D(1,2,7,8)             76.1084         estimate D2E/DX2                !
 ! D6    D(1,2,7,14)          -166.0803         estimate D2E/DX2                !
 ! D7    D(10,6,7,8)            67.9584         estimate D2E/DX2                !
 ! D8    D(10,6,7,13)         -166.0581         estimate D2E/DX2                !
 ! D9    D(10,6,7,14)          -64.3944         estimate D2E/DX2                !
 ! D10   D(11,6,7,8)          -170.7064         estimate D2E/DX2                !
 ! D11   D(11,6,7,13)          -44.7229         estimate D2E/DX2                !
 ! D12   D(11,6,7,14)           56.9407         estimate D2E/DX2                !
 ! D13   D(12,6,7,8)           -52.459          estimate D2E/DX2                !
 ! D14   D(12,6,7,13)           73.5245         estimate D2E/DX2                !
 ! D15   D(12,6,7,14)          175.1882         estimate D2E/DX2                !
 ! D16   D(6,7,8,9)            110.1292         estimate D2E/DX2                !
 ! D17   D(6,7,8,15)          -136.4637         estimate D2E/DX2                !
 ! D18   D(6,7,8,16)            -1.961          estimate D2E/DX2                !
 ! D19   D(13,7,8,9)            -9.0063         estimate D2E/DX2                !
 ! D20   D(13,7,8,15)          104.4007         estimate D2E/DX2                !
 ! D21   D(13,7,8,16)         -121.0965         estimate D2E/DX2                !
 ! D22   D(14,7,8,9)          -117.0145         estimate D2E/DX2                !
 ! D23   D(14,7,8,15)           -3.6074         estimate D2E/DX2                !
 ! D24   D(14,7,8,16)          130.8953         estimate D2E/DX2                !
 --------------------------------------------------------------------------------
 Trust Radius=3.00D-01 FncErr=1.00D-07 GrdErr=1.00D-06
 Number of steps in this run=     76 maximum allowed number of steps=    100.
 GradGradGradGradGradGradGradGradGradGradGradGradGradGradGradGradGradGrad

                          Input orientation:                          
 ---------------------------------------------------------------------
 Center     Atomic      Atomic             Coordinates (Angstroms)
 Number     Number       Type             X           Y           Z
 ---------------------------------------------------------------------
      1          6           0        1.878928   -1.404930   -0.432222
      2          8           0        1.627405   -0.873670    0.836613
      3          1           0        2.444640   -2.368287   -0.358506
      4          1           0        2.502885   -0.746207   -1.100038
      5          1           0        0.948133   -1.635223   -1.016556
      6          6           0        0.930045    2.014362   -0.543003
      7          6           0        0.136805    1.248356    0.513082
      8          6           0       -1.255503    0.985830    0.219807
      9         17           0       -1.769650   -0.954453   -0.162073
     10          1           0        0.623281    3.080981   -0.677112
     11          1           0        2.018078    2.025948   -0.313032
     12          1           0        0.832680    1.537347   -1.543432
     13          1           0        0.945908    0.080093    0.696458
     14          1           0        0.278901    1.646540    1.540687
     15          1           0       -1.979547    1.144158    1.037533
     16          1           0       -1.648364    1.389054   -0.732373
 ---------------------------------------------------------------------
                    Distance matrix (angstroms):
                    1          2          3          4          5
     1  C    0.000000
     2  O    1.398372   0.000000
     3  H    1.119607   2.080880   0.000000
     4  H    1.126596   2.129163   1.784490   0.000000
     5  H    1.122880   2.115564   1.791632   1.792923   0.000000
     6  C    3.550241   3.275726   4.640652   3.225656   3.680224
     7  C    3.311875   2.613342   4.377884   3.489810   3.363491
     8  C    3.995689   3.485591   5.027484   4.343665   3.640676
     9  Cl   3.686194   3.541734   4.449466   4.379235   2.929152
    10  H    4.664764   4.351884   5.754422   4.284757   4.739549
    11  H    3.435767   3.143580   4.415124   2.922201   3.878647
    12  H    3.314577   3.479829   4.388216   2.863704   3.218093
    13  H    2.085603   1.180570   3.058383   2.516813   2.424197
    14  H    3.970381   2.943746   4.941274   4.200568   4.213944
    15  H    4.852407   4.137886   5.818902   5.313651   4.529409
    16  H    4.509792   4.279288   5.568668   4.682669   3.996099
                    6          7          8          9         10
     6  C    0.000000
     7  C    1.526863   0.000000
     8  C    2.533057   1.446876   0.000000
     9  Cl   4.030797   2.990446   2.043251   0.000000
    10  H    1.117929   2.238691   2.953634   4.719757   0.000000
    11  H    1.112131   2.196885   3.475931   4.822080   1.786366
    12  H    1.112602   2.190208   2.788134   3.858671   1.782460
    13  H    2.297371   1.432869   2.427708   3.030118   3.316039
    14  H    2.213830   1.111177   2.129709   3.723052   2.663616
    15  H    3.423605   2.182854   1.103623   2.426371   3.669606
    16  H    2.659899   2.181234   1.106154   2.414949   2.833027
                   11         12         13         14         15
    11  H    0.000000
    12  H    1.777015   0.000000
    13  H    2.440281   2.674606   0.000000
    14  H    2.570012   3.135344   1.900362   0.000000
    15  H    4.310752   3.837265   3.131589   2.367729   0.000000
    16  H    3.744900   2.614458   3.238084   2.991229   1.817202
                   16
    16  H    0.000000
 Stoichiometry    C4H10ClO(1-)
 Framework group  C1[X(C4H10ClO)]
 Deg. of freedom    42
 Full point group                 C1      NOp   1
 Largest Abelian subgroup         C1      NOp   1
 Largest concise Abelian subgroup C1      NOp   1
                         Standard orientation:                         
 ---------------------------------------------------------------------
 Center     Atomic      Atomic             Coordinates (Angstroms)
 Number     Number       Type             X           Y           Z
 ---------------------------------------------------------------------
      1          6           0        1.860948   -1.428045   -0.431405
      2          8           0        1.615337   -0.893596    0.837249
      3          1           0        2.414700   -2.398296   -0.357304
      4          1           0        2.493328   -0.777132   -1.098959
      5          1           0        0.927688   -1.646901   -1.016202
      6          6           0        0.954359    2.002678   -0.543002
      7          6           0        0.151185    1.246617    0.512743
      8          6           0       -1.244101    1.001250    0.218767
      9         17           0       -1.781936   -0.932584   -0.163197
     10          1           0        0.660841    3.072984   -0.677371
     11          1           0        2.042332    2.000869   -0.312466
     12          1           0        0.851639    1.526798   -1.543437
     13          1           0        0.945726    0.068484    0.696650
     14          1           0        0.297647    1.643122    1.540384
     15          1           0       -1.966562    1.168576    1.036102
     16          1           0       -1.631466    1.409192   -0.733655
 ---------------------------------------------------------------------
 Rotational constants (GHZ):      2.4327213      1.7955989      1.1841951
 Standard basis: def2SVP (5D, 7F)
 There are   144 symmetry adapted cartesian basis functions of A   symmetry.
 There are   138 symmetry adapted basis functions of A   symmetry.
   138 basis functions,   232 primitive gaussians,   144 cartesian basis functions
    30 alpha electrons       30 beta electrons
       nuclear repulsion energy       294.9910339153 Hartrees.
 NAtoms=   16 NActive=   16 NUniq=   16 SFac= 1.00D+00 NAtFMM=   60 NAOKFM=F Big=F
 Integral buffers will be    131072 words long.
 Raffenetti 2 integral format.
 Two-electron integral symmetry is turned on.
 ------------------------------------------------------------------------------
 Polarizable Continuum Model (PCM)
 =================================
 Model                : PCM (using non-symmetric T matrix).
 Atomic radii         : SMD-Coulomb.
 Polarization charges : Total charges.
 Charge compensation  : None.
 Solution method      : On-the-fly selection.
 Cavity type          : VdW (van der Waals Surface) (Alpha=1.000).
 Cavity algorithm     : GePol (No added spheres)
                        Default sphere list used, NSphG=   16.
                        Lebedev-Laikov grids with approx.  5.0 points / Ang**2.
                        Smoothing algorithm: Karplus/York (Gamma=1.0000).
                        Polarization charges: spherical gaussians, with
                                              point-specific exponents (IZeta= 3).
                        Self-potential: point-specific (ISelfS= 7).
                        Self-field    : sphere-specific E.n sum rule (ISelfD= 2).
 1st derivatives      : Analytical E(r).r(x)/FMM algorithm (CHGder, D1EAlg=3).
                        Cavity 1st derivative terms included.
 Solvent              : Water, Eps=  78.355300 Eps(inf)=   1.777849
 ------------------------------------------------------------------------------
 Spheres list:
 ISph  on   Nord     Re0    Alpha      Xe            Ye            Ze
    1   C      1    1.8500  1.000      1.860948     -1.428045     -0.431405
    2   O      2    1.5200  1.000      1.615337     -0.893596      0.837249
    3   H      3    1.2000  1.000      2.414700     -2.398296     -0.357304
    4   H      4    1.2000  1.000      2.493328     -0.777132     -1.098959
    5   H      5    1.2000  1.000      0.927688     -1.646901     -1.016202
    6   C      6    1.8500  1.000      0.954359      2.002678     -0.543002
    7   C      7    1.8500  1.000      0.151185      1.246617      0.512743
    8   C      8    1.8500  1.000     -1.244101      1.001250      0.218767
    9  Cl      9    2.3800  1.000     -1.781936     -0.932584     -0.163197
   10   H     10    1.2000  1.000      0.660841      3.072984     -0.677371
   11   H     11    1.2000  1.000      2.042332      2.000869     -0.312466
   12   H     12    1.2000  1.000      0.851639      1.526798     -1.543437
   13   H     13    1.2000  1.000      0.945726      0.068484      0.696650
   14   H     14    1.2000  1.000      0.297647      1.643122      1.540384
   15   H     15    1.2000  1.000     -1.966562      1.168576      1.036102
   16   H     16    1.2000  1.000     -1.631466      1.409192     -0.733655
 ------------------------------------------------------------------------------
 ------------------------------------------------------------------------------
 Atomic radii for non-electrostatic terms: SMD-CDS.
 ------------------------------------------------------------------------------
 Nuclear repulsion after PCM non-electrostatic terms =      294.9969853420 Hartrees.
 One-electron integrals computed using PRISM.
   1 Symmetry operations used in ECPInt.
 ECPInt:  NShTT=    2346 NPrTT=    8374 LenC2=    2329 LenP2D=    6760.
 LDataN:  DoStor=T MaxTD1= 4 Len=   56
 NBasis=   138 RedAO= T EigKep=  2.44D-03  NBF=   138
 NBsUse=   138 1.00D-06 EigRej= -1.00D+00 NBFU=   138
 ExpMin= 1.22D-01 ExpMax= 1.04D+04 ExpMxC= 1.57D+03 IAcc=1 IRadAn=         1 AccDes= 0.00D+00
 Harris functional with IExCor= 1009 and IRadAn=       1 diagonalized for initial guess.
 HarFok:  IExCor= 1009 AccDes= 0.00D+00 IRadAn=         1 IDoV= 1 UseB2=F ITyADJ=14
 ICtDFT=  3500011 ScaDFX=  1.000000  1.000000  1.000000  1.000000
 FoFCou: FMM=F IPFlag=           0 FMFlag=      100000 FMFlg1=           0
         NFxFlg=           0 DoJE=T BraDBF=F KetDBF=T FulRan=T
         wScrn=  0.000000 ICntrl=     500 IOpCl=  0 I1Cent=   200000004 NGrid=           0
         NMat0=    1 NMatS0=      1 NMatT0=    0 NMatD0=    1 NMtDS0=    0 NMtDT0=    0
 Petite list used in FoFCou.
 Keep J ints in memory in canonical form, NReq=51122221.
 Requested convergence on RMS density matrix=1.00D-08 within 128 cycles.
 Requested convergence on MAX density matrix=1.00D-06.
 Requested convergence on             energy=1.00D-06.
 No special actions if energy rises.
 Inv3:  Mode=1 IEnd=     5314683.
 Iteration    1 A*A^-1 deviation from unit magnitude is 6.00D-15 for    299.
 Iteration    1 A*A^-1 deviation from orthogonality  is 5.10D-15 for    747    280.
 Iteration    1 A^-1*A deviation from unit magnitude is 6.22D-15 for    378.
 Iteration    1 A^-1*A deviation from orthogonality  is 2.65D-09 for    800    747.
 Iteration    2 A*A^-1 deviation from unit magnitude is 7.55D-15 for     16.
 Iteration    2 A*A^-1 deviation from orthogonality  is 8.66D-15 for    981    152.
 Iteration    2 A^-1*A deviation from unit magnitude is 1.55D-15 for     78.
 Iteration    2 A^-1*A deviation from orthogonality  is 6.02D-16 for   1017    283.
 Error on total polarization charges =  0.03718
 SCF Done:  E(RPBE-PBE) =  -693.103303180     A.U. after   12 cycles
            NFock= 12  Conv=0.93D-08     -V/T= 2.0050
 SMD-CDS (non-electrostatic) energy       (kcal/mol) =       3.73
 (included in total energy above)

 **********************************************************************

            Population analysis using the SCF density.

 **********************************************************************

 Orbital symmetries:
       Occupied  (A) (A) (A) (A) (A) (A) (A) (A) (A) (A) (A) (A)
                 (A) (A) (A) (A) (A) (A) (A) (A) (A) (A) (A) (A)
                 (A) (A) (A) (A) (A) (A)
       Virtual   (A) (A) (A) (A) (A) (A) (A) (A) (A) (A) (A) (A)
                 (A) (A) (A) (A) (A) (A) (A) (A) (A) (A) (A) (A)
                 (A) (A) (A) (A) (A) (A) (A) (A) (A) (A) (A) (A)
                 (A) (A) (A) (A) (A) (A) (A) (A) (A) (A) (A) (A)
                 (A) (A) (A) (A) (A) (A) (A) (A) (A) (A) (A) (A)
                 (A) (A) (A) (A) (A) (A) (A) (A) (A) (A) (A) (A)
                 (A) (A) (A) (A) (A) (A) (A) (A) (A) (A) (A) (A)
                 (A) (A) (A) (A) (A) (A) (A) (A) (A) (A) (A) (A)
                 (A) (A) (A) (A) (A) (A) (A) (A) (A) (A) (A) (A)
 The electronic state is 1-A.
 Alpha  occ. eigenvalues -- -100.55175 -18.67728  -9.90580  -9.90405  -9.87226
 Alpha  occ. eigenvalues --   -9.83448  -9.08617  -6.91541  -6.90736  -6.90692
 Alpha  occ. eigenvalues --   -0.83067  -0.68735  -0.64206  -0.56808  -0.54921
 Alpha  occ. eigenvalues --   -0.47135  -0.38829  -0.38138  -0.34546  -0.33986
 Alpha  occ. eigenvalues --   -0.33177  -0.32764  -0.29883  -0.27963  -0.27013
 Alpha  occ. eigenvalues --   -0.23562  -0.20122  -0.19890  -0.16288  -0.12137
 Alpha virt. eigenvalues --    0.00120   0.05465   0.07759   0.09613   0.09951
 Alpha virt. eigenvalues --    0.11861   0.12815   0.14389   0.14472   0.15464
 Alpha virt. eigenvalues --    0.17235   0.23422   0.27120   0.30218   0.37192
 Alpha virt. eigenvalues --    0.40005   0.41233   0.44222   0.44598   0.47346
 Alpha virt. eigenvalues --    0.50321   0.51934   0.54760   0.56379   0.58314
 Alpha virt. eigenvalues --    0.60625   0.60973   0.61817   0.62841   0.63034
 Alpha virt. eigenvalues --    0.64664   0.65331   0.65566   0.66183   0.67351
 Alpha virt. eigenvalues --    0.68945   0.69501   0.71900   0.76476   0.80102
 Alpha virt. eigenvalues --    0.81175   0.81608   0.84459   0.85945   0.88618
 Alpha virt. eigenvalues --    0.93229   0.96917   1.00865   1.03151   1.08174
 Alpha virt. eigenvalues --    1.14608   1.14895   1.19851   1.21930   1.26730
 Alpha virt. eigenvalues --    1.27440   1.31127   1.39443   1.44128   1.49067
 Alpha virt. eigenvalues --    1.49623   1.53426   1.54795   1.64257   1.65683
 Alpha virt. eigenvalues --    1.67036   1.69092   1.70963   1.72729   1.73928
 Alpha virt. eigenvalues --    1.74759   1.76519   1.78645   1.79831   1.82599
 Alpha virt. eigenvalues --    1.85703   1.87592   1.89476   1.90759   1.97626
 Alpha virt. eigenvalues --    2.01111   2.03258   2.10601   2.15968   2.20841
 Alpha virt. eigenvalues --    2.24758   2.25600   2.30974   2.33208   2.36219
 Alpha virt. eigenvalues --    2.42294   2.46985   2.52631   2.54711   2.65618
 Alpha virt. eigenvalues --    2.68865   2.70579   2.74103   2.76652   2.82177
 Alpha virt. eigenvalues --    2.85997   2.90630   2.92176   3.02650   3.04308
 Alpha virt. eigenvalues --    3.08800   3.25349   3.67622
          Condensed to atoms (all electrons):
               1          2          3          4          5          6
     1  C    4.547094   0.348830   0.373176   0.353295   0.339776  -0.001192
     2  O    0.348830   8.159249  -0.034662  -0.046654  -0.049040   0.000217
     3  H    0.373176  -0.034662   0.751449  -0.047572  -0.044438   0.000121
     4  H    0.353295  -0.046654  -0.047572   0.821031  -0.062466   0.003316
     5  H    0.339776  -0.049040  -0.044438  -0.062466   0.822450  -0.000685
     6  C   -0.001192   0.000217   0.000121   0.003316  -0.000685   4.629195
     7  C    0.027991  -0.135703  -0.001329  -0.001683  -0.000515   0.414433
     8  C   -0.001840  -0.007541  -0.000130  -0.000827   0.005441  -0.051932
     9  Cl  -0.009062   0.003860   0.000301   0.000223   0.024773   0.000713
    10  H    0.000239  -0.000251  -0.000012  -0.000274   0.000159   0.376049
    11  H   -0.000174   0.007337   0.000179  -0.003408   0.000198   0.361220
    12  H    0.000081   0.000079  -0.000044   0.003349   0.000535   0.375936
    13  H   -0.065359   0.279518   0.005093   0.003725   0.000411   0.001524
    14  H   -0.000836   0.001632  -0.000020   0.000100   0.000177  -0.041895
    15  H    0.000015  -0.000094  -0.000002   0.000011   0.000104   0.006960
    16  H   -0.000006  -0.000215  -0.000011   0.000065  -0.000011  -0.012402
               7          8          9         10         11         12
     1  C    0.027991  -0.001840  -0.009062   0.000239  -0.000174   0.000081
     2  O   -0.135703  -0.007541   0.003860  -0.000251   0.007337   0.000079
     3  H   -0.001329  -0.000130   0.000301  -0.000012   0.000179  -0.000044
     4  H   -0.001683  -0.000827   0.000223  -0.000274  -0.003408   0.003349
     5  H   -0.000515   0.005441   0.024773   0.000159   0.000198   0.000535
     6  C    0.414433  -0.051932   0.000713   0.376049   0.361220   0.375936
     7  C    5.338173   0.397646  -0.066598  -0.029684  -0.024729  -0.031755
     8  C    0.397646   4.826365   0.126003  -0.009506   0.011173  -0.010322
     9  Cl  -0.066598   0.126003  17.374478  -0.000492  -0.000011   0.002848
    10  H   -0.029684  -0.009506  -0.000492   0.729324  -0.035842  -0.036386
    11  H   -0.024729   0.011173  -0.000011  -0.035842   0.708517  -0.025742
    12  H   -0.031755  -0.010322   0.002848  -0.036386  -0.025742   0.691033
    13  H    0.101567   0.004396   0.004858   0.001327  -0.004251  -0.002674
    14  H    0.325208  -0.021913   0.004577  -0.008592  -0.003488   0.010128
    15  H   -0.005858   0.370673  -0.029315   0.000653  -0.000597  -0.000264
    16  H   -0.033127   0.387914  -0.032669   0.004534  -0.000095   0.004681
              13         14         15         16
     1  C   -0.065359  -0.000836   0.000015  -0.000006
     2  O    0.279518   0.001632  -0.000094  -0.000215
     3  H    0.005093  -0.000020  -0.000002  -0.000011
     4  H    0.003725   0.000100   0.000011   0.000065
     5  H    0.000411   0.000177   0.000104  -0.000011
     6  C    0.001524  -0.041895   0.006960  -0.012402
     7  C    0.101567   0.325208  -0.005858  -0.033127
     8  C    0.004396  -0.021913   0.370673   0.387914
     9  Cl   0.004858   0.004577  -0.029315  -0.032669
    10  H    0.001327  -0.008592   0.000653   0.004534
    11  H   -0.004251  -0.003488  -0.000597  -0.000095
    12  H   -0.002674   0.010128  -0.000264   0.004681
    13  H    0.504249   0.009868  -0.000372   0.001133
    14  H    0.009868   0.750579  -0.018769   0.007217
    15  H   -0.000372  -0.018769   0.658992  -0.028578
    16  H    0.001133   0.007217  -0.028578   0.660518
 Mulliken charges:
               1
     1  C    0.087972
     2  O   -0.526565
     3  H   -0.002100
     4  H   -0.022229
     5  H   -0.036869
     6  C   -0.061580
     7  C   -0.274035
     8  C   -0.025600
     9  Cl  -0.404487
    10  H    0.008752
    11  H    0.009713
    12  H    0.018520
    13  H    0.154988
    14  H   -0.013973
    15  H    0.046442
    16  H    0.041052
 Sum of Mulliken charges =  -1.00000
 Mulliken charges with hydrogens summed into heavy atoms:
               1
     1  C    0.026774
     2  O   -0.371577
     6  C   -0.024595
     7  C   -0.288009
     8  C    0.061894
     9  Cl  -0.404487
 Electronic spatial extent (au):  <R**2>=           1055.7082
 Charge=             -1.0000 electrons
 Dipole moment (field-independent basis, Debye):
    X=             -1.0750    Y=              3.2202    Z=             -2.1462  Tot=              4.0164
 Quadrupole moment (field-independent basis, Debye-Ang):
   XX=            -61.3588   YY=            -55.3934   ZZ=            -51.6053
   XY=             -1.5090   XZ=             -4.7439   YZ=              2.0165
 Traceless Quadrupole moment (field-independent basis, Debye-Ang):
   XX=             -5.2396   YY=              0.7258   ZZ=              4.5138
   XY=             -1.5090   XZ=             -4.7439   YZ=              2.0165
 Octapole moment (field-independent basis, Debye-Ang**2):
  XXX=             -6.0649  YYY=            -12.7656  ZZZ=              0.5461  XYY=             -3.7560
  XXY=             10.0084  XXZ=             -3.8641  XZZ=             -7.1576  YZZ=              0.5733
  YYZ=             -1.2846  XYZ=              4.8718
 Hexadecapole moment (field-independent basis, Debye-Ang**3):
 XXXX=           -754.0847 YYYY=           -595.5817 ZZZZ=           -152.5656 XXXY=             -2.3082
 XXXZ=             -8.5090 YYYX=             -1.5741 YYYZ=              0.2950 ZZZX=              1.6405
 ZZZY=              1.1269 XXYY=           -222.5368 XXZZ=           -151.3752 YYZZ=           -126.7503
 XXYZ=              6.6291 YYXZ=              1.0258 ZZXY=              3.0193
 N-N= 2.949969853420D+02 E-N=-2.239153034736D+03  KE= 6.896700924895D+02
   1 Symmetry operations used in ECPInt.
 ECPInt:  NShTT=    2346 NPrTT=    8374 LenC2=    2329 LenP2D=    6760.
 LDataN:  DoStor=T MaxTD1= 5 Len=  102
 D1PCM: PCM CHGder 1st derivatives, ID1Alg=3 FixD1E=F DoIter=F DoCFld=F I1PDM=0.
 Calling FoFJK, ICntrl=      2527 FMM=F ISym2X=0 I1Cent= 0 IOpClX= 0 NMat=1 NMatS=1 NMatT=0.
 ***** Axes restored to original set *****
 -------------------------------------------------------------------
 Center     Atomic                   Forces (Hartrees/Bohr)
 Number     Number              X              Y              Z
 -------------------------------------------------------------------
      1        6          -0.000571872    0.000109153   -0.000365813
      2        8           0.005861500    0.000360568    0.001662491
      3        1          -0.000068034   -0.000284039   -0.000143722
      4        1           0.000394517   -0.000263643    0.000044671
      5        1          -0.000232851    0.000039136   -0.000126944
      6        6          -0.000119433   -0.000497882    0.000178969
      7        6          -0.000878170    0.005749581   -0.000223371
      8        6           0.003584251    0.010599313    0.002547623
      9       17          -0.002663242   -0.011378500   -0.002434717
     10        1           0.000196999    0.000277493    0.000011284
     11        1           0.000313934    0.000062774   -0.000033995
     12        1          -0.000027781   -0.000194550   -0.000179986
     13        1          -0.005460623   -0.005580977   -0.001410490
     14        1          -0.000230898    0.000572613    0.000111806
     15        1           0.000059725   -0.000043786    0.000269551
     16        1          -0.000158022    0.000472746    0.000092643
 -------------------------------------------------------------------
 Cartesian Forces:  Max     0.011378500 RMS     0.002924217

 GradGradGradGradGradGradGradGradGradGradGradGradGradGradGradGradGradGrad
 Berny optimization.
 FormGI is forming the generalized inverse of G from B-inverse, IUseBI=4.
 Internal  Forces:  Max     0.011939316 RMS     0.001927695
 Search for a local minimum.
 Step number   1 out of a maximum of   76
 All quantities printed in internal units (Hartrees-Bohrs-Radians)
 Mixed Optimization -- RFO/linear search
 Second derivative matrix not updated -- first step.
 ITU=  0
     Eigenvalues ---    0.00230   0.00230   0.00230   0.00411   0.01469
     Eigenvalues ---    0.01713   0.03127   0.04741   0.05061   0.05078
     Eigenvalues ---    0.05465   0.05717   0.08248   0.09645   0.10039
     Eigenvalues ---    0.12130   0.16000   0.16000   0.16000   0.16000
     Eigenvalues ---    0.16000   0.16000   0.16000   0.16000   0.16000
     Eigenvalues ---    0.18282   0.21961   0.29715   0.30904   0.31274
     Eigenvalues ---    0.31604   0.31775   0.32326   0.32375   0.32476
     Eigenvalues ---    0.33011   0.33285   0.38657   0.458911000.00000
     Eigenvalues --- 1000.000001000.000001000.000001000.000001000.00000
     Eigenvalues --- 1000.000001000.000001000.000001000.000001000.00000
     Eigenvalues --- 1000.000001000.000001000.000001000.000001000.00000
     Eigenvalues --- 1000.000001000.000001000.000001000.000001000.00000
     Eigenvalues --- 1000.000001000.000001000.000001000.000001000.00000
     Eigenvalues --- 1000.00000
 RFO step:  Lambda=-7.10850533D-03 EMin= 2.30000000D-03
 Linear search not attempted -- first point.
 Maximum step size (   0.300) exceeded in Quadratic search.
    -- Step size scaled by   0.349
 Iteration  1 RMS(Cart)=  0.09428734 RMS(Int)=  0.01426758
 Iteration  2 RMS(Cart)=  0.05511596 RMS(Int)=  0.00173101
 Iteration  3 RMS(Cart)=  0.00219641 RMS(Int)=  0.00066201
 Iteration  4 RMS(Cart)=  0.00000181 RMS(Int)=  0.00066201
 Iteration  5 RMS(Cart)=  0.00000000 RMS(Int)=  0.00066201
 Iteration  1 RMS(Cart)=  0.00000168 RMS(Int)=  0.00000001
 Iteration  2 RMS(Cart)=  0.00000000 RMS(Int)=  0.00000001
 Variable       Old X    -DE/DX   Delta X   Delta X   Delta X     New X
                                 (Linear)    (Quad)   (Total)
    R1        2.64254   0.00053   0.00000   0.00040   0.00040   2.64294
    R2        2.11575   0.00020   0.00000   0.00022   0.00022   2.11597
    R3        2.12896   0.00003   0.00000   0.00003   0.00003   2.12899
    R4        2.12194   0.00024   0.00000   0.00026   0.00026   2.12220
    R5        2.23095   0.00329   0.00000   0.00000   0.00000   2.23095
    R6        2.88535   0.00001   0.00000   0.00001   0.00001   2.88536
    R7        2.11258   0.00021   0.00000   0.00022   0.00022   2.11280
    R8        2.10162   0.00032   0.00000   0.00033   0.00033   2.10196
    R9        2.10251   0.00023   0.00000   0.00024   0.00024   2.10276
   R10        2.73420  -0.00077   0.00000  -0.00068  -0.00068   2.73352
   R11        2.70773   0.00451   0.00000   0.00000   0.00000   2.70773
   R12        2.09982   0.00027   0.00000   0.00029   0.00029   2.10011
   R13        3.86118   0.01194   0.00000   0.00000   0.00000   3.86118
   R14        2.08554   0.00013   0.00000   0.00013   0.00013   2.08568
   R15        2.09033   0.00018   0.00000   0.00019   0.00019   2.09052
    A1        1.93696   0.00009   0.00000   0.00006   0.00006   1.93702
    A2        1.99912   0.00016   0.00000   0.00038   0.00038   1.99950
    A3        1.98341  -0.00005   0.00000  -0.00005  -0.00005   1.98336
    A4        1.83619  -0.00025   0.00000  -0.00063  -0.00063   1.83555
    A5        1.85109  -0.00012   0.00000  -0.00034  -0.00034   1.85075
    A6        1.84476   0.00014   0.00000   0.00050   0.00050   1.84525
    A7        1.87867  -0.00035   0.00000  -0.00073  -0.00073   1.87794
    A8        2.00322   0.00024   0.00000   0.00060   0.00059   2.00382
    A9        1.95031   0.00004   0.00000  -0.00008  -0.00008   1.95023
   A10        1.94054  -0.00012   0.00000  -0.00017  -0.00017   1.94037
   A11        1.85805  -0.00020   0.00000  -0.00056  -0.00056   1.85750
   A12        1.85165   0.00003   0.00000   0.00036   0.00036   1.85201
   A13        1.85044  -0.00002   0.00000  -0.00020  -0.00020   1.85025
   A14        2.03841   0.00057   0.00000   0.00083   0.00151   2.03992
   A15        1.77644  -0.00019   0.00000  -0.00096  -0.00108   1.77536
   A16        1.97516  -0.00007   0.00000   0.00078  -0.00095   1.97421
   A17        2.00576  -0.00058   0.00000  -0.00248  -0.00264   2.00313
   A18        1.95576  -0.00020   0.00000   0.00020   0.00120   1.95696
   A19        1.67258   0.00039   0.00000   0.00144   0.00150   1.67408
   A20        2.04017  -0.00071   0.00000  -0.00102  -0.00102   2.03914
   A21        2.04328  -0.00003   0.00000  -0.00003  -0.00003   2.04325
   A22        2.03768   0.00004   0.00000  -0.00012  -0.00012   2.03755
   A23        1.68065   0.00051   0.00000   0.00121   0.00120   1.68185
   A24        1.66685   0.00029   0.00000   0.00030   0.00030   1.66715
   A25        1.93104  -0.00002   0.00000  -0.00011  -0.00011   1.93093
   A26        3.15322   0.00805   0.00000   0.29918   0.29935   3.45258
   A27        3.15491   0.00061   0.00000   0.02146   0.02154   3.17645
    D1       -3.05071   0.00049   0.00000   0.00719   0.00719  -3.04353
    D2        1.15658   0.00064   0.00000   0.00770   0.00770   1.16429
    D3       -0.96637   0.00037   0.00000   0.00676   0.00676  -0.95960
    D4       -0.88964  -0.00095   0.00000  -0.03199  -0.02889  -0.91853
    D5        1.32834  -0.00009   0.00000  -0.00907  -0.00857   1.31977
    D6       -2.89865  -0.00002   0.00000   0.00145  -0.00216  -2.90080
    D7        1.18610   0.00034   0.00000   0.00311   0.00320   1.18930
    D8       -2.89826  -0.00020   0.00000  -0.00029  -0.00008  -2.89834
    D9       -1.12389   0.00013   0.00000   0.00110   0.00081  -1.12309
   D10       -2.97939   0.00028   0.00000   0.00275   0.00284  -2.97655
   D11       -0.78056  -0.00026   0.00000  -0.00066  -0.00044  -0.78101
   D12        0.99380   0.00008   0.00000   0.00074   0.00044   0.99425
   D13       -0.91558   0.00021   0.00000   0.00234   0.00243  -0.91316
   D14        1.28324  -0.00033   0.00000  -0.00107  -0.00086   1.28239
   D15        3.05761   0.00000   0.00000   0.00033   0.00003   3.05764
   D16        1.92212  -0.00051   0.00000  -0.00602  -0.00564   1.91647
   D17       -2.38174  -0.00038   0.00000  -0.00519  -0.00482  -2.38656
   D18       -0.03423  -0.00040   0.00000  -0.00556  -0.00519  -0.03942
   D19       -0.15719  -0.00022   0.00000  -0.00329  -0.00316  -0.16035
   D20        1.82214  -0.00009   0.00000  -0.00246  -0.00234   1.81980
   D21       -2.11353  -0.00011   0.00000  -0.00283  -0.00271  -2.11624
   D22       -2.04229  -0.00025   0.00000  -0.00377  -0.00425  -2.04654
   D23       -0.06296  -0.00012   0.00000  -0.00294  -0.00343  -0.06639
   D24        2.28455  -0.00014   0.00000  -0.00331  -0.00380   2.28076
         Item               Value     Threshold  Converged?
 Maximum Force            0.008050     0.002500     NO 
 RMS     Force            0.001065     0.001667     YES
 Maximum Displacement     0.525686     0.010000     NO 
 RMS     Displacement     0.147621     0.006667     NO 
 Predicted change in Energy=-2.372674D-03
 GradGradGradGradGradGradGradGradGradGradGradGradGradGradGradGradGradGrad

                          Input orientation:                          
 ---------------------------------------------------------------------
 Center     Atomic      Atomic             Coordinates (Angstroms)
 Number     Number       Type             X           Y           Z
 ---------------------------------------------------------------------
      1          6           0        1.974203   -1.385179   -0.431270
      2          8           0        1.681707   -0.807041    0.808180
      3          1           0        2.722821   -2.210657   -0.322008
      4          1           0        2.423564   -0.677377   -1.183830
      5          1           0        1.081351   -1.840987   -0.937456
      6          6           0        0.930872    1.940894   -0.539540
      7          6           0        0.095735    1.208039    0.507740
      8          6           0       -1.316590    1.060809    0.231939
      9         17           0       -1.979978   -0.822093   -0.203345
     10          1           0        0.708279    3.032180   -0.637385
     11          1           0        2.019961    1.859698   -0.328536
     12          1           0        0.780833    1.503173   -1.551497
     13          1           0        0.813106   -0.025117    0.641230
     14          1           0        0.285117    1.563466    1.543528
     15          1           0       -2.013485    1.245903    1.067533
     16          1           0       -1.692871    1.524189   -0.699453
 ---------------------------------------------------------------------
                    Distance matrix (angstroms):
                    1          2          3          4          5
     1  C    0.000000
     2  O    1.398583   0.000000
     3  H    1.119724   2.081197   0.000000
     4  H    1.126612   2.129617   1.784163   0.000000
     5  H    1.123017   2.115825   1.791607   1.793383   0.000000
     6  C    3.487553   3.151388   4.527006   3.081977   3.805733
     7  C    3.336939   2.581882   4.390620   3.440202   3.515194
     8  C    4.153555   3.579203   5.227445   4.360555   3.941830
     9  Cl   4.000570   3.798861   4.904947   4.513698   3.308897
    10  H    4.599794   4.216258   5.625405   4.123302   4.896629
    11  H    3.246826   2.918567   4.130599   2.707614   3.866114
    12  H    3.319882   3.422972   4.367550   2.754731   3.413321
    13  H    2.085227   1.180570   3.058010   2.519893   2.421072
    14  H    3.930312   2.847895   4.864836   4.127083   4.287140
    15  H    5.007061   4.235125   6.025879   5.334327   4.809042
    16  H    4.688685   4.369824   5.795677   4.693245   4.367764
                    6          7          8          9         10
     6  C    0.000000
     7  C    1.526868   0.000000
     8  C    2.533933   1.446515   0.000000
     9  Cl   4.027428   2.989258   2.043251   0.000000
    10  H    1.118045   2.239199   2.956708   4.719167   0.000000
    11  H    1.112308   2.196966   3.476338   4.817384   1.786228
    12  H    1.112730   2.190188   2.788461   3.853110   1.782898
    13  H    2.296363   1.432869   2.425357   3.024863   3.315555
    14  H    2.213283   1.111328   2.130351   3.724663   2.663187
    15  H    3.425629   2.182570   1.103694   2.427522   3.674987
    16  H    2.661436   2.180912   1.106255   2.415283   2.836090
                   11         12         13         14         15
    11  H    0.000000
    12  H    1.777127   0.000000
    13  H    2.439154   2.672969   0.000000
    14  H    2.569447   3.135052   1.901713   0.000000
    15  H    4.312127   3.838453   3.128392   2.368752   0.000000
    16  H    3.746367   2.616416   3.236927   2.990810   1.817272
                   16
    16  H    0.000000
 Stoichiometry    C4H10ClO(1-)
 Framework group  C1[X(C4H10ClO)]
 Deg. of freedom    42
 Full point group                 C1      NOp   1
 Largest Abelian subgroup         C1      NOp   1
 Largest concise Abelian subgroup C1      NOp   1
                         Standard orientation:                         
 ---------------------------------------------------------------------
 Center     Atomic      Atomic             Coordinates (Angstroms)
 Number     Number       Type             X           Y           Z
 ---------------------------------------------------------------------
      1          6           0        2.103179   -1.311114   -0.410634
      2          8           0        1.784672   -0.731881    0.821875
      3          1           0        2.900231   -2.088878   -0.294131
      4          1           0        2.504891   -0.589845   -1.177220
      5          1           0        1.235825   -1.827037   -0.903268
      6          6           0        0.863266    1.945049   -0.562433
      7          6           0        0.079823    1.180525    0.502014
      8          6           0       -1.322965    0.945398    0.238756
      9         17           0       -1.875965   -0.980189   -0.162720
     10          1           0        0.575566    3.019520   -0.675419
     11          1           0        1.956569    1.931975   -0.358109
     12          1           0        0.733121    1.483290   -1.566430
     13          1           0        0.870077   -0.005619    0.649232
     14          1           0        0.254285    1.562857    1.530817
     15          1           0       -2.024333    1.101958    1.076439
     16          1           0       -1.732017    1.370882   -0.696893
 ---------------------------------------------------------------------
 Rotational constants (GHZ):      2.6014539      1.5940709      1.1237812
 Standard basis: def2SVP (5D, 7F)
 There are   144 symmetry adapted cartesian basis functions of A   symmetry.
 There are   138 symmetry adapted basis functions of A   symmetry.
   138 basis functions,   232 primitive gaussians,   144 cartesian basis functions
    30 alpha electrons       30 beta electrons
       nuclear repulsion energy       292.0834881919 Hartrees.
 NAtoms=   16 NActive=   16 NUniq=   16 SFac= 1.00D+00 NAtFMM=   60 NAOKFM=F Big=F
 Integral buffers will be    131072 words long.
 Raffenetti 2 integral format.
 Two-electron integral symmetry is turned on.
 ------------------------------------------------------------------------------
 Polarizable Continuum Model (PCM)
 =================================
 Model                : PCM (using non-symmetric T matrix).
 Atomic radii         : SMD-Coulomb.
 Polarization charges : Total charges.
 Charge compensation  : None.
 Solution method      : On-the-fly selection.
 Cavity type          : VdW (van der Waals Surface) (Alpha=1.000).
 Cavity algorithm     : GePol (No added spheres)
                        Default sphere list used, NSphG=   16.
                        Lebedev-Laikov grids with approx.  5.0 points / Ang**2.
                        Smoothing algorithm: Karplus/York (Gamma=1.0000).
                        Polarization charges: spherical gaussians, with
                                              point-specific exponents (IZeta= 3).
                        Self-potential: point-specific (ISelfS= 7).
                        Self-field    : sphere-specific E.n sum rule (ISelfD= 2).
 1st derivatives      : Analytical E(r).r(x)/FMM algorithm (CHGder, D1EAlg=3).
                        Cavity 1st derivative terms included.
 Solvent              : Water, Eps=  78.355300 Eps(inf)=   1.777849
 ------------------------------------------------------------------------------
 Spheres list:
 ISph  on   Nord     Re0    Alpha      Xe            Ye            Ze
    1   C      1    1.8500  1.000      2.103179     -1.311114     -0.410634
    2   O      2    1.5200  1.000      1.784672     -0.731881      0.821875
    3   H      3    1.2000  1.000      2.900231     -2.088878     -0.294131
    4   H      4    1.2000  1.000      2.504891     -0.589845     -1.177220
    5   H      5    1.2000  1.000      1.235825     -1.827037     -0.903268
    6   C      6    1.8500  1.000      0.863266      1.945049     -0.562433
    7   C      7    1.8500  1.000      0.079823      1.180525      0.502014
    8   C      8    1.8500  1.000     -1.322965      0.945398      0.238756
    9  Cl      9    2.3800  1.000     -1.875965     -0.980189     -0.162720
   10   H     10    1.2000  1.000      0.575566      3.019520     -0.675419
   11   H     11    1.2000  1.000      1.956569      1.931975     -0.358109
   12   H     12    1.2000  1.000      0.733121      1.483290     -1.566430
   13   H     13    1.2000  1.000      0.870077     -0.005619      0.649232
   14   H     14    1.2000  1.000      0.254285      1.562857      1.530817
   15   H     15    1.2000  1.000     -2.024333      1.101958      1.076439
   16   H     16    1.2000  1.000     -1.732017      1.370882     -0.696893
 ------------------------------------------------------------------------------
 ------------------------------------------------------------------------------
 Atomic radii for non-electrostatic terms: SMD-CDS.
 ------------------------------------------------------------------------------
 Nuclear repulsion after PCM non-electrostatic terms =      292.0895135906 Hartrees.
 One-electron integrals computed using PRISM.
   1 Symmetry operations used in ECPInt.
 ECPInt:  NShTT=    2346 NPrTT=    8374 LenC2=    2326 LenP2D=    6730.
 LDataN:  DoStor=T MaxTD1= 4 Len=   56
 NBasis=   138 RedAO= T EigKep=  2.38D-03  NBF=   138
 NBsUse=   138 1.00D-06 EigRej= -1.00D+00 NBFU=   138
 Initial guess from the checkpoint file:  "/home/aleph/fd/shug5449/autodE/examples/gaussian_elimination/ts_confs/Gau-250755.chk"
 B after Tr=     0.000000    0.000000    0.000000
         Rot=    0.999671    0.004947   -0.002698   -0.025038 Ang=   2.94 deg.
 ExpMin= 1.22D-01 ExpMax= 1.04D+04 ExpMxC= 1.57D+03 IAcc=1 IRadAn=         1 AccDes= 0.00D+00
 Harris functional with IExCor= 1009 and IRadAn=       1 diagonalized for initial guess.
 HarFok:  IExCor= 1009 AccDes= 0.00D+00 IRadAn=         1 IDoV= 1 UseB2=F ITyADJ=14
 ICtDFT=  3500011 ScaDFX=  1.000000  1.000000  1.000000  1.000000
 FoFCou: FMM=F IPFlag=           0 FMFlag=      100000 FMFlg1=           0
         NFxFlg=           0 DoJE=T BraDBF=F KetDBF=T FulRan=T
         wScrn=  0.000000 ICntrl=     500 IOpCl=  0 I1Cent=   200000004 NGrid=           0
         NMat0=    1 NMatS0=      1 NMatT0=    0 NMatD0=    1 NMtDS0=    0 NMtDT0=    0
 Petite list used in FoFCou.
 Keep J ints in memory in canonical form, NReq=51218453.
 Requested convergence on RMS density matrix=1.00D-08 within 128 cycles.
 Requested convergence on MAX density matrix=1.00D-06.
 Requested convergence on             energy=1.00D-06.
 No special actions if energy rises.
 Inv3:  Mode=1 IEnd=     5589675.
 Iteration    1 A*A^-1 deviation from unit magnitude is 5.77D-15 for     90.
 Iteration    1 A*A^-1 deviation from orthogonality  is 4.84D-15 for    629     29.
 Iteration    1 A^-1*A deviation from unit magnitude is 6.77D-15 for   1105.
 Iteration    1 A^-1*A deviation from orthogonality  is 2.67D-10 for    819    770.
 Iteration    2 A*A^-1 deviation from unit magnitude is 8.66D-15 for    130.
 Iteration    2 A*A^-1 deviation from orthogonality  is 9.99D-15 for    861    122.
 Iteration    2 A^-1*A deviation from unit magnitude is 1.67D-15 for   1028.
 Iteration    2 A^-1*A deviation from orthogonality  is 5.10D-16 for   1164    264.
 Error on total polarization charges =  0.03691
 SCF Done:  E(RPBE-PBE) =  -693.102931552     A.U. after   11 cycles
            NFock= 11  Conv=0.49D-08     -V/T= 2.0050
 SMD-CDS (non-electrostatic) energy       (kcal/mol) =       3.78
 (included in total energy above)
   1 Symmetry operations used in ECPInt.
 ECPInt:  NShTT=    2346 NPrTT=    8374 LenC2=    2326 LenP2D=    6730.
 LDataN:  DoStor=T MaxTD1= 5 Len=  102
 D1PCM: PCM CHGder 1st derivatives, ID1Alg=3 FixD1E=F DoIter=F DoCFld=F I1PDM=0.
 Calling FoFJK, ICntrl=      2527 FMM=F ISym2X=0 I1Cent= 0 IOpClX= 0 NMat=1 NMatS=1 NMatT=0.
 ***** Axes restored to original set *****
 -------------------------------------------------------------------
 Center     Atomic                   Forces (Hartrees/Bohr)
 Number     Number              X              Y              Z
 -------------------------------------------------------------------
      1        6           0.000278078   -0.001376805   -0.000133314
      2        8           0.001864480   -0.004786771    0.000493622
      3        1          -0.000414218   -0.000492473   -0.000447956
      4        1          -0.000295228   -0.000343862    0.000270005
      5        1          -0.000168172   -0.000100486   -0.000929700
      6        6          -0.000127109   -0.000529312   -0.000060279
      7        6          -0.005519858    0.003970904   -0.001719897
      8        6           0.003781692    0.011502855    0.002542988
      9       17          -0.002334841   -0.011719018   -0.002822869
     10        1          -0.000046076   -0.000069323    0.000317876
     11        1          -0.000116240   -0.000456583    0.000509105
     12        1          -0.000145564    0.000017175   -0.000089418
     13        1           0.003714073    0.004396961    0.001853873
     14        1           0.000008917   -0.000206737   -0.000015008
     15        1          -0.000031091   -0.000105290    0.000184421
     16        1          -0.000448845    0.000298765    0.000046551
 -------------------------------------------------------------------
 Cartesian Forces:  Max     0.011719018 RMS     0.002962680

 GradGradGradGradGradGradGradGradGradGradGradGradGradGradGradGradGradGrad
 Berny optimization.
 Using GEDIIS/GDIIS optimizer.
 FormGI is forming the generalized inverse of G from B-inverse, IUseBI=4.
 Internal  Forces:  Max     0.012160313 RMS     0.002489080
 Search for a local minimum.
 Step number   2 out of a maximum of   76
 All quantities printed in internal units (Hartrees-Bohrs-Radians)
 Mixed Optimization -- RFO/linear search
 Update second derivatives using D2CorX and points    2    1
 DE=  3.72D-04 DEPred=-2.37D-03 R=-1.57D-01
 Trust test=-1.57D-01 RLast= 3.02D-01 DXMaxT set to 1.50D-01
 ITU= -1  0
 Use linear search instead of GDIIS.
 Energy rises -- skip Quadratic/GDIIS search.
 Quartic linear search produced a step of -0.54852.
 Iteration  1 RMS(Cart)=  0.07840308 RMS(Int)=  0.00351489
 Iteration  2 RMS(Cart)=  0.00513097 RMS(Int)=  0.00016448
 Iteration  3 RMS(Cart)=  0.00001389 RMS(Int)=  0.00016423
 Iteration  4 RMS(Cart)=  0.00000000 RMS(Int)=  0.00016423
 Iteration  1 RMS(Cart)=  0.00000029 RMS(Int)=  0.00000000
 Variable       Old X    -DE/DX   Delta X   Delta X   Delta X     New X
                                 (Linear)    (Quad)   (Total)
    R1        2.64294   0.00190  -0.00022   0.00000  -0.00022   2.64272
    R2        2.11597   0.00004  -0.00012   0.00000  -0.00012   2.11585
    R3        2.12899  -0.00052  -0.00002   0.00000  -0.00002   2.12897
    R4        2.12220   0.00059  -0.00014   0.00000  -0.00014   2.12205
    R5        2.23095   0.00550   0.00000   0.00000   0.00000   2.23095
    R6        2.88536  -0.00121  -0.00001   0.00000  -0.00001   2.88536
    R7        2.11280  -0.00009  -0.00012   0.00000  -0.00012   2.11268
    R8        2.10196   0.00002  -0.00018   0.00000  -0.00018   2.10177
    R9        2.10276   0.00009  -0.00013   0.00000  -0.00013   2.10262
   R10        2.73352  -0.00091   0.00037   0.00000   0.00037   2.73389
   R11        2.70773   0.00497   0.00000   0.00000   0.00000   2.70773
   R12        2.10011  -0.00008  -0.00016   0.00000  -0.00016   2.09995
   R13        3.86118   0.01216   0.00000   0.00000   0.00000   3.86118
   R14        2.08568   0.00013  -0.00007   0.00000  -0.00007   2.08561
   R15        2.09052   0.00025  -0.00010   0.00000  -0.00010   2.09041
    A1        1.93702   0.00073  -0.00003   0.00000  -0.00003   1.93699
    A2        1.99950  -0.00025  -0.00021   0.00000  -0.00021   1.99929
    A3        1.98336   0.00066   0.00003   0.00000   0.00003   1.98338
    A4        1.83555   0.00000   0.00035   0.00000   0.00035   1.83590
    A5        1.85075  -0.00066   0.00019   0.00000   0.00019   1.85094
    A6        1.84525  -0.00061  -0.00027   0.00000  -0.00027   1.84498
    A7        1.87794   0.00098   0.00040   0.00000   0.00040   1.87834
    A8        2.00382  -0.00019  -0.00033   0.00000  -0.00033   2.00349
    A9        1.95023  -0.00096   0.00004   0.00000   0.00004   1.95027
   A10        1.94037   0.00020   0.00009   0.00000   0.00009   1.94047
   A11        1.85750   0.00053   0.00031   0.00000   0.00031   1.85780
   A12        1.85201   0.00014  -0.00020   0.00000  -0.00020   1.85182
   A13        1.85025   0.00038   0.00011   0.00000   0.00011   1.85035
   A14        2.03992   0.00118  -0.00083   0.00000  -0.00099   2.03893
   A15        1.77536   0.00082   0.00060   0.00000   0.00064   1.77600
   A16        1.97421  -0.00076   0.00052   0.00000   0.00095   1.97516
   A17        2.00313  -0.00236   0.00145   0.00000   0.00147   2.00459
   A18        1.95696   0.00042  -0.00066   0.00000  -0.00092   1.95605
   A19        1.67408   0.00037  -0.00082   0.00000  -0.00083   1.67325
   A20        2.03914  -0.00446   0.00056   0.00000   0.00056   2.03970
   A21        2.04325   0.00058   0.00002   0.00000   0.00002   2.04327
   A22        2.03755   0.00102   0.00007   0.00000   0.00007   2.03762
   A23        1.68185   0.00197  -0.00066   0.00000  -0.00066   1.68119
   A24        1.66715   0.00144  -0.00016   0.00000  -0.00017   1.66699
   A25        1.93093  -0.00060   0.00006   0.00000   0.00006   1.93099
   A26        3.45258  -0.01209  -0.16420   0.00000  -0.16427   3.28831
   A27        3.17645  -0.00102  -0.01181   0.00000  -0.01184   3.16461
    D1       -3.04353   0.00063  -0.00394   0.00000  -0.00394  -3.04747
    D2        1.16429   0.00027  -0.00423   0.00000  -0.00423   1.16006
    D3       -0.95960   0.00076  -0.00371   0.00000  -0.00371  -0.96331
    D4       -0.91853  -0.00113   0.01585   0.00000   0.01510  -0.90343
    D5        1.31977  -0.00100   0.00470   0.00000   0.00455   1.32432
    D6       -2.90080  -0.00118   0.00118   0.00000   0.00208  -2.89872
    D7        1.18930   0.00112  -0.00176   0.00000  -0.00178   1.18752
    D8       -2.89834  -0.00053   0.00004   0.00000  -0.00002  -2.89836
    D9       -1.12309   0.00005  -0.00044   0.00000  -0.00036  -1.12345
   D10       -2.97655   0.00094  -0.00156   0.00000  -0.00158  -2.97813
   D11       -0.78101  -0.00072   0.00024   0.00000   0.00018  -0.78082
   D12        0.99425  -0.00013  -0.00024   0.00000  -0.00016   0.99409
   D13       -0.91316   0.00092  -0.00133   0.00000  -0.00135  -0.91451
   D14        1.28239  -0.00073   0.00047   0.00000   0.00041   1.28280
   D15        3.05764  -0.00014  -0.00002   0.00000   0.00007   3.05771
   D16        1.91647  -0.00051   0.00310   0.00000   0.00301   1.91948
   D17       -2.38656  -0.00083   0.00264   0.00000   0.00256  -2.38400
   D18       -0.03942   0.00013   0.00285   0.00000   0.00276  -0.03665
   D19       -0.16035  -0.00063   0.00174   0.00000   0.00170  -0.15865
   D20        1.81980  -0.00095   0.00128   0.00000   0.00125   1.82105
   D21       -2.11624   0.00000   0.00149   0.00000   0.00145  -2.11479
   D22       -2.04654   0.00001   0.00233   0.00000   0.00245  -2.04409
   D23       -0.06639  -0.00031   0.00188   0.00000   0.00200  -0.06439
   D24        2.28076   0.00065   0.00208   0.00000   0.00220   2.28296
         Item               Value     Threshold  Converged?
 Maximum Force            0.012094     0.002500     NO 
 RMS     Force            0.001809     0.001667     NO 
 Maximum Displacement     0.277418     0.010000     NO 
 RMS     Displacement     0.080793     0.006667     NO 
 Predicted change in Energy=-6.693413D-04
 GradGradGradGradGradGradGradGradGradGradGradGradGradGradGradGradGradGrad

                          Input orientation:                          
 ---------------------------------------------------------------------
 Center     Atomic      Atomic             Coordinates (Angstroms)
 Number     Number       Type             X           Y           Z
 ---------------------------------------------------------------------
      1          6           0        1.924139   -1.399169   -0.431964
      2          8           0        1.656747   -0.847886    0.825136
      3          1           0        2.576017   -2.305042   -0.342038
      4          1           0        2.469948   -0.711652   -1.138114
      5          1           0        1.003871   -1.732305   -0.982533
      6          6           0        0.929911    1.982903   -0.541386
      7          6           0        0.117616    1.231846    0.510949
      8          6           0       -1.284839    1.021105    0.225141
      9         17           0       -1.866716   -0.895036   -0.180686
     10          1           0        0.660707    3.061537   -0.659541
     11          1           0        2.019390    1.952764   -0.319712
     12          1           0        0.808370    1.522572   -1.547037
     13          1           0        0.886092    0.033302    0.672353
     14          1           0        0.281131    1.611472    1.542459
     15          1           0       -1.996916    1.192122    1.050825
     16          1           0       -1.670846    1.451369   -0.718019
 ---------------------------------------------------------------------
                    Distance matrix (angstroms):
                    1          2          3          4          5
     1  C    0.000000
     2  O    1.398467   0.000000
     3  H    1.119660   2.081023   0.000000
     4  H    1.126603   2.129368   1.784343   0.000000
     5  H    1.122942   2.115682   1.791621   1.793131   0.000000
     6  C    3.526879   3.226305   4.597378   3.160447   3.742039
     7  C    3.327890   2.606324   4.391002   3.468438   3.435423
     8  C    4.072721   3.536390   5.127491   4.354232   3.778616
     9  Cl   3.832476   3.664517   4.663907   4.444879   3.095844
    10  H    4.641762   4.298831   5.706960   4.211810   4.816950
    11  H    3.355164   3.047266   4.294094   2.823455   3.879477
    12  H    3.320376   3.459194   4.384886   2.814216   3.309246
    13  H    2.085433   1.180570   3.058217   2.518203   2.422785
    14  H    3.957497   2.907802   4.914968   4.168128   4.251915
    15  H    4.928298   4.190683   5.923001   5.326226   4.657418
    16  H    4.596881   4.329061   5.682238   4.690555   4.166516
                    6          7          8          9         10
     6  C    0.000000
     7  C    1.526866   0.000000
     8  C    2.533325   1.446713   0.000000
     9  Cl   4.029114   2.989910   2.043251   0.000000
    10  H    1.117981   2.238920   2.954856   4.719284   0.000000
    11  H    1.112211   2.196922   3.476030   4.819866   1.786304
    12  H    1.112660   2.190199   2.788119   3.855882   1.782658
    13  H    2.296960   1.432869   2.426663   3.027778   3.315862
    14  H    2.213885   1.111245   2.129818   3.723582   2.663751
    15  H    3.424439   2.182726   1.103655   2.426891   3.671924
    16  H    2.660388   2.181089   1.106200   2.415100   2.834114
                   11         12         13         14         15
    11  H    0.000000
    12  H    1.777066   0.000000
    13  H    2.439854   2.673884   0.000000
    14  H    2.570156   3.135422   1.900968   0.000000
    15  H    4.311341   3.837671   3.130150   2.367923   0.000000
    16  H    3.745382   2.615120   3.237588   2.990921   1.817234
                   16
    16  H    0.000000
 Stoichiometry    C4H10ClO(1-)
 Framework group  C1[X(C4H10ClO)]
 Deg. of freedom    42
 Full point group                 C1      NOp   1
 Largest Abelian subgroup         C1      NOp   1
 Largest concise Abelian subgroup C1      NOp   1
                         Standard orientation:                         
 ---------------------------------------------------------------------
 Center     Atomic      Atomic             Coordinates (Angstroms)
 Number     Number       Type             X           Y           Z
 ---------------------------------------------------------------------
      1          6           0        1.990533   -1.356217   -0.423375
      2          8           0        1.709123   -0.805607    0.830957
      3          1           0        2.671956   -2.239687   -0.329658
      4          1           0        2.511398   -0.655951   -1.135809
      5          1           0        1.079962   -1.722905   -0.968718
      6          6           0        0.885922    1.990758   -0.551695
      7          6           0        0.101857    1.220584    0.508208
      8          6           0       -1.293830    0.962231    0.228402
      9         17           0       -1.813988   -0.974560   -0.162939
     10          1           0        0.581233    3.059209   -0.676031
     11          1           0        1.976481    1.997711   -0.333413
     12          1           0        0.776408    1.520014   -1.553901
     13          1           0        0.909603    0.048893    0.674936
     14          1           0        0.256042    1.612211    1.536663
     15          1           0       -2.008577    1.115384    1.055285
     16          1           0       -1.696595    1.373361   -0.716283
 ---------------------------------------------------------------------
 Rotational constants (GHZ):      2.4990718      1.6977774      1.1544251
 Standard basis: def2SVP (5D, 7F)
 There are   144 symmetry adapted cartesian basis functions of A   symmetry.
 There are   138 symmetry adapted basis functions of A   symmetry.
   138 basis functions,   232 primitive gaussians,   144 cartesian basis functions
    30 alpha electrons       30 beta electrons
       nuclear repulsion energy       293.4367863049 Hartrees.
 NAtoms=   16 NActive=   16 NUniq=   16 SFac= 1.00D+00 NAtFMM=   60 NAOKFM=F Big=F
 Integral buffers will be    131072 words long.
 Raffenetti 2 integral format.
 Two-electron integral symmetry is turned on.
 ------------------------------------------------------------------------------
 Polarizable Continuum Model (PCM)
 =================================
 Model                : PCM (using non-symmetric T matrix).
 Atomic radii         : SMD-Coulomb.
 Polarization charges : Total charges.
 Charge compensation  : None.
 Solution method      : On-the-fly selection.
 Cavity type          : VdW (van der Waals Surface) (Alpha=1.000).
 Cavity algorithm     : GePol (No added spheres)
                        Default sphere list used, NSphG=   16.
                        Lebedev-Laikov grids with approx.  5.0 points / Ang**2.
                        Smoothing algorithm: Karplus/York (Gamma=1.0000).
                        Polarization charges: spherical gaussians, with
                                              point-specific exponents (IZeta= 3).
                        Self-potential: point-specific (ISelfS= 7).
                        Self-field    : sphere-specific E.n sum rule (ISelfD= 2).
 1st derivatives      : Analytical E(r).r(x)/FMM algorithm (CHGder, D1EAlg=3).
                        Cavity 1st derivative terms included.
 Solvent              : Water, Eps=  78.355300 Eps(inf)=   1.777849
 ------------------------------------------------------------------------------
 Spheres list:
 ISph  on   Nord     Re0    Alpha      Xe            Ye            Ze
    1   C      1    1.8500  1.000      1.990533     -1.356217     -0.423375
    2   O      2    1.5200  1.000      1.709123     -0.805607      0.830957
    3   H      3    1.2000  1.000      2.671956     -2.239687     -0.329658
    4   H      4    1.2000  1.000      2.511398     -0.655951     -1.135809
    5   H      5    1.2000  1.000      1.079962     -1.722905     -0.968718
    6   C      6    1.8500  1.000      0.885922      1.990758     -0.551695
    7   C      7    1.8500  1.000      0.101857      1.220584      0.508208
    8   C      8    1.8500  1.000     -1.293830      0.962231      0.228402
    9  Cl      9    2.3800  1.000     -1.813988     -0.974560     -0.162939
   10   H     10    1.2000  1.000      0.581233      3.059209     -0.676031
   11   H     11    1.2000  1.000      1.976481      1.997711     -0.333413
   12   H     12    1.2000  1.000      0.776408      1.520014     -1.553901
   13   H     13    1.2000  1.000      0.909603      0.048893      0.674936
   14   H     14    1.2000  1.000      0.256042      1.612211      1.536663
   15   H     15    1.2000  1.000     -2.008577      1.115384      1.055285
   16   H     16    1.2000  1.000     -1.696595      1.373361     -0.716283
 ------------------------------------------------------------------------------
 ------------------------------------------------------------------------------
 Atomic radii for non-electrostatic terms: SMD-CDS.
 ------------------------------------------------------------------------------
 Nuclear repulsion after PCM non-electrostatic terms =      293.4427751704 Hartrees.
 One-electron integrals computed using PRISM.
   1 Symmetry operations used in ECPInt.
 ECPInt:  NShTT=    2346 NPrTT=    8374 LenC2=    2328 LenP2D=    6743.
 LDataN:  DoStor=T MaxTD1= 4 Len=   56
 NBasis=   138 RedAO= T EigKep=  2.40D-03  NBF=   138
 NBsUse=   138 1.00D-06 EigRej= -1.00D+00 NBFU=   138
 Lowest energy guess from the checkpoint file:  "/home/aleph/fd/shug5449/autodE/examples/gaussian_elimination/ts_confs/Gau-250755.chk"
 B after Tr=     0.000000    0.000000    0.000000
         Rot=    0.999844    0.001977   -0.001465   -0.017487 Ang=   2.02 deg.
 B after Tr=     0.000000    0.000000    0.000000
         Rot=    0.999966   -0.002990    0.001204    0.007594 Ang=  -0.95 deg.
 Keep J ints in memory in canonical form, NReq=51158361.
 Requested convergence on RMS density matrix=1.00D-08 within 128 cycles.
 Requested convergence on MAX density matrix=1.00D-06.
 Requested convergence on             energy=1.00D-06.
 No special actions if energy rises.
 Inv3:  Mode=1 IEnd=     5419008.
 Iteration    1 A*A^-1 deviation from unit magnitude is 5.77D-15 for    598.
 Iteration    1 A*A^-1 deviation from orthogonality  is 5.61D-15 for    900    200.
 Iteration    1 A^-1*A deviation from unit magnitude is 5.55D-15 for    348.
 Iteration    1 A^-1*A deviation from orthogonality  is 3.24D-13 for   1018    956.
 Error on total polarization charges =  0.03701
 SCF Done:  E(RPBE-PBE) =  -693.103853211     A.U. after   10 cycles
            NFock= 10  Conv=0.18D-08     -V/T= 2.0050
 SMD-CDS (non-electrostatic) energy       (kcal/mol) =       3.76
 (included in total energy above)
   1 Symmetry operations used in ECPInt.
 ECPInt:  NShTT=    2346 NPrTT=    8374 LenC2=    2328 LenP2D=    6743.
 LDataN:  DoStor=T MaxTD1= 5 Len=  102
 D1PCM: PCM CHGder 1st derivatives, ID1Alg=3 FixD1E=F DoIter=F DoCFld=F I1PDM=0.
 Calling FoFJK, ICntrl=      2527 FMM=F ISym2X=0 I1Cent= 0 IOpClX= 0 NMat=1 NMatS=1 NMatT=0.
 ***** Axes restored to original set *****
 -------------------------------------------------------------------
 Center     Atomic                   Forces (Hartrees/Bohr)
 Number     Number              X              Y              Z
 -------------------------------------------------------------------
      1        6          -0.000097868   -0.000667239   -0.000325395
      2        8           0.003800620   -0.001162471    0.001430554
      3        1          -0.000297136   -0.000330300   -0.000262035
      4        1          -0.000190259   -0.000267139    0.000044387
      5        1          -0.000098729    0.000031506   -0.000514458
      6        6           0.000014850   -0.000524608    0.000110852
      7        6          -0.002582429    0.004484696   -0.000846251
      8        6           0.003558629    0.010882792    0.002508911
      9       17          -0.002396952   -0.011324202   -0.002823363
     10        1           0.000068838    0.000095980    0.000161336
     11        1           0.000155871   -0.000225124    0.000196301
     12        1          -0.000061694   -0.000152437   -0.000133785
     13        1          -0.001519310   -0.001432182    0.000090988
     14        1          -0.000088702    0.000293489    0.000048930
     15        1           0.000038026   -0.000060664    0.000235528
     16        1          -0.000303755    0.000357902    0.000077500
 -------------------------------------------------------------------
 Cartesian Forces:  Max     0.011324202 RMS     0.002626535

 GradGradGradGradGradGradGradGradGradGradGradGradGradGradGradGradGradGrad
 Berny optimization.
 Using GEDIIS/GDIIS optimizer.
 FormGI is forming the generalized inverse of G from B-inverse, IUseBI=4.
 Internal  Forces:  Max     0.011864182 RMS     0.001713576
 Search for a local minimum.
 Step number   3 out of a maximum of   76
 All quantities printed in internal units (Hartrees-Bohrs-Radians)
 Mixed Optimization -- En-DIIS/RFO-DIIS
 Update second derivatives using D2CorX and points    2    1    3
 ITU=  0 -1  0
 Use linear search instead of GDIIS.
     Eigenvalues ---    0.00222   0.00230   0.00410   0.01445   0.01695
     Eigenvalues ---    0.03069   0.04704   0.04993   0.05059   0.05463
     Eigenvalues ---    0.05589   0.06068   0.08331   0.09710   0.10049
     Eigenvalues ---    0.12201   0.15982   0.16000   0.16000   0.16000
     Eigenvalues ---    0.16000   0.16000   0.16000   0.16000   0.16123
     Eigenvalues ---    0.18418   0.22480   0.29752   0.30916   0.31271
     Eigenvalues ---    0.31604   0.31775   0.32323   0.32372   0.32474
     Eigenvalues ---    0.33009   0.33284   0.38627   0.459441000.00000
     Eigenvalues --- 1000.000001000.000001000.000001000.000001000.00000
     Eigenvalues --- 1000.000001000.000001000.000001000.000001000.00000
     Eigenvalues --- 1000.000001000.000001000.000001000.000001000.00000
     Eigenvalues --- 1000.000001000.000001000.000001000.000001000.00000
     Eigenvalues --- 1000.000001000.000001000.000001000.000001000.00000
     Eigenvalues --- 1000.00000
 RFO step:  Lambda=-9.20561116D-04 EMin= 2.22327591D-03
 Quartic linear search produced a step of  0.03076.
 Iteration  1 RMS(Cart)=  0.10746141 RMS(Int)=  0.01726235
 Iteration  2 RMS(Cart)=  0.04340271 RMS(Int)=  0.00100839
 Iteration  3 RMS(Cart)=  0.00144430 RMS(Int)=  0.00006419
 Iteration  4 RMS(Cart)=  0.00000150 RMS(Int)=  0.00006418
 Iteration  5 RMS(Cart)=  0.00000000 RMS(Int)=  0.00006418
 Iteration  1 RMS(Cart)=  0.00000015 RMS(Int)=  0.00000000
 Variable       Old X    -DE/DX   Delta X   Delta X   Delta X     New X
                                 (Linear)    (Quad)   (Total)
    R1        2.64272   0.00131   0.00001   0.00308   0.00309   2.64581
    R2        2.11585   0.00007   0.00000   0.00033   0.00033   2.11618
    R3        2.12897  -0.00028   0.00000  -0.00091  -0.00091   2.12806
    R4        2.12205   0.00032   0.00000   0.00116   0.00117   2.12322
    R5        2.23095   0.00385   0.00000   0.00000   0.00000   2.23095
    R6        2.88536  -0.00054   0.00000  -0.00184  -0.00184   2.88352
    R7        2.11268   0.00006   0.00000   0.00029   0.00029   2.11297
    R8        2.10177   0.00020   0.00000   0.00076   0.00077   2.10254
    R9        2.10262   0.00019   0.00000   0.00069   0.00070   2.10332
   R10        2.73389  -0.00084  -0.00001  -0.00252  -0.00252   2.73137
   R11        2.70773   0.00412   0.00000   0.00000   0.00000   2.70773
   R12        2.09995   0.00013   0.00000   0.00054   0.00054   2.10049
   R13        3.86118   0.01186   0.00000   0.00000   0.00000   3.86118
   R14        2.08561   0.00014   0.00000   0.00049   0.00049   2.08610
   R15        2.09041   0.00018   0.00000   0.00063   0.00063   2.09105
    A1        1.93699   0.00042   0.00000   0.00310   0.00310   1.94008
    A2        1.99929   0.00008   0.00001   0.00071   0.00072   2.00001
    A3        1.98338   0.00025   0.00000   0.00110   0.00110   1.98448
    A4        1.83590  -0.00002  -0.00001   0.00039   0.00038   1.83628
    A5        1.85094  -0.00039   0.00000  -0.00268  -0.00269   1.84825
    A6        1.84498  -0.00042   0.00001  -0.00314  -0.00313   1.84185
    A7        1.87834  -0.00032  -0.00001  -0.00234  -0.00235   1.87599
    A8        2.00349   0.00003   0.00001   0.00072   0.00073   2.00422
    A9        1.95027  -0.00037   0.00000  -0.00300  -0.00300   1.94727
   A10        1.94047  -0.00004   0.00000  -0.00002  -0.00002   1.94045
   A11        1.85780   0.00016  -0.00001   0.00024   0.00024   1.85804
   A12        1.85182   0.00012   0.00001   0.00201   0.00201   1.85383
   A13        1.85035   0.00015   0.00000   0.00024   0.00024   1.85059
   A14        2.03893   0.00083   0.00002   0.00515   0.00494   2.04387
   A15        1.77600   0.00014  -0.00001  -0.00281  -0.00283   1.77317
   A16        1.97516  -0.00042   0.00000   0.00184   0.00189   1.97705
   A17        2.00459  -0.00126  -0.00004  -0.01688  -0.01686   1.98773
   A18        1.95605   0.00016   0.00001   0.00683   0.00682   1.96287
   A19        1.67325   0.00035   0.00002   0.00320   0.00326   1.67651
   A20        2.03970  -0.00245  -0.00001  -0.01247  -0.01248   2.02722
   A21        2.04327   0.00022   0.00000   0.00217   0.00217   2.04544
   A22        2.03762   0.00052   0.00000   0.00210   0.00208   2.03971
   A23        1.68119   0.00132   0.00002   0.00776   0.00779   1.68898
   A24        1.66699   0.00070   0.00000  -0.00013  -0.00014   1.66685
   A25        1.93099  -0.00028   0.00000   0.00012   0.00011   1.93110
   A26        3.28831  -0.00006   0.00416   0.05280   0.05692   3.34523
   A27        3.16461   0.00030   0.00030   0.08665   0.08701   3.25162
    D1       -3.04747   0.00052   0.00010   0.02639   0.02649  -3.02098
    D2        1.16006   0.00018   0.00011   0.02311   0.02321   1.18328
    D3       -0.96331   0.00049   0.00009   0.02591   0.02601  -0.93731
[...]
 ! A4    A(3,1,4)              105.1058         -DE/DX =    0.0                 !
 ! A5    A(3,1,5)              105.6931         -DE/DX =    0.0                 !
 ! A6    A(4,1,5)              105.9403         -DE/DX =    0.0                 !
 ! A7    A(1,2,13)             108.3281         -DE/DX =    0.0                 !
 ! A8    A(7,6,10)             114.9545         -DE/DX =    0.0                 !
 ! A9    A(7,6,11)             111.4274         -DE/DX =    0.0                 !
 ! A10   A(7,6,12)             111.0362         -DE/DX =    0.0                 !
 ! A11   A(10,6,11)            106.6329         -DE/DX =    0.0                 !
 ! A12   A(10,6,12)            106.2446         -DE/DX =    0.0                 !
 ! A13   A(11,6,12)            105.9993         -DE/DX =    0.0                 !
 ! A14   A(6,7,8)              117.614          -DE/DX =    0.0                 !
 ! A15   A(6,7,13)             100.9872         -DE/DX =    0.0                 !
 ! A16   A(6,7,14)             113.6918         -DE/DX =    0.0                 !
 ! A17   A(8,7,13)             114.4245         -DE/DX =    0.0                 !
 ! A18   A(8,7,14)             112.0538         -DE/DX =    0.0                 !
 ! A19   A(13,7,14)             95.4078         -DE/DX =    0.0                 !
 ! A20   A(7,8,9)              116.0797         -DE/DX =    0.0                 !
 ! A21   A(7,8,15)             116.1877         -DE/DX =    0.0                 !
 ! A22   A(7,8,16)             117.835          -DE/DX =    0.0                 !
 ! A23   A(9,8,15)              97.4878         -DE/DX =    0.0                 !
 ! A24   A(9,8,16)              95.0532         -DE/DX =    0.0                 !
 ! A25   A(15,8,16)            110.5538         -DE/DX =    0.0                 !
 ! A26   L(2,13,7,9,-1)        189.7272         -DE/DX =    0.0                 !
 ! A27   L(2,13,7,9,-2)        183.1275         -DE/DX =    0.0                 !
 ! D1    D(3,1,2,13)          -158.8738         -DE/DX =    0.0                 !
 ! D2    D(4,1,2,13)            81.9848         -DE/DX =    0.0                 !
 ! D3    D(5,1,2,13)           -39.7545         -DE/DX =    0.0                 !
 ! D4    D(1,2,7,6)            -56.733          -DE/DX =    0.0                 !
 ! D5    D(1,2,7,8)             70.9359         -DE/DX =    0.0                 !
 ! D6    D(1,2,7,14)          -171.2776         -DE/DX =    0.0                 !
 ! D7    D(10,6,7,8)            69.5821         -DE/DX =    0.0                 !
 ! D8    D(10,6,7,13)         -165.1835         -DE/DX =    0.0                 !
 ! D9    D(10,6,7,14)          -64.2289         -DE/DX =    0.0                 !
 ! D10   D(11,6,7,8)          -168.9663         -DE/DX =    0.0                 !
 ! D11   D(11,6,7,13)          -43.732          -DE/DX =    0.0                 !
 ! D12   D(11,6,7,14)           57.2227         -DE/DX =    0.0                 !
 ! D13   D(12,6,7,8)           -51.051          -DE/DX =    0.0                 !
 ! D14   D(12,6,7,13)           74.1833         -DE/DX =    0.0                 !
 ! D15   D(12,6,7,14)          175.1379         -DE/DX =    0.0                 !
 ! D16   D(6,7,8,9)            101.5532         -DE/DX =    0.0                 !
 ! D17   D(6,7,8,15)          -144.7188         -DE/DX =    0.0                 !
 ! D18   D(6,7,8,16)           -10.1217         -DE/DX =    0.0                 !
 ! D19   D(13,7,8,9)           -16.7274         -DE/DX =    0.0                 !
 ! D20   D(13,7,8,15)           97.0006         -DE/DX =    0.0                 !
 ! D21   D(13,7,8,16)         -128.4023         -DE/DX =    0.0                 !
 ! D22   D(14,7,8,9)          -123.9244         -DE/DX =    0.0                 !
 ! D23   D(14,7,8,15)          -10.1964         -DE/DX =    0.0                 !
 ! D24   D(14,7,8,16)          124.4007         -DE/DX =    0.0                 !
 --------------------------------------------------------------------------------
 GradGradGradGradGradGradGradGradGradGradGradGradGradGradGradGradGradGrad

                          Input orientation:                          
 ---------------------------------------------------------------------
 Center     Atomic      Atomic             Coordinates (Angstroms)
 Number     Number       Type             X           Y           Z
 ---------------------------------------------------------------------
      1          6           0        1.923208   -1.402866   -0.413235
      2          8           0        1.728354   -0.763321    0.816660
      3          1           0        2.376042   -2.419736   -0.279526
      4          1           0        2.618304   -0.861951   -1.116664
      5          1           0        0.972346   -1.566994   -0.985363
      6          6           0        0.910334    1.997014   -0.558760
      7          6           0        0.114288    1.255802    0.508509
      8          6           0       -1.283695    1.001081    0.245315
      9         17           0       -1.753078   -0.892942   -0.360684
     10          1           0        0.639996    3.074452   -0.685633
     11          1           0        2.001999    1.965438   -0.346745
     12          1           0        0.777884    1.523126   -1.557119
     13          1           0        0.910717    0.076098    0.673168
     14          1           0        0.281851    1.639739    1.537567
     15          1           0       -1.959499    1.044785    1.117275
     16          1           0       -1.744425    1.500177   -0.628935
 ---------------------------------------------------------------------
                    Distance matrix (angstroms):
                    1          2          3          4          5
     1  C    0.000000
     2  O    1.399868   0.000000
     3  H    1.121142   2.089219   0.000000
     4  H    1.127191   2.130606   1.784989   0.000000
     5  H    1.121788   2.112990   1.787662   1.795411   0.000000
     6  C    3.550532   3.190671   4.661969   3.376699   3.589984
     7  C    3.345194   2.603272   4.387039   3.660077   3.306976
     8  C    4.061635   3.537229   5.036975   4.533373   3.633083
     9  Cl   3.711855   3.677406   4.403103   4.436377   2.876196
    10  H    4.665535   4.262617   5.776234   4.426597   4.662973
    11  H    3.369882   2.979012   4.401611   2.994451   3.734447
    12  H    3.343900   3.430169   4.442130   3.044624   3.148581
    13  H    2.095888   1.180570   3.046964   2.645617   2.335439
    14  H    3.969525   2.895993   4.915974   4.331560   4.138248
    15  H    4.838272   4.118237   5.722838   5.438971   4.454008
    16  H    4.682491   4.390144   5.697899   4.985071   4.112836
                    6          7          8          9         10
     6  C    0.000000
     7  C    1.523860   0.000000
     8  C    2.540115   1.445168   0.000000
     9  Cl   3.935078   2.976516   2.043251   0.000000
    10  H    1.118057   2.238265   2.977603   4.644632   0.000000
    11  H    1.112511   2.190547   3.475098   4.719230   1.788801
    12  H    1.113029   2.186010   2.787724   3.697919   1.784689
    13  H    2.282009   1.432869   2.419524   3.017232   3.302992
    14  H    2.217481   1.111057   2.128083   3.762814   2.670072
    15  H    3.457134   2.171570   1.104054   2.445763   3.758643
    16  H    2.701762   2.192786   1.107105   2.408122   2.857800
                   11         12         13         14         15
    11  H    0.000000
    12  H    1.777387   0.000000
    13  H    2.408469   2.661901   0.000000
    14  H    2.572085   3.136356   1.894104   0.000000
    15  H    4.322548   3.856742   3.061653   2.356749   0.000000
    16  H    3.785736   2.687768   3.282263   2.969681   1.817385
                   16
    16  H    0.000000
 Stoichiometry    C4H10ClO(1-)
 Framework group  C1[X(C4H10ClO)]
 Deg. of freedom    42
 Full point group                 C1      NOp   1
 Largest Abelian subgroup         C1      NOp   1
 Largest concise Abelian subgroup C1      NOp   1
                         Standard orientation:                         
 ---------------------------------------------------------------------
 Center     Atomic      Atomic             Coordinates (Angstroms)
 Number     Number       Type             X           Y           Z
 ---------------------------------------------------------------------
      1          6           0        1.975376   -1.331199   -0.387977
      2          8           0        1.798876   -0.645087    0.819387
      3          1           0        2.496928   -2.311057   -0.230424
      4          1           0        2.601269   -0.784385   -1.149431
      5          1           0        1.010815   -1.580353   -0.903681
      6          6           0        0.745390    1.990007   -0.638979
      7          6           0        0.048555    1.255235    0.499738
      8          6           0       -1.341521    0.903877    0.318780
      9         17           0       -1.719110   -1.042480   -0.175183
     10          1           0        0.402291    3.041616   -0.801624
     11          1           0        1.845652    2.034911   -0.480589
     12          1           0        0.596097    1.460613   -1.606599
     13          1           0        0.924320    0.135325    0.678482
     14          1           0        0.239944    1.698578    1.500370
     15          1           0       -1.976941    0.949336    1.220507
     16          1           0       -1.873307    1.330755   -0.553377
 ---------------------------------------------------------------------
 Rotational constants (GHZ):      2.4856045      1.7432024      1.1811242

 **********************************************************************

            Population analysis using the SCF density.

 **********************************************************************

 Orbital symmetries:
       Occupied  (A) (A) (A) (A) (A) (A) (A) (A) (A) (A) (A) (A)
                 (A) (A) (A) (A) (A) (A) (A) (A) (A) (A) (A) (A)
                 (A) (A) (A) (A) (A) (A)
       Virtual   (A) (A) (A) (A) (A) (A) (A) (A) (A) (A) (A) (A)
                 (A) (A) (A) (A) (A) (A) (A) (A) (A) (A) (A) (A)
                 (A) (A) (A) (A) (A) (A) (A) (A) (A) (A) (A) (A)
                 (A) (A) (A) (A) (A) (A) (A) (A) (A) (A) (A) (A)
                 (A) (A) (A) (A) (A) (A) (A) (A) (A) (A) (A) (A)
                 (A) (A) (A) (A) (A) (A) (A) (A) (A) (A) (A) (A)
                 (A) (A) (A) (A) (A) (A) (A) (A) (A) (A) (A) (A)
                 (A) (A) (A) (A) (A) (A) (A) (A) (A) (A) (A) (A)
                 (A) (A) (A) (A) (A) (A) (A) (A) (A) (A) (A) (A)
 The electronic state is 1-A.
 Alpha  occ. eigenvalues -- -100.55319 -18.67852  -9.90679  -9.90423  -9.87166
 Alpha  occ. eigenvalues --   -9.83488  -9.08761  -6.91681  -6.90884  -6.90833
 Alpha  occ. eigenvalues --   -0.83128  -0.68843  -0.64239  -0.56930  -0.54977
 Alpha  occ. eigenvalues --   -0.47137  -0.38819  -0.38106  -0.34708  -0.34234
 Alpha  occ. eigenvalues --   -0.33292  -0.32723  -0.29755  -0.28202  -0.26981
 Alpha  occ. eigenvalues --   -0.23434  -0.20326  -0.19990  -0.16474  -0.12205
 Alpha virt. eigenvalues --    0.00058   0.05493   0.07692   0.09863   0.09953
 Alpha virt. eigenvalues --    0.11805   0.12591   0.14087   0.14609   0.15626
 Alpha virt. eigenvalues --    0.17280   0.23218   0.27135   0.29494   0.37288
 Alpha virt. eigenvalues --    0.39937   0.40971   0.44167   0.44790   0.47015
 Alpha virt. eigenvalues --    0.50119   0.52087   0.54940   0.56495   0.58468
 Alpha virt. eigenvalues --    0.60369   0.60929   0.61766   0.62801   0.62814
 Alpha virt. eigenvalues --    0.64185   0.65277   0.65442   0.66048   0.67304
 Alpha virt. eigenvalues --    0.68923   0.69457   0.72079   0.75114   0.79858
 Alpha virt. eigenvalues --    0.80899   0.81301   0.84767   0.85339   0.90131
 Alpha virt. eigenvalues --    0.93515   0.98285   1.00237   1.02309   1.08839
 Alpha virt. eigenvalues --    1.13977   1.15918   1.20082   1.22184   1.25470
 Alpha virt. eigenvalues --    1.27060   1.31224   1.39654   1.45009   1.49189
 Alpha virt. eigenvalues --    1.49539   1.53163   1.54927   1.63472   1.65987
 Alpha virt. eigenvalues --    1.67381   1.69373   1.69506   1.72509   1.73969
 Alpha virt. eigenvalues --    1.74490   1.76869   1.78550   1.79641   1.82875
 Alpha virt. eigenvalues --    1.85134   1.87717   1.89386   1.91284   1.98330
 Alpha virt. eigenvalues --    2.00644   2.03179   2.11446   2.15627   2.20887
 Alpha virt. eigenvalues --    2.24639   2.26351   2.30112   2.32261   2.36151
 Alpha virt. eigenvalues --    2.41521   2.46569   2.53300   2.54712   2.65697
 Alpha virt. eigenvalues --    2.69156   2.70678   2.73738   2.76320   2.82585
 Alpha virt. eigenvalues --    2.86858   2.90557   2.92471   3.01997   3.04515
 Alpha virt. eigenvalues --    3.07990   3.25310   3.66715
          Condensed to atoms (all electrons):
               1          2          3          4          5          6
     1  C    4.553422   0.347833   0.372741   0.343560   0.347731  -0.000858
     2  O    0.347833   8.169080  -0.035652  -0.048464  -0.045888  -0.000868
     3  H    0.372741  -0.035652   0.761376  -0.054896  -0.041373   0.000112
     4  H    0.343560  -0.048464  -0.054896   0.833160  -0.058639   0.003251
     5  H    0.347731  -0.045888  -0.041373  -0.058639   0.801753  -0.001287
     6  C   -0.000858  -0.000868   0.000112   0.003251  -0.001287   4.635318
     7  C    0.025439  -0.136746  -0.001324  -0.005027   0.005949   0.415036
     8  C   -0.001963  -0.004336  -0.000066  -0.000449   0.004659  -0.055870
     9  Cl  -0.010546   0.002390   0.000293   0.000305   0.028192   0.000282
    10  H    0.000200  -0.000165  -0.000007  -0.000325   0.000220   0.375536
    11  H    0.000442   0.012524   0.000306  -0.004246   0.000239   0.353329
    12  H    0.000317   0.000045  -0.000041   0.002478   0.000670   0.375919
    13  H   -0.064422   0.268984   0.003479   0.013835  -0.010189   0.002124
    14  H   -0.000749   0.001667  -0.000018   0.000098   0.000210  -0.041695
    15  H   -0.000015  -0.000017  -0.000003   0.000007   0.000123   0.007695
    16  H   -0.000010  -0.000249  -0.000011   0.000022   0.000174  -0.012057
               7          8          9         10         11         12
     1  C    0.025439  -0.001963  -0.010546   0.000200   0.000442   0.000317
     2  O   -0.136746  -0.004336   0.002390  -0.000165   0.012524   0.000045
     3  H   -0.001324  -0.000066   0.000293  -0.000007   0.000306  -0.000041
     4  H   -0.005027  -0.000449   0.000305  -0.000325  -0.004246   0.002478
     5  H    0.005949   0.004659   0.028192   0.000220   0.000239   0.000670
     6  C    0.415036  -0.055870   0.000282   0.375536   0.353329   0.375919
     7  C    5.327892   0.411513  -0.075404  -0.027937  -0.021762  -0.033451
     8  C    0.411513   4.810740   0.133792  -0.008789   0.011783  -0.009879
     9  Cl  -0.075404   0.133792  17.367066  -0.000541   0.000020   0.004706
    10  H   -0.027937  -0.008789  -0.000541   0.723237  -0.033771  -0.036326
    11  H   -0.021762   0.011783   0.000020  -0.033771   0.714347  -0.025670
    12  H   -0.033451  -0.009879   0.004706  -0.036326  -0.025670   0.695081
    13  H    0.101054   0.000182   0.008439   0.001220  -0.008910  -0.002661
    14  H    0.327015  -0.019606   0.004537  -0.008042  -0.003467   0.010142
    15  H   -0.004049   0.366351  -0.025545   0.000250  -0.000590  -0.000113
    16  H   -0.032293   0.387432  -0.038602   0.005640  -0.000286   0.002564
              13         14         15         16
     1  C   -0.064422  -0.000749  -0.000015  -0.000010
     2  O    0.268984   0.001667  -0.000017  -0.000249
     3  H    0.003479  -0.000018  -0.000003  -0.000011
     4  H    0.013835   0.000098   0.000007   0.000022
     5  H   -0.010189   0.000210   0.000123   0.000174
     6  C    0.002124  -0.041695   0.007695  -0.012057
     7  C    0.101054   0.327015  -0.004049  -0.032293
     8  C    0.000182  -0.019606   0.366351   0.387432
     9  Cl   0.008439   0.004537  -0.025545  -0.038602
    10  H    0.001220  -0.008042   0.000250   0.005640
    11  H   -0.008910  -0.003467  -0.000590  -0.000286
    12  H   -0.002661   0.010142  -0.000113   0.002564
    13  H    0.523782   0.008607  -0.000796   0.001520
    14  H    0.008607   0.743491  -0.017455   0.005942
    15  H   -0.000796  -0.017455   0.656581  -0.029475
    16  H    0.001520   0.005942  -0.029475   0.669208
 Mulliken charges:
               1
     1  C    0.086879
     2  O   -0.530138
     3  H   -0.004916
     4  H   -0.024669
     5  H   -0.032545
     6  C   -0.055967
     7  C   -0.275905
     8  C   -0.025495
     9  Cl  -0.399383
    10  H    0.009600
    11  H    0.005713
    12  H    0.016218
    13  H    0.153753
    14  H   -0.010676
    15  H    0.047051
    16  H    0.040480
 Sum of Mulliken charges =  -1.00000
 Mulliken charges with hydrogens summed into heavy atoms:
               1
     1  C    0.024748
     2  O   -0.376385
     6  C   -0.024436
     7  C   -0.286581
     8  C    0.062036
     9  Cl  -0.399383
 Electronic spatial extent (au):  <R**2>=           1059.7711
 Charge=             -1.0000 electrons
 Dipole moment (field-independent basis, Debye):
    X=             -1.7487    Y=              2.7042    Z=             -1.9392  Tot=              3.7592
 Quadrupole moment (field-independent basis, Debye-Ang):
   XX=            -62.6250   YY=            -54.8832   ZZ=            -51.5073
   XY=             -2.1482   XZ=             -5.1699   YZ=              1.4057
 Traceless Quadrupole moment (field-independent basis, Debye-Ang):
   XX=             -6.2865   YY=              1.4553   ZZ=              4.8312
   XY=             -2.1482   XZ=             -5.1699   YZ=              1.4057
 Octapole moment (field-independent basis, Debye-Ang**2):
  XXX=            -12.1399  YYY=            -12.8691  ZZZ=              1.1822  XYY=             -0.5334
  XXY=              9.9964  XXZ=             -5.2926  XZZ=             -7.4542  YZZ=             -0.3590
  YYZ=              0.0484  XYZ=              4.0437
 Hexadecapole moment (field-independent basis, Debye-Ang**3):
 XXXX=           -780.5973 YYYY=           -576.3727 ZZZZ=           -157.3211 XXXY=             -0.5075
 XXXZ=            -11.8778 YYYX=              0.3078 YYYZ=              0.7807 ZZZX=              1.4757
 ZZZY=              2.5215 XXYY=           -222.2098 XXZZ=           -156.1224 YYZZ=           -123.5500
 XXYZ=              4.8457 YYXZ=              3.3352 ZZXY=              3.0617
 N-N= 2.947019996350D+02 E-N=-2.238507275570D+03  KE= 6.896662967173D+02
 1\1\GINC-COMP0802\FOpt\RPBEPBE\def2SVP\C4H10Cl1O1(1-)\SHUG5449\13-Dec-
 2019\0\\# PBEPBE/Def2SVP Opt=Loose Geom=ModRedun scrf=(smd,solvent=wat
 er)\\TS_conf5_opt_internal\\-1,1\C,1.923208329,-1.4028664144,-0.413234
 9245\O,1.728354283,-0.7633205846,0.8166602537\H,2.3760416054,-2.419736
 2747,-0.2795256982\H,2.618303541,-0.861951227,-1.1166644208\H,0.972345
 8695,-1.5669940522,-0.9853629008\C,0.9103340614,1.9970137408,-0.558760
 1758\C,0.1142875721,1.2558017092,0.508508562\C,-1.2836952079,1.0010805
 443,0.2453145085\Cl,-1.7530780472,-0.8929418528,-0.3606836275\H,0.6399
 956085,3.0744518847,-0.6856326378\H,2.0019989819,1.9654378158,-0.34674
 46739\H,0.7778836156,1.5231257591,-1.5571191651\H,0.9107165238,0.07609
 7993,0.6731679277\H,0.2818513133,1.6397392128,1.5375671912\H,-1.959498
 7943,1.0447848801,1.1172753167\H,-1.7444252554,1.5001768661,-0.6289345
 353\\Version=EM64L-G09RevD.01\State=1-A\HF=-693.1044359\RMSD=5.232e-09
 \RMSF=2.509e-03\Dipole=-0.5834173,1.1389819,-0.7414191\Quadrupole=-4.4
 477469,1.146408,3.3013389,-1.1061251,-4.2313828,1.117922\PG=C01 [X(C4H
 10Cl1O1)]\\@


 AN AIRPLANE IS A COLLECTION OF SPARE PARTS
 FLYING IN CLOSE FORMATION.
 Job cpu time:       0 days  0 hours 10 minutes 47.2 seconds.
 File lengths (MBytes):  RWF=    167 Int=      0 D2E=      0 Chk=      5 Scr=      2
 Normal termination of Gaussian 09 at Fri Dec 13 17:57:39 2019.
