 Entering Gaussian System, Link 0=/usr/local/gaussian/g09/g09
 Input=TS_conf5_opt_g09.com
 Output=TS_conf5_opt_g09.log
 Initial command:
 /usr/local/gaussian/g09/l1.exe "/home/aleph/fd/shug5449/autodE/examples/gaussian_elimination/ts_confs/Gau-204708.inp" -scrdir="/home/aleph/fd/shug5449/autodE/examples/gaussian_elimination/ts_confs/"
 Entering Link 1 = /usr/local/gaussian/g09/l1.exe PID=    204709.
  
 Copyright (c) 1988,1990,1992,1993,1995,1998,2003,2009,2013,
            Gaussian, Inc.  All Rights Reserved.
  
 This is part of the Gaussian(R) 09 program.  It is based on
 the Gaussian(R) 03 system (copyright 2003, Gaussian, Inc.),
 the Gaussian(R) 98 system (copyright 1998, Gaussian, Inc.),
 the Gaussian(R) 94 system (copyright 1995, Gaussian, Inc.),
 the Gaussian 92(TM) system (copyright 1992, Gaussian, Inc.),
 the Gaussian 90(TM) system (copyright 1990, Gaussian, Inc.),
 the Gaussian 88(TM) system (copyright 1988, Gaussian, Inc.),
 the Gaussian 86(TM) system (copyright 1986, Carnegie Mellon
 University), and the Gaussian 82(TM) system (copyright 1983,
 Carnegie Mellon University). Gaussian is a federally registered
 trademark of Gaussian, Inc.
  
 This software contains proprietary and confidential information,
 including trade secrets, belonging to Gaussian, Inc.
  
 This software is provided under written license and may be
 used, copied, transmitted, or stored only in accord with that
 written license.
  
 The following legend is applicable only to US Government
 contracts under FAR:
  
                    RESTRICTED RIGHTS LEGEND
  
 Use, reproduction and disclosure by the US Government is
 subject to restrictions as set forth in subparagraphs (a)
 and (c) of the Commercial Computer Software - Restricted
 Rights clause in FAR 52.227-19.
  
 Gaussian, Inc.
 340 Quinnipiac St., Bldg. 40, Wallingford CT 06492
  
  
 ---------------------------------------------------------------
 Warning -- This program may not be used in any manner that
 competes with the business of Gaussian, Inc. or will provide
 assistance to any competitor of Gaussian, Inc.  The licensee
 of this program is prohibited from giving any competitor of
 Gaussian, Inc. access to this program.  By using this program,
 the user acknowledges that Gaussian, Inc. is engaged in the
 business of creating and licensing software in the field of
 computational chemistry and represents and warrants to the
 licensee that it is not a competitor of Gaussian, Inc. and that
 it will not use this program in any manner prohibited above.
 ---------------------------------------------------------------
  

 Cite this work as:
 Gaussian 09, Revision D.01,
 M. J. Frisch, G. W. Trucks, H. B. Schlegel, G. E. Scuseria, 
 M. A. Robb, J. R. Cheeseman, G. Scalmani, V. Barone, B. Mennucci, 
 G. A. Petersson, H. Nakatsuji, M. Caricato, X. Li, H. P. Hratchian, 
 A. F. Izmaylov, J. Bloino, G. Zheng, J. L. Sonnenberg, M. Hada, 
 M. Ehara, K. Toyota, R. Fukuda, J. Hasegawa, M. Ishida, T. Nakajima, 
 Y. Honda, O. Kitao, H. Nakai, T. Vreven, J. A. Montgomery, Jr., 
 J. E. Peralta, F. Ogliaro, M. Bearpark, J. J. Heyd, E. Brothers, 
 K. N. Kudin, V. N. Staroverov, T. Keith, R. Kobayashi, J. Normand, 
 K. Raghavachari, A. Rendell, J. C. Burant, S. S. Iyengar, J. Tomasi, 
 M. Cossi, N. Rega, J. M. Millam, M. Klene, J. E. Knox, J. B. Cross, 
 V. Bakken, C. Adamo, J. Jaramillo, R. Gomperts, R. E. Stratmann, 
 O. Yazyev, A. J. Austin, R. Cammi, C. Pomelli, J. W. Ochterski, 
 R. L. Martin, K. Morokuma, V. G. Zakrzewski, G. A. Voth, 
 P. Salvador, J. J. Dannenberg, S. Dapprich, A. D. Daniels, 
 O. Farkas, J. B. Foresman, J. V. Ortiz, J. Cioslowski, 
 and D. J. Fox, Gaussian, Inc., Wallingford CT, 2013.
 
 ******************************************
 Gaussian 09:  EM64L-G09RevD.01 24-Apr-2013
                13-Dec-2019 
 ******************************************
 %mem=4000MB
 %nprocshared=4
 Will use up to    4 processors via shared memory.
 ---------------------------------------------------------------
 # Opt=(Loose, ModRedun) PBEPBE/Def2SVP scrf=(smd,solvent=water)
 ---------------------------------------------------------------
 1/7=-1,14=-1,18=120,19=15,26=3,38=1/1,3;
 2/9=110,12=2,17=6,18=5,40=1/2;
 3/5=43,7=101,11=2,16=1,25=1,30=1,70=32201,71=1,72=1,74=1009/1,2,3;
 4//1;
 5/5=2,38=5,53=1/2;
 6/7=2,8=2,9=2,10=2,28=1/1;
 7//1,2,3,16;
 1/7=-1,14=-1,18=20,19=15,26=3/3(2);
 2/9=110/2;
 99//99;
 2/9=110/2;
 3/5=43,7=101,11=2,16=1,25=1,30=1,70=32205,71=1,72=1,74=1009/1,2,3;
 4/5=5,16=3,69=1/1;
 5/5=2,38=5,53=1/2;
 7//1,2,3,16;
 1/7=-1,14=-1,18=20,19=15,26=3/3(-5);
 2/9=110/2;
 6/7=2,8=2,9=2,10=2,19=2,28=1/1;
 99/9=1/99;
 ------------
 TS_conf5_opt
 ------------
 Symbolic Z-matrix:
 Charge = -1 Multiplicity = 1
 C                    -2.84232  -5.9482   -15.6765 
 O                    -3.92113  -5.90931  -14.82972 
 H                    -3.20446  -6.12202  -16.70584 
 H                    -2.14526  -6.76532  -15.41845 
 H                    -2.27948  -4.99488  -15.67947 
 C                    -1.53426  -5.46977  -12.77731 
 C                    -2.95769  -4.94901  -12.68202 
 C                    -3.13007  -3.55361  -12.82576 
 Cl                   -4.13992  -2.94464  -14.49417 
 H                    -0.9202   -5.13701  -11.93342 
 H                    -1.51674  -6.55886  -12.79199 
 H                    -1.06002  -5.11268  -13.68739 
 H                    -3.58783  -5.72022  -13.7126 
 H                    -3.53658  -5.38999  -11.87358 
 H                    -3.82221  -3.04709  -12.16558 
 H                    -2.24716  -2.97092  -13.05971 
 
 Add virtual bond connecting atoms H13        and O2         Dist= 2.23D+00.
 Add virtual bond connecting atoms H13        and C7         Dist= 2.71D+00.
 The following ModRedundant input section has been read:
 B       2      13 1.1805 B                                                    
 B       2      13 F                                                           
 B       7      13 1.4328 B                                                    
 B       7      13 F                                                           
 B       8       9 2.0432 B                                                    
 B       8       9 F                                                           
 
 Iteration  1 RMS(Cart)=  0.00030168 RMS(Int)=  0.00000000
 Iteration  2 RMS(Cart)=  0.00000001 RMS(Int)=  0.00000000
 Iteration  1 RMS(Cart)=  0.00000000 RMS(Int)=  0.00000000

 GradGradGradGradGradGradGradGradGradGradGradGradGradGradGradGradGradGrad
 Berny optimization.
 Initialization pass.
                           ----------------------------
                           !    Initial Parameters    !
                           ! (Angstroms and Degrees)  !
 --------------------------                            --------------------------
 ! Name  Definition              Value          Derivative Info.                !
 --------------------------------------------------------------------------------
 ! R1    R(1,2)                  1.372          estimate D2E/DX2                !
 ! R2    R(1,3)                  1.1049         estimate D2E/DX2                !
 ! R3    R(1,4)                  1.1046         estimate D2E/DX2                !
 ! R4    R(1,5)                  1.1071         estimate D2E/DX2                !
 ! R5    R(2,13)                 1.1806         Frozen                          !
 ! R6    R(6,7)                  1.5187         estimate D2E/DX2                !
 ! R7    R(6,10)                 1.0954         estimate D2E/DX2                !
 ! R8    R(6,11)                 1.0893         estimate D2E/DX2                !
 ! R9    R(6,12)                 1.0866         estimate D2E/DX2                !
 ! R10   R(7,8)                  1.4133         estimate D2E/DX2                !
 ! R11   R(7,13)                 1.4329         Frozen                          !
 ! R12   R(7,14)                 1.0877         estimate D2E/DX2                !
 ! R13   R(8,9)                  2.0433         Frozen                          !
 ! R14   R(8,15)                 1.0823         estimate D2E/DX2                !
 ! R15   R(8,16)                 1.0834         estimate D2E/DX2                !
 ! A1    A(2,1,3)              108.7665         estimate D2E/DX2                !
 ! A2    A(2,1,4)              111.8993         estimate D2E/DX2                !
 ! A3    A(2,1,5)              112.1482         estimate D2E/DX2                !
 ! A4    A(3,1,4)              107.9432         estimate D2E/DX2                !
 ! A5    A(3,1,5)              107.4338         estimate D2E/DX2                !
 ! A6    A(4,1,5)              108.4692         estimate D2E/DX2                !
 ! A7    A(1,2,13)             111.4954         estimate D2E/DX2                !
 ! A8    A(7,6,10)             111.8954         estimate D2E/DX2                !
 ! A9    A(7,6,11)             111.0234         estimate D2E/DX2                !
 ! A10   A(7,6,12)             110.4222         estimate D2E/DX2                !
 ! A11   A(10,6,11)            107.7629         estimate D2E/DX2                !
 ! A12   A(10,6,12)            107.5022         estimate D2E/DX2                !
 ! A13   A(11,6,12)            108.074          estimate D2E/DX2                !
 ! A14   A(6,7,8)              116.5184         estimate D2E/DX2                !
 ! A15   A(6,7,13)             100.5134         estimate D2E/DX2                !
 ! A16   A(6,7,14)             113.981          estimate D2E/DX2                !
 ! A17   A(8,7,13)             113.8618         estimate D2E/DX2                !
 ! A18   A(8,7,14)             114.2643         estimate D2E/DX2                !
 ! A19   A(13,7,14)             94.7208         estimate D2E/DX2                !
 ! A20   A(7,8,9)              115.9518         estimate D2E/DX2                !
 ! A21   A(7,8,15)             118.5554         estimate D2E/DX2                !
 ! A22   A(7,8,16)             116.9727         estimate D2E/DX2                !
 ! A23   A(9,8,15)              92.4377         estimate D2E/DX2                !
 ! A24   A(9,8,16)              93.7935         estimate D2E/DX2                !
 ! A25   A(15,8,16)            113.6503         estimate D2E/DX2                !
 ! A26   A(2,13,7)             152.9281         estimate D2E/DX2                !
 ! D1    D(3,1,2,13)          -179.7451         estimate D2E/DX2                !
 ! D2    D(4,1,2,13)            61.0942         estimate D2E/DX2                !
 ! D3    D(5,1,2,13)           -61.0638         estimate D2E/DX2                !
 ! D4    D(1,2,13,7)            59.8118         estimate D2E/DX2                !
 ! D5    D(10,6,7,8)            67.352          estimate D2E/DX2                !
 ! D6    D(10,6,7,13)         -169.115          estimate D2E/DX2                !
 ! D7    D(10,6,7,14)          -69.0849         estimate D2E/DX2                !
 ! D8    D(11,6,7,8)          -172.2031         estimate D2E/DX2                !
 ! D9    D(11,6,7,13)          -48.6701         estimate D2E/DX2                !
 ! D10   D(11,6,7,14)           51.36           estimate D2E/DX2                !
 ! D11   D(12,6,7,8)           -52.351          estimate D2E/DX2                !
 ! D12   D(12,6,7,13)           71.182          estimate D2E/DX2                !
 ! D13   D(12,6,7,14)          171.2121         estimate D2E/DX2                !
 ! D14   D(6,7,8,9)            113.3474         estimate D2E/DX2                !
 ! D15   D(6,7,8,15)          -138.0673         estimate D2E/DX2                !
 ! D16   D(6,7,8,16)             4.0635         estimate D2E/DX2                !
 ! D17   D(13,7,8,9)            -2.9927         estimate D2E/DX2                !
 ! D18   D(13,7,8,15)          105.5926         estimate D2E/DX2                !
 ! D19   D(13,7,8,16)         -112.2767         estimate D2E/DX2                !
 ! D20   D(14,7,8,9)          -110.3366         estimate D2E/DX2                !
 ! D21   D(14,7,8,15)           -1.7513         estimate D2E/DX2                !
 ! D22   D(14,7,8,16)          140.3795         estimate D2E/DX2                !
 ! D23   D(6,7,13,2)           -88.4372         estimate D2E/DX2                !
 ! D24   D(8,7,13,2)            36.9179         estimate D2E/DX2                !
 ! D25   D(14,7,13,2)          156.0886         estimate D2E/DX2                !
 --------------------------------------------------------------------------------
 Trust Radius=3.00D-01 FncErr=1.00D-07 GrdErr=1.00D-06
 Number of steps in this run=     76 maximum allowed number of steps=    100.
 GradGradGradGradGradGradGradGradGradGradGradGradGradGradGradGradGradGrad

                          Input orientation:                          
 ---------------------------------------------------------------------
 Center     Atomic      Atomic             Coordinates (Angstroms)
 Number     Number       Type             X           Y           Z
 ---------------------------------------------------------------------
      1          6           0       -2.842219   -5.948023  -15.676089
      2          8           0       -3.921005   -5.909130  -14.829271
      3          1           0       -3.204389   -6.121830  -16.705417
      4          1           0       -2.145162   -6.765162  -15.418070
      5          1           0       -2.279360   -4.994711  -15.679053
      6          6           0       -1.534320   -5.469886  -12.777544
      7          6           0       -2.957743   -4.949102  -12.682213
      8          6           0       -3.130104   -3.553697  -12.825927
      9         17           0       -4.140067   -2.944644  -14.494431
     10          1           0       -0.920228   -5.137147  -11.933675
     11          1           0       -1.516813   -6.558979  -12.792249
     12          1           0       -1.060095   -5.112790  -13.687640
     13          1           0       -3.587792   -5.720134  -13.712582
     14          1           0       -3.536617   -5.390084  -11.873764
     15          1           0       -3.822212   -3.047178  -12.165717
     16          1           0       -2.247193   -2.971023  -13.059890
 ---------------------------------------------------------------------
                    Distance matrix (angstroms):
                    1          2          3          4          5
     1  C    0.000000
     2  O    1.372003   0.000000
     3  H    1.104939   2.019580   0.000000
     4  H    1.104617   2.057449   1.786925   0.000000
     5  H    1.107078   2.062351   1.783115   1.794608   0.000000
     6  C    3.215709   3.177859   4.317678   3.003871   3.033090
     7  C    3.158240   2.541532   4.197891   3.382790   3.073001
     8  C    3.733510   3.191704   4.653092   4.242973   3.307660
     9  Cl   3.478650   2.991368   3.982268   4.407846   3.011368
    10  H    4.284534   4.240884   5.381125   4.036322   3.986901
    11  H    3.232105   3.217437   4.283910   2.707815   3.370764
    12  H    2.797769   3.181554   3.837074   2.627183   2.338007
    13  H    2.112623   1.180570   3.043915   2.466162   2.470879
    14  H    3.905274   3.025258   4.898030   4.048344   4.027064
    15  H    4.658112   3.910889   5.517614   5.216675   4.303117
    16  H    4.007628   3.816390   4.912603   4.468435   3.310040
                    6          7          8          9         10
     6  C    0.000000
     7  C    1.518696   0.000000
     8  C    2.494123   1.413335   0.000000
     9  Cl   4.014283   2.949555   2.043251   0.000000
    10  H    1.095416   2.178792   2.861289   4.661748   0.000000
    11  H    1.089333   2.163351   3.411094   4.779362   1.764843
    12  H    1.086591   2.153774   2.730981   3.852012   1.759701
    13  H    2.270170   1.432869   2.385180   2.935922   3.258877
    14  H    2.198268   1.087727   2.108123   3.634862   2.629269
    15  H    3.387964   2.152067   1.082337   2.352542   3.583758
    16  H    2.613852   2.135490   1.083412   2.375200   2.778720
                   11         12         13         14         15
    11  H    0.000000
    12  H    1.761186   0.000000
    13  H    2.416532   2.599758   0.000000
    14  H    2.507895   3.082239   1.868904   0.000000
    15  H    4.247370   3.769920   3.097167   2.378236   0.000000
    16  H    3.671310   2.527932   3.127432   2.986866   1.812742
                   16
    16  H    0.000000
 Stoichiometry    C4H10ClO(1-)
 Framework group  C1[X(C4H10ClO)]
 Deg. of freedom    42
 Full point group                 C1      NOp   1
 Largest Abelian subgroup         C1      NOp   1
 Largest concise Abelian subgroup C1      NOp   1
                         Standard orientation:                         
 ---------------------------------------------------------------------
 Center     Atomic      Atomic             Coordinates (Angstroms)
 Number     Number       Type             X           Y           Z
 ---------------------------------------------------------------------
      1          6           0       -1.312207    1.731247   -0.414560
      2          8           0       -0.786310    1.342647    0.791598
      3          1           0       -1.238301    2.830630   -0.496934
      4          1           0       -2.377307    1.453808   -0.508198
      5          1           0       -0.760066    1.296666   -1.270074
      6          6           0       -1.671831   -1.464280   -0.406653
      7          6           0       -0.523200   -1.172996    0.543209
      8          6           0        0.781384   -1.328989    0.022398
      9         17           0        1.883711    0.382192   -0.155392
     10          1           0       -1.723022   -2.525747   -0.672367
     11          1           0       -2.626700   -1.186587    0.038045
     12          1           0       -1.553168   -0.901928   -1.328803
     13          1           0       -0.836746    0.171093    0.928210
     14          1           0       -0.658693   -1.585684    1.540446
     15          1           0        1.532159   -1.803319    0.641107
     16          1           0        0.864358   -1.577260   -1.028914
 ---------------------------------------------------------------------
 Rotational constants (GHZ):      2.6679979      2.0239448      1.3148024
 Standard basis: def2SVP (5D, 7F)
 There are   144 symmetry adapted cartesian basis functions of A   symmetry.
 There are   138 symmetry adapted basis functions of A   symmetry.
   138 basis functions,   232 primitive gaussians,   144 cartesian basis functions
    30 alpha electrons       30 beta electrons
       nuclear repulsion energy       306.1936948535 Hartrees.
 NAtoms=   16 NActive=   16 NUniq=   16 SFac= 1.00D+00 NAtFMM=   60 NAOKFM=F Big=F
 Integral buffers will be    131072 words long.
 Raffenetti 2 integral format.
 Two-electron integral symmetry is turned on.
 ------------------------------------------------------------------------------
 Polarizable Continuum Model (PCM)
 =================================
 Model                : PCM (using non-symmetric T matrix).
 Atomic radii         : SMD-Coulomb.
 Polarization charges : Total charges.
 Charge compensation  : None.
 Solution method      : On-the-fly selection.
 Cavity type          : VdW (van der Waals Surface) (Alpha=1.000).
 Cavity algorithm     : GePol (No added spheres)
                        Default sphere list used, NSphG=   16.
                        Lebedev-Laikov grids with approx.  5.0 points / Ang**2.
                        Smoothing algorithm: Karplus/York (Gamma=1.0000).
                        Polarization charges: spherical gaussians, with
                                              point-specific exponents (IZeta= 3).
                        Self-potential: point-specific (ISelfS= 7).
                        Self-field    : sphere-specific E.n sum rule (ISelfD= 2).
 1st derivatives      : Analytical E(r).r(x)/FMM algorithm (CHGder, D1EAlg=3).
                        Cavity 1st derivative terms included.
 Solvent              : Water, Eps=  78.355300 Eps(inf)=   1.777849
 ------------------------------------------------------------------------------
 Spheres list:
 ISph  on   Nord     Re0    Alpha      Xe            Ye            Ze
    1   C      1    1.8500  1.000     -1.312207      1.731247     -0.414560
    2   O      2    1.5200  1.000     -0.786310      1.342647      0.791598
    3   H      3    1.2000  1.000     -1.238301      2.830630     -0.496934
    4   H      4    1.2000  1.000     -2.377307      1.453808     -0.508198
    5   H      5    1.2000  1.000     -0.760066      1.296666     -1.270074
    6   C      6    1.8500  1.000     -1.671831     -1.464280     -0.406653
    7   C      7    1.8500  1.000     -0.523200     -1.172996      0.543209
    8   C      8    1.8500  1.000      0.781384     -1.328989      0.022398
    9  Cl      9    2.3800  1.000      1.883711      0.382192     -0.155392
   10   H     10    1.2000  1.000     -1.723022     -2.525747     -0.672367
   11   H     11    1.2000  1.000     -2.626700     -1.186587      0.038045
   12   H     12    1.2000  1.000     -1.553168     -0.901928     -1.328803
   13   H     13    1.2000  1.000     -0.836746      0.171093      0.928210
   14   H     14    1.2000  1.000     -0.658693     -1.585684      1.540446
   15   H     15    1.2000  1.000      1.532159     -1.803319      0.641107
   16   H     16    1.2000  1.000      0.864358     -1.577260     -1.028914
 ------------------------------------------------------------------------------
 ------------------------------------------------------------------------------
 Atomic radii for non-electrostatic terms: SMD-CDS.
 ------------------------------------------------------------------------------
 Nuclear repulsion after PCM non-electrostatic terms =      306.1996021879 Hartrees.
 One-electron integrals computed using PRISM.
   1 Symmetry operations used in ECPInt.
 ECPInt:  NShTT=    2346 NPrTT=    8374 LenC2=    2331 LenP2D=    6824.
 LDataN:  DoStor=T MaxTD1= 4 Len=   56
 NBasis=   138 RedAO= T EigKep=  2.18D-03  NBF=   138
 NBsUse=   138 1.00D-06 EigRej= -1.00D+00 NBFU=   138
 ExpMin= 1.22D-01 ExpMax= 1.04D+04 ExpMxC= 1.57D+03 IAcc=1 IRadAn=         1 AccDes= 0.00D+00
 Harris functional with IExCor= 1009 and IRadAn=       1 diagonalized for initial guess.
 HarFok:  IExCor= 1009 AccDes= 0.00D+00 IRadAn=         1 IDoV= 1 UseB2=F ITyADJ=14
 ICtDFT=  3500011 ScaDFX=  1.000000  1.000000  1.000000  1.000000
 FoFCou: FMM=F IPFlag=           0 FMFlag=      100000 FMFlg1=           0
         NFxFlg=           0 DoJE=T BraDBF=F KetDBF=T FulRan=T
         wScrn=  0.000000 ICntrl=     500 IOpCl=  0 I1Cent=   200000004 NGrid=           0
         NMat0=    1 NMatS0=      1 NMatT0=    0 NMatD0=    1 NMtDS0=    0 NMtDT0=    0
 Petite list used in FoFCou.
 Keep J ints in memory in canonical form, NReq=50903915.
 Requested convergence on RMS density matrix=1.00D-08 within 128 cycles.
 Requested convergence on MAX density matrix=1.00D-06.
 Requested convergence on             energy=1.00D-06.
 No special actions if energy rises.
 Inv3:  Mode=1 IEnd=     4687500.
 Iteration    1 A*A^-1 deviation from unit magnitude is 6.66D-15 for    543.
 Iteration    1 A*A^-1 deviation from orthogonality  is 3.77D-15 for    909    186.
 Iteration    1 A^-1*A deviation from unit magnitude is 5.11D-15 for    407.
 Iteration    1 A^-1*A deviation from orthogonality  is 1.90D-12 for    901    872.
 Error on total polarization charges =  0.03680
 SCF Done:  E(RPBE-PBE) =  -693.083146696     A.U. after   12 cycles
            NFock= 12  Conv=0.82D-08     -V/T= 2.0043
 SMD-CDS (non-electrostatic) energy       (kcal/mol) =       3.71
 (included in total energy above)

 **********************************************************************

            Population analysis using the SCF density.

 **********************************************************************

 Orbital symmetries:
       Occupied  (A) (A) (A) (A) (A) (A) (A) (A) (A) (A) (A) (A)
                 (A) (A) (A) (A) (A) (A) (A) (A) (A) (A) (A) (A)
                 (A) (A) (A) (A) (A) (A)
       Virtual   (A) (A) (A) (A) (A) (A) (A) (A) (A) (A) (A) (A)
                 (A) (A) (A) (A) (A) (A) (A) (A) (A) (A) (A) (A)
                 (A) (A) (A) (A) (A) (A) (A) (A) (A) (A) (A) (A)
                 (A) (A) (A) (A) (A) (A) (A) (A) (A) (A) (A) (A)
                 (A) (A) (A) (A) (A) (A) (A) (A) (A) (A) (A) (A)
                 (A) (A) (A) (A) (A) (A) (A) (A) (A) (A) (A) (A)
                 (A) (A) (A) (A) (A) (A) (A) (A) (A) (A) (A) (A)
                 (A) (A) (A) (A) (A) (A) (A) (A) (A) (A) (A) (A)
                 (A) (A) (A) (A) (A) (A) (A) (A) (A) (A) (A) (A)
 The electronic state is 1-A.
 Alpha  occ. eigenvalues -- -100.53397 -18.66641  -9.89571  -9.88992  -9.86242
 Alpha  occ. eigenvalues --   -9.82460  -9.06883  -6.89778  -6.89004  -6.88972
 Alpha  occ. eigenvalues --   -0.83247  -0.68474  -0.63718  -0.56676  -0.54677
 Alpha  occ. eigenvalues --   -0.46990  -0.39455  -0.38552  -0.34954  -0.34067
 Alpha  occ. eigenvalues --   -0.33139  -0.32804  -0.29654  -0.27185  -0.27035
 Alpha  occ. eigenvalues --   -0.22508  -0.19052  -0.18608  -0.14738  -0.11016
 Alpha virt. eigenvalues --    0.01330   0.05886   0.08557   0.09205   0.10998
 Alpha virt. eigenvalues --    0.11875   0.13060   0.14540   0.16110   0.17790
 Alpha virt. eigenvalues --    0.18527   0.23683   0.26774   0.28981   0.38889
 Alpha virt. eigenvalues --    0.40556   0.42005   0.43969   0.45036   0.48781
 Alpha virt. eigenvalues --    0.50512   0.52423   0.56505   0.58190   0.59898
 Alpha virt. eigenvalues --    0.61773   0.61906   0.62651   0.64575   0.64865
 Alpha virt. eigenvalues --    0.65975   0.66734   0.67361   0.68299   0.68527
 Alpha virt. eigenvalues --    0.70144   0.71517   0.73461   0.77884   0.80842
 Alpha virt. eigenvalues --    0.82402   0.83317   0.86031   0.89243   0.91042
 Alpha virt. eigenvalues --    0.93871   0.97140   1.06101   1.06429   1.09539
 Alpha virt. eigenvalues --    1.15067   1.16922   1.19624   1.22452   1.28338
 Alpha virt. eigenvalues --    1.29270   1.34996   1.41279   1.47607   1.49197
 Alpha virt. eigenvalues --    1.50619   1.53692   1.56419   1.66336   1.67073
 Alpha virt. eigenvalues --    1.68730   1.69275   1.72482   1.76012   1.76821
 Alpha virt. eigenvalues --    1.78701   1.81560   1.82698   1.84045   1.85876
 Alpha virt. eigenvalues --    1.88967   1.89831   1.91849   1.93645   2.01162
 Alpha virt. eigenvalues --    2.04595   2.07352   2.12736   2.19177   2.20386
 Alpha virt. eigenvalues --    2.26902   2.27871   2.34692   2.35892   2.39771
 Alpha virt. eigenvalues --    2.45372   2.52994   2.57079   2.61611   2.68679
 Alpha virt. eigenvalues --    2.72157   2.77128   2.78415   2.79318   2.86248
 Alpha virt. eigenvalues --    2.90611   2.94956   2.95401   3.06146   3.07346
 Alpha virt. eigenvalues --    3.13500   3.32371   3.64094
          Condensed to atoms (all electrons):
               1          2          3          4          5          6
     1  C    4.466826   0.370194   0.365307   0.382392   0.326019   0.000928
     2  O    0.370194   8.164286  -0.036903  -0.045639  -0.062151   0.000407
     3  H    0.365307  -0.036903   0.768749  -0.042587  -0.044994   0.000543
     4  H    0.382392  -0.045639  -0.042587   0.816841  -0.073544   0.000152
     5  H    0.326019  -0.062151  -0.044994  -0.073544   0.867164   0.001269
     6  C    0.000928   0.000407   0.000543   0.000152   0.001269   4.578253
     7  C    0.027091  -0.116714  -0.001705   0.007084  -0.019965   0.400077
     8  C   -0.002468  -0.029313  -0.000441  -0.001930   0.013674  -0.037264
     9  Cl  -0.003306   0.010484   0.000631   0.000442   0.014943   0.001056
    10  H    0.000307  -0.000344  -0.000042  -0.000126   0.000402   0.384753
    11  H    0.000120   0.003240   0.000218  -0.001484  -0.000684   0.367394
    12  H    0.003485  -0.000143  -0.000270   0.003773   0.001148   0.377085
    13  H   -0.060190   0.241736   0.005370  -0.018046   0.020839   0.000781
    14  H   -0.000754   0.001839  -0.000001  -0.000002   0.000176  -0.045659
    15  H    0.000157  -0.000032  -0.000007   0.000016  -0.000051   0.007890
    16  H   -0.000158  -0.000197  -0.000033   0.000102  -0.000427  -0.016179
               7          8          9         10         11         12
     1  C    0.027091  -0.002468  -0.003306   0.000307   0.000120   0.003485
     2  O   -0.116714  -0.029313   0.010484  -0.000344   0.003240  -0.000143
     3  H   -0.001705  -0.000441   0.000631  -0.000042   0.000218  -0.000270
     4  H    0.007084  -0.001930   0.000442  -0.000126  -0.001484   0.003773
     5  H   -0.019965   0.013674   0.014943   0.000402  -0.000684   0.001148
     6  C    0.400077  -0.037264   0.001056   0.384753   0.367394   0.377085
     7  C    5.404182   0.339321  -0.063574  -0.041046  -0.018817  -0.026829
     8  C    0.339321   4.873845   0.094707  -0.007677   0.010089  -0.014436
     9  Cl  -0.063574   0.094707  17.442798  -0.000588  -0.000025   0.001497
    10  H   -0.041046  -0.007677  -0.000588   0.734000  -0.034147  -0.035690
    11  H   -0.018817   0.010089  -0.000025  -0.034147   0.702069  -0.023637
    12  H   -0.026829  -0.014436   0.001497  -0.035690  -0.023637   0.690718
    13  H    0.071505   0.028078  -0.004973   0.002743  -0.003397  -0.005038
    14  H    0.332934  -0.028004   0.005645  -0.008212  -0.004833   0.011392
    15  H   -0.005536   0.372985  -0.030663   0.000878  -0.000650  -0.000465
    16  H   -0.029417   0.386738  -0.027038   0.003554   0.000261   0.007223
              13         14         15         16
     1  C   -0.060190  -0.000754   0.000157  -0.000158
     2  O    0.241736   0.001839  -0.000032  -0.000197
     3  H    0.005370  -0.000001  -0.000007  -0.000033
     4  H   -0.018046  -0.000002   0.000016   0.000102
     5  H    0.020839   0.000176  -0.000051  -0.000427
     6  C    0.000781  -0.045659   0.007890  -0.016179
     7  C    0.071505   0.332934  -0.005536  -0.029417
     8  C    0.028078  -0.028004   0.372985   0.386738
     9  Cl  -0.004973   0.005645  -0.030663  -0.027038
    10  H    0.002743  -0.008212   0.000878   0.003554
    11  H   -0.003397  -0.004833  -0.000650   0.000261
    12  H   -0.005038   0.011392  -0.000465   0.007223
    13  H    0.572270   0.008119  -0.000185   0.001637
    14  H    0.008119   0.766504  -0.021266   0.008920
    15  H   -0.000185  -0.021266   0.678923  -0.030807
    16  H    0.001637   0.008920  -0.030807   0.670483
 Mulliken charges:
               1
     1  C    0.124050
     2  O   -0.500751
     3  H   -0.013834
     4  H   -0.027444
     5  H   -0.043819
     6  C   -0.021486
     7  C   -0.258590
     8  C    0.002097
     9  Cl  -0.442036
    10  H    0.001234
    11  H    0.004285
    12  H    0.010189
    13  H    0.138751
    14  H   -0.026800
    15  H    0.028815
    16  H    0.025339
 Sum of Mulliken charges =  -1.00000
 Mulliken charges with hydrogens summed into heavy atoms:
               1
     1  C    0.038953
     2  O   -0.362000
     6  C   -0.005778
     7  C   -0.285390
     8  C    0.056251
     9  Cl  -0.442036
 Electronic spatial extent (au):  <R**2>=            964.3956
 Charge=             -1.0000 electrons
 Dipole moment (field-independent basis, Debye):
    X=             -1.7149    Y=             -3.2368    Z=             -1.8987  Tot=              4.1259
 Quadrupole moment (field-independent basis, Debye-Ang):
   XX=            -59.0670   YY=            -55.6989   ZZ=            -51.1907
   XY=             -1.2950   XZ=              2.0447   YZ=             -2.7961
 Traceless Quadrupole moment (field-independent basis, Debye-Ang):
   XX=             -3.7482   YY=             -0.3800   ZZ=              4.1282
   XY=             -1.2950   XZ=              2.0447   YZ=             -2.7961
 Octapole moment (field-independent basis, Debye-Ang**2):
  XXX=             -5.6104  YYY=              6.1518  ZZZ=              0.4487  XYY=              9.7104
  XXY=             -1.6476  XXZ=              2.9965  XZZ=              4.8010  YZZ=             -2.3000
  YYZ=             -4.4673  XYZ=              2.7446
 Hexadecapole moment (field-independent basis, Debye-Ang**3):
 XXXX=           -685.3065 YYYY=           -548.2777 ZZZZ=           -141.4243 XXXY=             -6.8294
 XXXZ=             -3.4853 YYYX=             -1.5446 YYYZ=             -1.2733 ZZZX=             -2.0363
 ZZZY=              1.4976 XXYY=           -202.8098 XXZZ=           -134.9193 YYZZ=           -118.7108
 XXYZ=             -3.0611 YYXZ=              1.7064 ZZXY=              0.8092
 N-N= 3.061996021879D+02 E-N=-2.262255464834D+03  KE= 6.900866943465D+02
   1 Symmetry operations used in ECPInt.
 ECPInt:  NShTT=    2346 NPrTT=    8374 LenC2=    2331 LenP2D=    6824.
 LDataN:  DoStor=T MaxTD1= 5 Len=  102
 D1PCM: PCM CHGder 1st derivatives, ID1Alg=3 FixD1E=F DoIter=F DoCFld=F I1PDM=0.
 Calling FoFJK, ICntrl=      2527 FMM=F ISym2X=0 I1Cent= 0 IOpClX= 0 NMat=1 NMatS=1 NMatT=0.
 ***** Axes restored to original set *****
 -------------------------------------------------------------------
 Center     Atomic                   Forces (Hartrees/Bohr)
 Number     Number              X              Y              Z
 -------------------------------------------------------------------
      1        6          -0.005554429    0.000012261    0.005962500
      2        8          -0.028229521   -0.021512905    0.013053918
      3        1           0.002522009   -0.001437284   -0.010934845
      4        1           0.012550414   -0.007206549   -0.004148094
      5        1           0.008481098    0.007621891   -0.003993863
      6        6          -0.013732323    0.004119452    0.006822087
      7        6           0.008873147   -0.013546909    0.007513518
      8        6          -0.004899151   -0.004962471    0.001053634
      9       17          -0.009761345    0.012836826   -0.018003418
     10        1           0.010861361    0.001747644    0.009398205
     11        1           0.003537155   -0.014139354   -0.000892418
     12        1           0.008952999    0.003362676   -0.012139258
     13        1           0.005877737    0.021742582   -0.020994204
     14        1          -0.006557445   -0.004313873    0.014062312
     15        1          -0.005147248    0.006945131    0.011587970
     16        1           0.012225542    0.008730880    0.001651955
 -------------------------------------------------------------------
 Cartesian Forces:  Max     0.028229521 RMS     0.010712242

 GradGradGradGradGradGradGradGradGradGradGradGradGradGradGradGradGradGrad
 Berny optimization.
 FormGI is forming the generalized inverse of G from B-inverse, IUseBI=4.
 Internal  Forces:  Max     0.052270257 RMS     0.010664775
 Search for a local minimum.
 Step number   1 out of a maximum of   76
 All quantities printed in internal units (Hartrees-Bohrs-Radians)
 Mixed Optimization -- RFO/linear search
 Second derivative matrix not updated -- first step.
 ITU=  0
     Eigenvalues ---    0.00230   0.00230   0.00519   0.01912   0.02062
     Eigenvalues ---    0.03279   0.05012   0.05047   0.05539   0.05670
     Eigenvalues ---    0.06256   0.08469   0.10173   0.10575   0.12032
     Eigenvalues ---    0.16000   0.16000   0.16000   0.16000   0.16000
     Eigenvalues ---    0.16000   0.16000   0.16000   0.16000   0.17984
     Eigenvalues ---    0.22029   0.25000   0.30493   0.32911   0.33142
     Eigenvalues ---    0.33177   0.34194   0.34890   0.35077   0.35210
     Eigenvalues ---    0.35585   0.35713   0.43480   0.505941000.00000
     Eigenvalues --- 1000.000001000.000001000.000001000.000001000.00000
     Eigenvalues --- 1000.000001000.000001000.000001000.000001000.00000
     Eigenvalues --- 1000.000001000.000001000.000001000.000001000.00000
     Eigenvalues --- 1000.000001000.000001000.000001000.000001000.00000
     Eigenvalues --- 1000.000001000.000001000.000001000.000001000.00000
     Eigenvalues --- 1000.00000
 RFO step:  Lambda=-2.44960703D-02 EMin= 2.30000000D-03
 Linear search not attempted -- first point.
 Iteration  1 RMS(Cart)=  0.14929511 RMS(Int)=  0.01441698
 Iteration  2 RMS(Cart)=  0.03402145 RMS(Int)=  0.00090024
 Iteration  3 RMS(Cart)=  0.00092924 RMS(Int)=  0.00049712
 Iteration  4 RMS(Cart)=  0.00000128 RMS(Int)=  0.00049712
 Iteration  5 RMS(Cart)=  0.00000000 RMS(Int)=  0.00049712
 Iteration  1 RMS(Cart)=  0.00000000 RMS(Int)=  0.00000000
 Variable       Old X    -DE/DX   Delta X   Delta X   Delta X     New X
                                 (Linear)    (Quad)   (Total)
    R1        2.59271   0.02230   0.00000   0.04204   0.04204   2.63475
    R2        2.08803   0.00957   0.00000   0.02689   0.02689   2.11493
    R3        2.08742   0.01232   0.00000   0.03459   0.03459   2.12201
    R4        2.09207   0.01087   0.00000   0.03073   0.03073   2.12280
    R5        2.23095   0.00648   0.00000   0.00000   0.00000   2.23095
    R6        2.86992   0.01044   0.00000   0.03170   0.03170   2.90162
    R7        2.07004   0.01388   0.00000   0.03787   0.03787   2.10790
    R8        2.05854   0.01418   0.00000   0.03798   0.03798   2.09652
    R9        2.05336   0.01517   0.00000   0.04028   0.04028   2.09364
   R10        2.67082   0.02461   0.00000   0.05358   0.05358   2.72440
   R11        2.70773   0.01747   0.00000   0.00000   0.00000   2.70773
   R12        2.05551   0.01569   0.00000   0.04180   0.04180   2.09730
   R13        3.86118   0.02339   0.00000   0.00000   0.00000   3.86118
   R14        2.04532   0.01361   0.00000   0.03566   0.03566   2.08098
   R15        2.04735   0.01431   0.00000   0.03761   0.03761   2.08496
    A1        1.89833   0.00524   0.00000   0.02697   0.02642   1.92476
    A2        1.95301   0.01047   0.00000   0.05838   0.05756   2.01057
    A3        1.95736   0.00397   0.00000   0.02136   0.02078   1.97814
    A4        1.88396  -0.00763   0.00000  -0.04095  -0.04167   1.84230
    A5        1.87507  -0.00638   0.00000  -0.03776  -0.03800   1.83708
    A6        1.89314  -0.00679   0.00000  -0.03431  -0.03505   1.85810
    A7        1.94596   0.00027   0.00000   0.00149   0.00149   1.94745
    A8        1.95294   0.00460   0.00000   0.02630   0.02608   1.97902
    A9        1.93772   0.00304   0.00000   0.01564   0.01550   1.95323
   A10        1.92723   0.00238   0.00000   0.01236   0.01223   1.93947
   A11        1.88082  -0.00392   0.00000  -0.02022  -0.02043   1.86038
   A12        1.87627  -0.00338   0.00000  -0.01671  -0.01690   1.85936
   A13        1.88625  -0.00331   0.00000  -0.02061  -0.02064   1.86561
   A14        2.03363   0.00066   0.00000   0.00412   0.00293   2.03656
   A15        1.75429  -0.00348   0.00000  -0.00850  -0.00971   1.74458
   A16        1.98934  -0.00031   0.00000  -0.01855  -0.01914   1.97021
   A17        1.98726   0.00725   0.00000   0.07263   0.07270   2.05996
   A18        1.99429  -0.00266   0.00000  -0.02888  -0.02897   1.96532
   A19        1.65319  -0.00108   0.00000  -0.01208  -0.01156   1.64163
   A20        2.02374   0.01774   0.00000   0.08515   0.08504   2.10878
   A21        2.06918  -0.00292   0.00000  -0.01743  -0.01897   2.05021
   A22        2.04156  -0.00220   0.00000  -0.01725  -0.01856   2.02299
   A23        1.61334  -0.00445   0.00000   0.00736   0.00706   1.62040
   A24        1.63701  -0.00594   0.00000  -0.00774  -0.00763   1.62937
   A25        1.98357  -0.00026   0.00000  -0.02388  -0.02571   1.95786
   A26        2.66910   0.05227   0.00000   0.19042   0.19042   2.85952
    D1       -3.13714   0.00075   0.00000   0.00488   0.00524  -3.13190
    D2        1.06630   0.00039   0.00000   0.00232   0.00230   1.06859
    D3       -1.06576  -0.00134   0.00000  -0.01139  -0.01173  -1.07750
    D4        1.04391  -0.00416   0.00000  -0.15529  -0.15529   0.88863
    D5        1.17551  -0.00341   0.00000  -0.04456  -0.04439   1.13112
    D6       -2.95161   0.00349   0.00000   0.04215   0.04189  -2.90972
    D7       -1.20576   0.00050   0.00000   0.01947   0.01953  -1.18623
    D8       -3.00551  -0.00317   0.00000  -0.04158  -0.04136  -3.04687
    D9       -0.84945   0.00373   0.00000   0.04513   0.04492  -0.80453
   D10        0.89640   0.00074   0.00000   0.02245   0.02256   0.91896
   D11       -0.91370  -0.00378   0.00000  -0.04912  -0.04898  -0.96268
   D12        1.24236   0.00312   0.00000   0.03759   0.03730   1.27966
   D13        2.98821   0.00013   0.00000   0.01491   0.01494   3.00315
   D14        1.97829   0.00029   0.00000   0.01627   0.01637   1.99465
   D15       -2.40973   0.00541   0.00000   0.07679   0.07669  -2.33304
   D16        0.07092  -0.00293   0.00000  -0.02196  -0.02139   0.04953
   D17       -0.05223  -0.00116   0.00000  -0.03172  -0.03234  -0.08457
   D18        1.84294   0.00396   0.00000   0.02880   0.02798   1.87092
   D19       -1.95960  -0.00439   0.00000  -0.06996  -0.07010  -2.02969
   D20       -1.92574  -0.00262   0.00000  -0.04347  -0.04323  -1.96897
   D21       -0.03057   0.00250   0.00000   0.01704   0.01709  -0.01348
   D22        2.45008  -0.00585   0.00000  -0.08171  -0.08099   2.36909
   D23       -1.54352  -0.00196   0.00000  -0.04902  -0.04929  -1.59281
   D24        0.64434   0.00043   0.00000  -0.01041  -0.01028   0.63405
   D25        2.72426  -0.00074   0.00000  -0.02537  -0.02524   2.69902
         Item               Value     Threshold  Converged?
 Maximum Force            0.052270     0.002500     NO 
 RMS     Force            0.010245     0.001667     NO 
 Maximum Displacement     0.604954     0.010000     NO 
 RMS     Displacement     0.178290     0.006667     NO 
 Predicted change in Energy=-1.397345D-02
 GradGradGradGradGradGradGradGradGradGradGradGradGradGradGradGradGradGrad

                          Input orientation:                          
 ---------------------------------------------------------------------
 Center     Atomic      Atomic             Coordinates (Angstroms)
 Number     Number       Type             X           Y           Z
 ---------------------------------------------------------------------
      1          6           0       -2.893528   -6.045951  -15.769864
      2          8           0       -3.902912   -6.120806  -14.810971
      3          1           0       -3.267645   -6.418188  -16.756788
      4          1           0       -1.976179   -6.653949  -15.546796
      5          1           0       -2.540901   -4.997190  -15.963885
      6          6           0       -1.532711   -5.457144  -12.717985
      7          6           0       -2.973503   -4.926339  -12.711969
      8          6           0       -3.136812   -3.495834  -12.785811
      9         17           0       -4.010849   -2.624516  -14.414227
     10          1           0       -0.944529   -5.151710  -11.820773
     11          1           0       -1.499960   -6.565441  -12.756031
     12          1           0       -0.974941   -5.088100  -13.601252
     13          1           0       -3.535520   -5.723245  -13.761822
     14          1           0       -3.599819   -5.386881  -11.919892
     15          1           0       -3.847433   -3.028926  -12.086048
     16          1           0       -2.208077   -2.909301  -12.889418
 ---------------------------------------------------------------------
                    Distance matrix (angstroms):
                    1          2          3          4          5
     1  C    0.000000
     2  O    1.394251   0.000000
     3  H    1.119170   2.068382   0.000000
     4  H    1.122920   2.130254   1.785370   0.000000
     5  H    1.123339   2.108744   1.782158   1.799368   0.000000
     6  C    3.393004   3.230927   4.499502   3.103414   3.429850
     7  C    3.257399   2.587733   4.321190   3.466343   3.281329
     8  C    3.932792   3.402743   4.932132   4.352447   3.565015
     9  Cl   3.846085   3.520384   4.520164   4.653915   3.192455
    10  H    4.493727   4.316534   5.600453   4.147804   4.442709
    11  H    3.360817   3.192907   4.376351   2.832488   3.719314
    12  H    3.049808   3.332105   4.121047   2.690632   2.835935
    13  H    2.132727   1.180570   3.086182   2.546348   2.522995
    14  H    3.969321   2.998141   4.956763   4.170864   4.198458
    15  H    4.856220   4.121651   5.799918   5.349688   4.540783
    16  H    4.313396   4.108357   5.328369   4.597589   3.731273
                    6          7          8          9         10
     6  C    0.000000
     7  C    1.535471   0.000000
     8  C    2.534655   1.441689   0.000000
     9  Cl   4.128218   3.045021   2.043251   0.000000
    10  H    1.115455   2.227500   2.911928   4.745000   0.000000
    11  H    1.109433   2.204524   3.478887   4.958332   1.783773
    12  H    1.107909   2.193454   2.806055   3.993358   1.781875
    13  H    2.274126   1.432869   2.464330   3.202138   3.287485
    14  H    2.216940   1.109846   2.130786   3.744504   2.667525
    15  H    3.413725   2.180758   1.101205   2.368685   3.606027
    16  H    2.641403   2.164673   1.103315   2.378262   2.786926
                   11         12         13         14         15
    11  H    0.000000
    12  H    1.781174   0.000000
    13  H    2.421655   2.643059   0.000000
    14  H    2.549027   3.131490   1.873495   0.000000
    15  H    4.297259   3.845420   3.188238   2.376735   0.000000
    16  H    3.726470   2.602787   3.231327   3.002553   1.829536
                   16
    16  H    0.000000
 Stoichiometry    C4H10ClO(1-)
 Framework group  C1[X(C4H10ClO)]
 Deg. of freedom    42
 Full point group                 C1      NOp   1
 Largest Abelian subgroup         C1      NOp   1
 Largest concise Abelian subgroup C1      NOp   1
                         Standard orientation:                         
 ---------------------------------------------------------------------
 Center     Atomic      Atomic             Coordinates (Angstroms)
 Number     Number       Type             X           Y           Z
 ---------------------------------------------------------------------
      1          6           0       -1.802340    1.504314   -0.445444
      2          8           0       -1.404254    1.107053    0.830349
      3          1           0       -2.171901    2.560513   -0.425188
      4          1           0       -2.636527    0.901964   -0.895172
      5          1           0       -0.965491    1.498273   -1.194802
      6          6           0       -1.251236   -1.843484   -0.477248
      7          6           0       -0.285472   -1.207285    0.532813
      8          6           0        1.093450   -1.094340    0.127491
      9         17           0        1.955138    0.736700   -0.154753
     10          1           0       -1.026812   -2.915230   -0.689929
     11          1           0       -2.302901   -1.803645   -0.126171
     12          1           0       -1.216468   -1.314953   -1.450340
     13          1           0       -0.999791   -0.002067    0.833328
     14          1           0       -0.396678   -1.621794    1.556322
     15          1           0        1.862763   -1.405748    0.851256
     16          1           0        1.324078   -1.432865   -0.896967
 ---------------------------------------------------------------------
 Rotational constants (GHZ):      2.5549233      1.7139207      1.1683064
 Standard basis: def2SVP (5D, 7F)
 There are   144 symmetry adapted cartesian basis functions of A   symmetry.
 There are   138 symmetry adapted basis functions of A   symmetry.
   138 basis functions,   232 primitive gaussians,   144 cartesian basis functions
    30 alpha electrons       30 beta electrons
       nuclear repulsion energy       294.6794096903 Hartrees.
 NAtoms=   16 NActive=   16 NUniq=   16 SFac= 1.00D+00 NAtFMM=   60 NAOKFM=F Big=F
 Integral buffers will be    131072 words long.
 Raffenetti 2 integral format.
 Two-electron integral symmetry is turned on.
 ------------------------------------------------------------------------------
 Polarizable Continuum Model (PCM)
 =================================
 Model                : PCM (using non-symmetric T matrix).
 Atomic radii         : SMD-Coulomb.
 Polarization charges : Total charges.
 Charge compensation  : None.
 Solution method      : On-the-fly selection.
 Cavity type          : VdW (van der Waals Surface) (Alpha=1.000).
 Cavity algorithm     : GePol (No added spheres)
                        Default sphere list used, NSphG=   16.
                        Lebedev-Laikov grids with approx.  5.0 points / Ang**2.
                        Smoothing algorithm: Karplus/York (Gamma=1.0000).
                        Polarization charges: spherical gaussians, with
                                              point-specific exponents (IZeta= 3).
                        Self-potential: point-specific (ISelfS= 7).
                        Self-field    : sphere-specific E.n sum rule (ISelfD= 2).
 1st derivatives      : Analytical E(r).r(x)/FMM algorithm (CHGder, D1EAlg=3).
                        Cavity 1st derivative terms included.
 Solvent              : Water, Eps=  78.355300 Eps(inf)=   1.777849
 ------------------------------------------------------------------------------
 Spheres list:
 ISph  on   Nord     Re0    Alpha      Xe            Ye            Ze
    1   C      1    1.8500  1.000     -1.802340      1.504314     -0.445444
    2   O      2    1.5200  1.000     -1.404254      1.107053      0.830349
    3   H      3    1.2000  1.000     -2.171901      2.560513     -0.425188
    4   H      4    1.2000  1.000     -2.636527      0.901964     -0.895172
    5   H      5    1.2000  1.000     -0.965491      1.498273     -1.194802
    6   C      6    1.8500  1.000     -1.251236     -1.843484     -0.477248
    7   C      7    1.8500  1.000     -0.285472     -1.207285      0.532813
    8   C      8    1.8500  1.000      1.093450     -1.094340      0.127491
    9  Cl      9    2.3800  1.000      1.955138      0.736700     -0.154753
   10   H     10    1.2000  1.000     -1.026812     -2.915230     -0.689929
   11   H     11    1.2000  1.000     -2.302901     -1.803645     -0.126171
   12   H     12    1.2000  1.000     -1.216468     -1.314953     -1.450340
   13   H     13    1.2000  1.000     -0.999791     -0.002067      0.833328
   14   H     14    1.2000  1.000     -0.396678     -1.621794      1.556322
   15   H     15    1.2000  1.000      1.862763     -1.405748      0.851256
   16   H     16    1.2000  1.000      1.324078     -1.432865     -0.896967
 ------------------------------------------------------------------------------
 ------------------------------------------------------------------------------
 Atomic radii for non-electrostatic terms: SMD-CDS.
 ------------------------------------------------------------------------------
 Nuclear repulsion after PCM non-electrostatic terms =      294.6852214763 Hartrees.
 One-electron integrals computed using PRISM.
   1 Symmetry operations used in ECPInt.
 ECPInt:  NShTT=    2346 NPrTT=    8374 LenC2=    2329 LenP2D=    6762.
 LDataN:  DoStor=T MaxTD1= 4 Len=   56
 NBasis=   138 RedAO= T EigKep=  2.56D-03  NBF=   138
 NBsUse=   138 1.00D-06 EigRej= -1.00D+00 NBFU=   138
 Initial guess from the checkpoint file:  "/home/aleph/fd/shug5449/autodE/examples/gaussian_elimination/ts_confs/Gau-204709.chk"
 B after Tr=     0.000000    0.000000    0.000000
         Rot=    0.993324    0.001556    0.021155   -0.113392 Ang=  13.25 deg.
 ExpMin= 1.22D-01 ExpMax= 1.04D+04 ExpMxC= 1.57D+03 IAcc=1 IRadAn=         1 AccDes= 0.00D+00
 Harris functional with IExCor= 1009 and IRadAn=       1 diagonalized for initial guess.
 HarFok:  IExCor= 1009 AccDes= 0.00D+00 IRadAn=         1 IDoV= 1 UseB2=F ITyADJ=14
 ICtDFT=  3500011 ScaDFX=  1.000000  1.000000  1.000000  1.000000
 FoFCou: FMM=F IPFlag=           0 FMFlag=      100000 FMFlg1=           0
         NFxFlg=           0 DoJE=T BraDBF=F KetDBF=T FulRan=T
         wScrn=  0.000000 ICntrl=     500 IOpCl=  0 I1Cent=   200000004 NGrid=           0
         NMat0=    1 NMatS0=      1 NMatT0=    0 NMatD0=    1 NMtDS0=    0 NMtDT0=    0
 Petite list used in FoFCou.
 Keep J ints in memory in canonical form, NReq=51108263.
 Requested convergence on RMS density matrix=1.00D-08 within 128 cycles.
 Requested convergence on MAX density matrix=1.00D-06.
 Requested convergence on             energy=1.00D-06.
 No special actions if energy rises.
 Inv3:  Mode=1 IEnd=     5274828.
 Iteration    1 A*A^-1 deviation from unit magnitude is 5.55D-15 for    290.
 Iteration    1 A*A^-1 deviation from orthogonality  is 4.70D-15 for    622    411.
 Iteration    1 A^-1*A deviation from unit magnitude is 5.44D-15 for    226.
 Iteration    1 A^-1*A deviation from orthogonality  is 1.25D-13 for    823    801.
 Error on total polarization charges =  0.03693
 SCF Done:  E(RPBE-PBE) =  -693.096474963     A.U. after   12 cycles
            NFock= 12  Conv=0.99D-08     -V/T= 2.0049
 SMD-CDS (non-electrostatic) energy       (kcal/mol) =       3.65
 (included in total energy above)
   1 Symmetry operations used in ECPInt.
 ECPInt:  NShTT=    2346 NPrTT=    8374 LenC2=    2329 LenP2D=    6762.
 LDataN:  DoStor=T MaxTD1= 5 Len=  102
 D1PCM: PCM CHGder 1st derivatives, ID1Alg=3 FixD1E=F DoIter=F DoCFld=F I1PDM=0.
 Calling FoFJK, ICntrl=      2527 FMM=F ISym2X=0 I1Cent= 0 IOpClX= 0 NMat=1 NMatS=1 NMatT=0.
 ***** Axes restored to original set *****
 -------------------------------------------------------------------
 Center     Atomic                   Forces (Hartrees/Bohr)
 Number     Number              X              Y              Z
 -------------------------------------------------------------------
      1        6          -0.002346551    0.003070514    0.001423554
      2        8          -0.007501085   -0.015808226    0.002475437
      3        1           0.000610567   -0.000249441   -0.000968043
      4        1           0.000919983   -0.000440011    0.000003202
      5        1           0.001870698    0.000689668   -0.000015869
      6        6          -0.005846138    0.003239790    0.002337606
      7        6           0.004553963   -0.006156281    0.008822187
      8        6           0.004572445   -0.005152073    0.011105228
      9       17          -0.007020880    0.003248270   -0.016127483
     10        1           0.001964597   -0.000409035    0.000693210
     11        1           0.000290844   -0.001265259   -0.000601401
     12        1           0.001786760    0.000171959   -0.001737857
     13        1           0.003025928    0.017190810   -0.016768704
     14        1           0.000166812    0.001110237    0.002700052
     15        1           0.001538949    0.000019325    0.003019042
     16        1           0.001413108    0.000739751    0.003639838
 -------------------------------------------------------------------
 Cartesian Forces:  Max     0.017190810 RMS     0.005858505

 GradGradGradGradGradGradGradGradGradGradGradGradGradGradGradGradGradGrad
 Berny optimization.
 Using GEDIIS/GDIIS optimizer.
 FormGI is forming the generalized inverse of G from B-inverse, IUseBI=4.
 Internal  Forces:  Max     0.024173088 RMS     0.004475303
 Search for a local minimum.
 Step number   2 out of a maximum of   76
 All quantities printed in internal units (Hartrees-Bohrs-Radians)
 Mixed Optimization -- RFO/linear search
 Update second derivatives using D2CorX and points    1    2
 DE= -1.33D-02 DEPred=-1.40D-02 R= 9.54D-01
 TightC=F SS=  1.41D+00  RLast= 3.77D-01 DXNew= 5.0454D-01 1.1308D+00
 Trust test= 9.54D-01 RLast= 3.77D-01 DXMaxT set to 5.05D-01
 ITU=  1  0
 Use linear search instead of GDIIS.
     Eigenvalues ---    0.00229   0.00232   0.00519   0.01907   0.02062
     Eigenvalues ---    0.03468   0.04843   0.05302   0.05311   0.05522
     Eigenvalues ---    0.05752   0.08601   0.09727   0.10317   0.12348
     Eigenvalues ---    0.14247   0.16000   0.16000   0.16000   0.16000
     Eigenvalues ---    0.16000   0.16000   0.16000   0.16503   0.18194
     Eigenvalues ---    0.18511   0.25630   0.30864   0.32951   0.33154
     Eigenvalues ---    0.33391   0.34299   0.34947   0.35152   0.35342
     Eigenvalues ---    0.35648   0.36484   0.44849   0.512301000.00000
     Eigenvalues --- 1000.000001000.000001000.000001000.000001000.00000
     Eigenvalues --- 1000.000001000.000001000.000001000.000001000.00000
     Eigenvalues --- 1000.000001000.000001000.000001000.000001000.00000
     Eigenvalues --- 1000.000001000.000001000.000001000.000001000.00000
     Eigenvalues --- 1000.000001000.000001000.000001000.000001000.00000
     Eigenvalues --- 1000.00000
 RFO step:  Lambda=-1.02103549D-02 EMin= 2.29489251D-03
 Quartic linear search produced a step of  0.38130.
 Iteration  1 RMS(Cart)=  0.10638421 RMS(Int)=  0.06508080
 Iteration  2 RMS(Cart)=  0.12075967 RMS(Int)=  0.04020375
 Iteration  3 RMS(Cart)=  0.11738813 RMS(Int)=  0.01582589
 Iteration  4 RMS(Cart)=  0.06706515 RMS(Int)=  0.00242317
 Iteration  5 RMS(Cart)=  0.00320260 RMS(Int)=  0.00033315
 Iteration  6 RMS(Cart)=  0.00000573 RMS(Int)=  0.00033314
 Iteration  7 RMS(Cart)=  0.00000000 RMS(Int)=  0.00033314
 Iteration  1 RMS(Cart)=  0.00000000 RMS(Int)=  0.00000000
 Variable       Old X    -DE/DX   Delta X   Delta X   Delta X     New X
                                 (Linear)    (Quad)   (Total)
    R1        2.63475   0.00061   0.01603  -0.00416   0.01187   2.64663
    R2        2.11493   0.00073   0.01025  -0.00038   0.00988   2.12480
    R3        2.12201   0.00098   0.01319  -0.00035   0.01284   2.13485
    R4        2.12280   0.00124   0.01172   0.00115   0.01287   2.13567
    R5        2.23095   0.00371   0.00000   0.00000   0.00000   2.23095
    R6        2.90162  -0.00229   0.01209  -0.01331  -0.00122   2.90039
    R7        2.10790   0.00148   0.01444   0.00095   0.01539   2.12330
    R8        2.09652   0.00130   0.01448   0.00016   0.01465   2.11117
    R9        2.09364   0.00234   0.01536   0.00360   0.01896   2.11260
   R10        2.72440  -0.00127   0.02043  -0.01081   0.00962   2.73402
   R11        2.70773   0.00902   0.00000   0.00000   0.00000   2.70773
   R12        2.09730   0.00137   0.01594  -0.00009   0.01585   2.11315
   R13        3.86118   0.01723   0.00000   0.00000   0.00000   3.86118
   R14        2.08098   0.00093   0.01360  -0.00105   0.01255   2.09352
   R15        2.08496   0.00125   0.01434  -0.00011   0.01423   2.09920
    A1        1.92476   0.00139   0.01008   0.01051   0.02023   1.94498
    A2        2.01057  -0.00062   0.02195  -0.01067   0.01090   2.02148
    A3        1.97814   0.00124   0.00792   0.00837   0.01596   1.99410
    A4        1.84230  -0.00070  -0.01589  -0.00289  -0.01912   1.82318
    A5        1.83708  -0.00018  -0.01449   0.00474  -0.01003   1.82705
    A6        1.85810  -0.00127  -0.01336  -0.00988  -0.02355   1.83455
    A7        1.94745  -0.00714   0.00057  -0.05561  -0.05504   1.89241
    A8        1.97902   0.00212   0.00994   0.01770   0.02740   2.00642
    A9        1.95323  -0.00035   0.00591  -0.00578   0.00005   1.95328
   A10        1.93947   0.00071   0.00467   0.00364   0.00815   1.94761
   A11        1.86038  -0.00081  -0.00779  -0.00295  -0.01089   1.84950
   A12        1.85936  -0.00120  -0.00645  -0.00436  -0.01110   1.84827
   A13        1.86561  -0.00072  -0.00787  -0.00990  -0.01776   1.84785
   A14        2.03656   0.00086   0.00112   0.00333   0.00389   2.04045
   A15        1.74458   0.00195  -0.00370   0.02636   0.02227   1.76685
   A16        1.97021  -0.00055  -0.00730  -0.00482  -0.01261   1.95760
   A17        2.05996  -0.00353   0.02772  -0.03793  -0.01030   2.04966
   A18        1.96532  -0.00012  -0.01104  -0.00682  -0.01803   1.94729
   A19        1.64163   0.00143  -0.00441   0.02451   0.02039   1.66202
   A20        2.10878  -0.01129   0.03243  -0.06442  -0.03180   2.07698
   A21        2.05021   0.00078  -0.00723   0.00162  -0.00663   2.04358
   A22        2.02299   0.00128  -0.00708   0.00095  -0.00713   2.01587
   A23        1.62040   0.00657   0.00269   0.05731   0.06015   1.68055
   A24        1.62937   0.00526  -0.00291   0.04029   0.03758   1.66695
   A25        1.95786  -0.00197  -0.00980  -0.02491  -0.03628   1.92158
   A26        2.85952   0.02417   0.07261   0.10300   0.17561   3.03513
    D1       -3.13190   0.00006   0.00200   0.02074   0.02279  -3.10911
    D2        1.06859   0.00036   0.00088   0.02399   0.02483   1.09342
    D3       -1.07750   0.00158  -0.00447   0.03929   0.03481  -1.04269
    D4        0.88863  -0.00334  -0.05921  -0.53197  -0.59118   0.29744
    D5        1.13112   0.00102  -0.01693   0.01826   0.00142   1.13254
    D6       -2.90972  -0.00144   0.01597  -0.00765   0.00836  -2.90136
    D7       -1.18623   0.00090   0.00745   0.03041   0.03785  -1.14838
    D8       -3.04687   0.00124  -0.01577   0.02293   0.00725  -3.03962
    D9       -0.80453  -0.00122   0.01713  -0.00298   0.01419  -0.79034
   D10        0.91896   0.00112   0.00860   0.03508   0.04368   0.96265
   D11       -0.96268   0.00058  -0.01868   0.00897  -0.00974  -0.97242
   D12        1.27966  -0.00189   0.01422  -0.01695  -0.00280   1.27686
   D13        3.00315   0.00046   0.00570   0.02112   0.02669   3.02985
   D14        1.99465  -0.00070   0.00624  -0.02983  -0.02358   1.97107
   D15       -2.33304   0.00019   0.02924   0.00090   0.02981  -2.30323
   D16        0.04953  -0.00053  -0.00816  -0.03784  -0.04559   0.00394
   D17       -0.08457  -0.00117  -0.01233  -0.03741  -0.04991  -0.13448
   D18        1.87092  -0.00028   0.01067  -0.00667   0.00348   1.87440
   D19       -2.02969  -0.00100  -0.02673  -0.04542  -0.07192  -2.10161
   D20       -1.96897  -0.00077  -0.01648  -0.04106  -0.05743  -2.02640
   D21       -0.01348   0.00012   0.00652  -0.01032  -0.00405  -0.01752
   D22        2.36909  -0.00060  -0.03088  -0.04907  -0.07944   2.28965
   D23       -1.59281  -0.00103  -0.01879  -0.12683  -0.14554  -1.73835
   D24        0.63405  -0.00058  -0.00392  -0.12518  -0.12902   0.50503
   D25        2.69902  -0.00110  -0.00962  -0.13149  -0.14127   2.55775
         Item               Value     Threshold  Converged?
 Maximum Force            0.024173     0.002500     NO 
 RMS     Force            0.003842     0.001667     NO 
 Maximum Displacement     1.683033     0.010000     NO 
 RMS     Displacement     0.400425     0.006667     NO 
 Predicted change in Energy=-4.684252D-03
 GradGradGradGradGradGradGradGradGradGradGradGradGradGradGradGradGradGrad

                          Input orientation:                          
 ---------------------------------------------------------------------
 Center     Atomic      Atomic             Coordinates (Angstroms)
 Number     Number       Type             X           Y           Z
 ---------------------------------------------------------------------
      1          6           0       -3.105322   -5.883263  -15.853758
      2          8           0       -3.658412   -6.482478  -14.715106
      3          1           0       -3.409730   -6.423751  -16.791563
      4          1           0       -1.976742   -5.857006  -15.896995
      5          1           0       -3.431523   -4.814154  -16.020600
      6          6           0       -1.493473   -5.507076  -12.445755
      7          6           0       -2.909077   -4.979796  -12.717270
      8          6           0       -3.046691   -3.556432  -12.936985
      9         17           0       -3.602639   -2.888700  -14.786291
     10          1           0       -1.025985   -5.140934  -11.491883
     11          1           0       -1.467152   -6.622679  -12.392467
     12          1           0       -0.785042   -5.223171  -13.262648
     13          1           0       -3.335799   -5.854477  -13.768914
     14          1           0       -3.649489   -5.353499  -11.967216
     15          1           0       -3.845227   -3.033985  -12.374215
     16          1           0       -2.103014   -2.972120  -12.891866
 ---------------------------------------------------------------------
                    Distance matrix (angstroms):
                    1          2          3          4          5
     1  C    0.000000
     2  O    1.400535   0.000000
     3  H    1.124397   2.092120   0.000000
     4  H    1.129713   2.148510   1.781827   0.000000
     5  H    1.130150   2.130517   1.784843   1.794215   0.000000
     6  C    3.788675   3.284558   4.837187   3.502436   4.125009
     7  C    3.269912   2.609771   4.351497   3.427740   3.348488
     8  C    3.731641   3.478170   4.817789   3.898601   3.352408
     9  Cl   3.217797   3.594916   4.068773   3.562028   2.293506
    10  H    4.888829   4.372480   5.951005   4.563081   5.138353
    11  H    3.900112   3.196236   4.813026   3.623211   4.504760
    12  H    3.540236   3.457129   4.558905   2.960013   3.844145
    13  H    2.097743   1.180570   3.076678   2.525029   2.482242
    14  H    3.960048   2.970786   4.947448   4.300554   4.094914
    15  H    4.557748   4.172142   5.585081   4.885761   4.078759
    16  H    4.272257   4.250422   5.369255   4.167651   3.866135
                    6          7          8          9         10
     6  C    0.000000
     7  C    1.534823   0.000000
     8  C    2.541419   1.446782   0.000000
     9  Cl   4.096655   3.022343   2.043251   0.000000
    10  H    1.123600   2.252460   2.946561   4.750245   0.000000
    11  H    1.117184   2.209912   3.491893   4.922732   1.789203
    12  H    1.117940   2.206398   2.828274   3.963596   1.788973
    13  H    2.294689   1.432869   2.461036   3.146758   3.321031
    14  H    2.213818   1.118232   2.129147   3.744944   2.674677
    15  H    3.413509   2.186376   1.107844   2.428594   3.628480
    16  H    2.645102   2.170480   1.110848   2.417577   2.797088
                   11         12         13         14         15
    11  H    0.000000
    12  H    1.783567   0.000000
    13  H    2.444704   2.676043   0.000000
    14  H    2.560127   3.146456   1.896179   0.000000
    15  H    4.305147   3.866080   3.187455   2.363071   0.000000
    16  H    3.739024   2.634722   3.255296   2.986223   1.818542
                   16
    16  H    0.000000
 Stoichiometry    C4H10ClO(1-)
 Framework group  C1[X(C4H10ClO)]
 Deg. of freedom    42
 Full point group                 C1      NOp   1
 Largest Abelian subgroup         C1      NOp   1
 Largest concise Abelian subgroup C1      NOp   1
                         Standard orientation:                         
 ---------------------------------------------------------------------
 Center     Atomic      Atomic             Coordinates (Angstroms)
 Number     Number       Type             X           Y           Z
 ---------------------------------------------------------------------
      1          6           0       -0.354028    2.137608   -0.385854
      2          8           0       -1.110916    1.626339    0.675853
      3          1           0       -0.336361    3.261804   -0.374044
      4          1           0       -0.717541    1.872055   -1.421997
      5          1           0        0.734392    1.833825   -0.368604
      6          6           0       -1.945322   -1.295715   -0.570618
      7          6           0       -0.886651   -0.967198    0.490971
      8          6           0        0.455612   -1.449515    0.248325
      9         17           0        1.944764   -0.096961   -0.109309
     10          1           0       -2.175331   -2.389202   -0.688343
     11          1           0       -2.921674   -0.797872   -0.353848
     12          1           0       -1.637318   -0.936785   -1.583581
     13          1           0       -1.064150    0.447447    0.633757
     14          1           0       -1.233209   -1.218144    1.524106
     15          1           0        0.963143   -1.970686    1.083856
     16          1           0        0.596721   -2.015893   -0.696814
 ---------------------------------------------------------------------
 Rotational constants (GHZ):      2.3557115      1.9519229      1.2032268
 Standard basis: def2SVP (5D, 7F)
 There are   144 symmetry adapted cartesian basis functions of A   symmetry.
 There are   138 symmetry adapted basis functions of A   symmetry.
   138 basis functions,   232 primitive gaussians,   144 cartesian basis functions
    30 alpha electrons       30 beta electrons
       nuclear repulsion energy       297.2075015530 Hartrees.
 NAtoms=   16 NActive=   16 NUniq=   16 SFac= 1.00D+00 NAtFMM=   60 NAOKFM=F Big=F
 Integral buffers will be    131072 words long.
 Raffenetti 2 integral format.
 Two-electron integral symmetry is turned on.
 ------------------------------------------------------------------------------
 Polarizable Continuum Model (PCM)
 =================================
 Model                : PCM (using non-symmetric T matrix).
 Atomic radii         : SMD-Coulomb.
 Polarization charges : Total charges.
 Charge compensation  : None.
 Solution method      : On-the-fly selection.
 Cavity type          : VdW (van der Waals Surface) (Alpha=1.000).
 Cavity algorithm     : GePol (No added spheres)
                        Default sphere list used, NSphG=   16.
                        Lebedev-Laikov grids with approx.  5.0 points / Ang**2.
                        Smoothing algorithm: Karplus/York (Gamma=1.0000).
                        Polarization charges: spherical gaussians, with
                                              point-specific exponents (IZeta= 3).
                        Self-potential: point-specific (ISelfS= 7).
                        Self-field    : sphere-specific E.n sum rule (ISelfD= 2).
 1st derivatives      : Analytical E(r).r(x)/FMM algorithm (CHGder, D1EAlg=3).
                        Cavity 1st derivative terms included.
 Solvent              : Water, Eps=  78.355300 Eps(inf)=   1.777849
 ------------------------------------------------------------------------------
 Spheres list:
 ISph  on   Nord     Re0    Alpha      Xe            Ye            Ze
    1   C      1    1.8500  1.000     -0.354028      2.137608     -0.385854
    2   O      2    1.5200  1.000     -1.110916      1.626339      0.675853
    3   H      3    1.2000  1.000     -0.336361      3.261804     -0.374044
    4   H      4    1.2000  1.000     -0.717541      1.872055     -1.421997
    5   H      5    1.2000  1.000      0.734392      1.833825     -0.368604
    6   C      6    1.8500  1.000     -1.945322     -1.295715     -0.570618
    7   C      7    1.8500  1.000     -0.886651     -0.967198      0.490971
    8   C      8    1.8500  1.000      0.455612     -1.449515      0.248325
    9  Cl      9    2.3800  1.000      1.944764     -0.096961     -0.109309
   10   H     10    1.2000  1.000     -2.175331     -2.389202     -0.688343
   11   H     11    1.2000  1.000     -2.921674     -0.797872     -0.353848
   12   H     12    1.2000  1.000     -1.637318     -0.936785     -1.583581
   13   H     13    1.2000  1.000     -1.064150      0.447447      0.633757
   14   H     14    1.2000  1.000     -1.233209     -1.218144      1.524106
   15   H     15    1.2000  1.000      0.963143     -1.970686      1.083856
   16   H     16    1.2000  1.000      0.596721     -2.015893     -0.696814
 ------------------------------------------------------------------------------
 ------------------------------------------------------------------------------
 Atomic radii for non-electrostatic terms: SMD-CDS.
 ------------------------------------------------------------------------------
 Nuclear repulsion after PCM non-electrostatic terms =      297.2134991417 Hartrees.
 One-electron integrals computed using PRISM.
   1 Symmetry operations used in ECPInt.
 ECPInt:  NShTT=    2346 NPrTT=    8374 LenC2=    2331 LenP2D=    6773.
 LDataN:  DoStor=T MaxTD1= 4 Len=   56
 NBasis=   138 RedAO= T EigKep=  2.51D-03  NBF=   138
 NBsUse=   138 1.00D-06 EigRej= -1.00D+00 NBFU=   138
 Initial guess from the checkpoint file:  "/home/aleph/fd/shug5449/autodE/examples/gaussian_elimination/ts_confs/Gau-204709.chk"
 B after Tr=     0.000000    0.000000    0.000000
         Rot=    0.971588   -0.001510    0.044792    0.232395 Ang= -27.38 deg.
 ExpMin= 1.22D-01 ExpMax= 1.04D+04 ExpMxC= 1.57D+03 IAcc=1 IRadAn=         1 AccDes= 0.00D+00
 Harris functional with IExCor= 1009 and IRadAn=       1 diagonalized for initial guess.
 HarFok:  IExCor= 1009 AccDes= 0.00D+00 IRadAn=         1 IDoV= 1 UseB2=F ITyADJ=14
 ICtDFT=  3500011 ScaDFX=  1.000000  1.000000  1.000000  1.000000
 FoFCou: FMM=F IPFlag=           0 FMFlag=      100000 FMFlg1=           0
         NFxFlg=           0 DoJE=T BraDBF=F KetDBF=T FulRan=T
         wScrn=  0.000000 ICntrl=     500 IOpCl=  0 I1Cent=   200000004 NGrid=           0
         NMat0=    1 NMatS0=      1 NMatT0=    0 NMatD0=    1 NMtDS0=    0 NMtDT0=    0
 Petite list used in FoFCou.
 Keep J ints in memory in canonical form, NReq=51046959.
 Requested convergence on RMS density matrix=1.00D-08 within 128 cycles.
 Requested convergence on MAX density matrix=1.00D-06.
 Requested convergence on             energy=1.00D-06.
 No special actions if energy rises.
 Inv3:  Mode=1 IEnd=     5101248.
 Iteration    1 A*A^-1 deviation from unit magnitude is 6.44D-15 for    345.
 Iteration    1 A*A^-1 deviation from orthogonality  is 6.11D-15 for    795    107.
 Iteration    1 A^-1*A deviation from unit magnitude is 5.44D-15 for    301.
 Iteration    1 A^-1*A deviation from orthogonality  is 7.51D-10 for    583    537.
 Iteration    2 A*A^-1 deviation from unit magnitude is 9.33D-15 for    110.
 Iteration    2 A*A^-1 deviation from orthogonality  is 8.60D-15 for    792    110.
 Iteration    2 A^-1*A deviation from unit magnitude is 1.55D-15 for    160.
 Iteration    2 A^-1*A deviation from orthogonality  is 5.35D-16 for   1241   1009.
 Error on total polarization charges =  0.03786
 SCF Done:  E(RPBE-PBE) =  -693.096291251     A.U. after   13 cycles
            NFock= 13  Conv=0.66D-08     -V/T= 2.0050
 SMD-CDS (non-electrostatic) energy       (kcal/mol) =       3.76
 (included in total energy above)
   1 Symmetry operations used in ECPInt.
 ECPInt:  NShTT=    2346 NPrTT=    8374 LenC2=    2331 LenP2D=    6773.
 LDataN:  DoStor=T MaxTD1= 5 Len=  102
 D1PCM: PCM CHGder 1st derivatives, ID1Alg=3 FixD1E=F DoIter=F DoCFld=F I1PDM=0.
 Calling FoFJK, ICntrl=      2527 FMM=F ISym2X=0 I1Cent= 0 IOpClX= 0 NMat=1 NMatS=1 NMatT=0.
 ***** Axes restored to original set *****
 -------------------------------------------------------------------
 Center     Atomic                   Forces (Hartrees/Bohr)
 Number     Number              X              Y              Z
 -------------------------------------------------------------------
      1        6          -0.003356738    0.002836173   -0.010517488
      2        8           0.001164946   -0.007064991    0.000076284
      3        1           0.000713639   -0.003083457    0.002908814
      4        1          -0.000752596   -0.001007304    0.002495727
      5        1           0.003649848   -0.009075414    0.001758531
      6        6           0.000839747   -0.000099426   -0.001072791
      7        6           0.001377915   -0.004108289    0.011687178
      8        6           0.006676371   -0.000738081    0.015224867
      9       17          -0.004945437    0.010539500   -0.005722948
     10        1          -0.001647735   -0.000519521   -0.002686065
     11        1          -0.000566657    0.002904212   -0.000720230
     12        1          -0.002032527   -0.000492908    0.001694057
     13        1          -0.001835737    0.010539555   -0.010479659
     14        1           0.002314313    0.001701113   -0.002114858
     15        1           0.000940458   -0.001528222   -0.002292326
     16        1          -0.002539807   -0.000802939   -0.000239093
 -------------------------------------------------------------------
 Cartesian Forces:  Max     0.015224867 RMS     0.004975047

 GradGradGradGradGradGradGradGradGradGradGradGradGradGradGradGradGradGrad
 Berny optimization.
 Using GEDIIS/GDIIS optimizer.
 FormGI is forming the generalized inverse of G from B-inverse, IUseBI=4.
 Internal  Forces:  Max     0.054377188 RMS     0.010160069
 Search for a local minimum.
 Step number   3 out of a maximum of   76
 All quantities printed in internal units (Hartrees-Bohrs-Radians)
 Mixed Optimization -- RFO/linear search
 Update second derivatives using D2CorX and points    1    3    2
 DE=  1.84D-04 DEPred=-4.68D-03 R=-3.92D-02
 Trust test=-3.92D-02 RLast= 6.95D-01 DXMaxT set to 2.52D-01
 ITU= -1  1  0
 Use linear search instead of GDIIS.
 Energy rises -- skip Quadratic/GDIIS search.
 Quartic linear search produced a step of -0.50514.
 Iteration  1 RMS(Cart)=  0.13756769 RMS(Int)=  0.01783258
 Iteration  2 RMS(Cart)=  0.07779593 RMS(Int)=  0.00313742
 Iteration  3 RMS(Cart)=  0.00407018 RMS(Int)=  0.00004521
 Iteration  4 RMS(Cart)=  0.00001118 RMS(Int)=  0.00004495
 Iteration  5 RMS(Cart)=  0.00000000 RMS(Int)=  0.00004495
 Iteration  1 RMS(Cart)=  0.00000000 RMS(Int)=  0.00000000
 Variable       Old X    -DE/DX   Delta X   Delta X   Delta X     New X
                                 (Linear)    (Quad)   (Total)
    R1        2.64663  -0.00160  -0.00600   0.00000  -0.00600   2.64063
    R2        2.12480  -0.00114  -0.00499   0.00000  -0.00499   2.11981
    R3        2.13485  -0.00087  -0.00648   0.00000  -0.00648   2.12836
    R4        2.13567  -0.00990  -0.00650   0.00000  -0.00650   2.12917
    R5        2.23095   0.01150   0.00000   0.00000   0.00000   2.23095
    R6        2.90039  -0.00428   0.00062   0.00000   0.00062   2.90101
    R7        2.12330  -0.00314  -0.00778   0.00000  -0.00778   2.11552
    R8        2.11117  -0.00293  -0.00740   0.00000  -0.00740   2.10377
    R9        2.11260  -0.00267  -0.00958   0.00000  -0.00958   2.10303
   R10        2.73402   0.00631  -0.00486   0.00000  -0.00486   2.72916
   R11        2.70773   0.01441   0.00000   0.00000   0.00000   2.70773
   R12        2.11315  -0.00352  -0.00801   0.00000  -0.00801   2.10515
   R13        3.86118   0.00997   0.00000   0.00000   0.00000   3.86118
   R14        2.09352  -0.00258  -0.00634   0.00000  -0.00634   2.08718
   R15        2.09920  -0.00257  -0.00719   0.00000  -0.00719   2.09201
    A1        1.94498  -0.00395  -0.01022   0.00000  -0.01018   1.93481
    A2        2.02148  -0.00418  -0.00551   0.00000  -0.00549   2.01599
    A3        1.99410   0.00289  -0.00806   0.00000  -0.00803   1.98607
    A4        1.82318   0.00166   0.00966   0.00000   0.00968   1.83286
    A5        1.82705   0.00342   0.00506   0.00000   0.00511   1.83216
    A6        1.83455   0.00096   0.01189   0.00000   0.01190   1.84646
    A7        1.89241   0.02771   0.02780   0.00000   0.02780   1.92021
    A8        2.00642  -0.00044  -0.01384   0.00000  -0.01380   1.99262
    A9        1.95328  -0.00062  -0.00003   0.00000  -0.00002   1.95326
   A10        1.94761  -0.00046  -0.00411   0.00000  -0.00409   1.94352
   A11        1.84950   0.00082   0.00550   0.00000   0.00552   1.85501
   A12        1.84827   0.00048   0.00561   0.00000   0.00566   1.85393
   A13        1.84785   0.00039   0.00897   0.00000   0.00897   1.85681
   A14        2.04045  -0.00380  -0.00197   0.00000  -0.00194   2.03851
   A15        1.76685  -0.01361  -0.01125   0.00000  -0.01126   1.75559
   A16        1.95760   0.00536   0.00637   0.00000   0.00644   1.96403
   A17        2.04966   0.02198   0.00520   0.00000   0.00523   2.05489
   A18        1.94729  -0.00578   0.00911   0.00000   0.00914   1.95643
   A19        1.66202  -0.00325  -0.01030   0.00000  -0.01032   1.65170
   A20        2.07698   0.02077   0.01607   0.00000   0.01600   2.09298
   A21        2.04358  -0.00469   0.00335   0.00000   0.00346   2.04704
   A22        2.01587  -0.00152   0.00360   0.00000   0.00373   2.01960
   A23        1.68055  -0.00972  -0.03038   0.00000  -0.03045   1.65010
   A24        1.66695  -0.00717  -0.01898   0.00000  -0.01902   1.64793
   A25        1.92158   0.00185   0.01833   0.00000   0.01854   1.94012
[...]
 Iteration  2 RMS(Cart)=  0.00150532 RMS(Int)=  0.00123157
 Iteration  3 RMS(Cart)=  0.00000672 RMS(Int)=  0.00123120
 SLEqS3 Cycle:   481 Max:0.519453E-02 RMS:0.104917E-02 Conv:0.397295E-03
 SLEqS3 Cycle:    45 Max:0.387475E-02 RMS: 79.9889     Conv:0.397295E-03
 Iteration  4 RMS(Cart)=  0.00007508 RMS(Int)=  0.00123100
 Iteration  5 RMS(Cart)=  0.00001333 RMS(Int)=  0.00123093
 SLEqS3 Cycle:    15 Max:0.547633E-02 RMS: 110.940     Conv:0.551034E-03
 Iteration  6 RMS(Cart)=  0.00000472 RMS(Int)=  0.00123093
 SLEqS3 Cycle:   481 Max:0.657860E-02 RMS:0.131395E-02 Conv:0.461063E-04
 SLEqS3 Cycle:   481 Max:0.661434E-02 RMS:0.131458E-02 Conv:0.461063E-04
 New curvilinear step failed, DQL= 6.28D+00 SP=-7.33D-02.
 ITry= 9 IFail=1 DXMaxC= 9.14D-03 DCOld= 1.00D+10 DXMaxT= 7.86D-02 DXLimC= 3.00D+00 Rises=T
 SLEqS3 Cycle:   481 Max:0.239683E-02 RMS:0.605123E-03 Conv:0.639140E-08
 SLEqS3 Cycle:   481 Max:0.239683E-02 RMS:0.605123E-03 Conv:0.639140E-08
 Iteration  1 RMS(Cart)=  0.00028296 RMS(Int)=  0.00063626
 Iteration  2 RMS(Cart)=  0.00057056 RMS(Int)=  0.00061761
 Iteration  3 RMS(Cart)=  0.00013647 RMS(Int)=  0.00061579
 New curvilinear step failed:  FormB failed.
 ITry=10 IFail=2 DXMaxC= 4.73D-03 DCOld= 1.00D+10 DXMaxT= 7.86D-02 DXLimC= 3.00D+00 Rises=T
 Variable       Old X    -DE/DX   Delta X   Delta X   Delta X     New X
                                 (Linear)    (Quad)   (Total)
    R1        2.64250   0.00053   0.00000   0.00275   0.00029   2.64279
    R2        2.11568   0.00022   0.00000   0.00113   0.00011   2.11579
    R3        2.12893   0.00000   0.00000  -0.00002   0.00000   2.12893
    R4        2.12132   0.00053   0.00000   0.00276   0.00028   2.12161
    R5        2.23096   0.00315   0.00000   0.00000   0.00000   2.23096
    R6        2.88579   0.00017   0.00000   0.00091   0.00010   2.88589
    R7        2.11261   0.00025   0.00000   0.00129   0.00013   2.11274
    R8        2.10134   0.00039   0.00000   0.00205   0.00021   2.10155
    R9        2.10217   0.00036   0.00000   0.00189   0.00019   2.10236
   R10        2.73462  -0.00098   0.00000  -0.00513  -0.00053   2.73408
   R11        2.70773   0.00440   0.00000   0.00000   0.00000   2.70773
   R12        2.09976   0.00032   0.00000   0.00168   0.00017   2.09994
   R13        3.86100   0.01183   0.00000   0.00000   0.00000   3.86100
   R14        2.08548   0.00015   0.00000   0.00080   0.00008   2.08556
   R15        2.09023   0.00019   0.00000   0.00101   0.00011   2.09034
    A1        1.93753   0.00003   0.00000   0.00016   0.00002   1.93755
    A2        1.99892   0.00021   0.00000   0.00108   0.00011   1.99903
    A3        1.98335   0.00002   0.00000   0.00010   0.00001   1.98336
    A4        1.83600  -0.00025   0.00000  -0.00129  -0.00013   1.83587
    A5        1.85104  -0.00017   0.00000  -0.00089  -0.00009   1.85095
    A6        1.84465   0.00012   0.00000   0.00062   0.00006   1.84471
    A7        1.88159  -0.00090   0.00000  -0.00471  -0.00051   1.88108
    A8        2.00333   0.00027   0.00000   0.00140   0.00016   2.00348
    A9        1.95058   0.00003   0.00000   0.00013   0.00001   1.95059
   A10        1.94075  -0.00018   0.00000  -0.00096  -0.00011   1.94064
   A11        1.85780  -0.00019   0.00000  -0.00099  -0.00011   1.85770
   A12        1.85118   0.00006   0.00000   0.00032   0.00003   1.85121
   A13        1.85054   0.00000   0.00000   0.00002   0.00001   1.85055
   A14        2.03717   0.00064   0.00000   0.00337   0.00035   2.03752
   A15        1.76825   0.00032   0.00000   0.00169   0.00018   1.76842
   A16        1.97384  -0.00030   0.00000  -0.00157  -0.00017   1.97367
   A17        2.01633  -0.00119   0.00000  -0.00622  -0.00064   2.01569
   A18        1.95497   0.00001   0.00000   0.00005   0.00001   1.95497
   A19        1.67417   0.00040   0.00000   0.00207   0.00021   1.67439
   A20        2.03984  -0.00087   0.00000  -0.00456  -0.00047   2.03937
   A21        2.04348  -0.00003   0.00000  -0.00016  -0.00002   2.04346
   A22        2.03788   0.00004   0.00000   0.00020   0.00002   2.03789
   A23        1.68044   0.00063   0.00000   0.00331   0.00034   1.68078
   A24        1.66695   0.00034   0.00000   0.00177   0.00018   1.66713
   A25        1.93097   0.00000   0.00000  -0.00002   0.00000   1.93097
   A26        3.14159   0.00957   0.00000   0.05000   0.00000   3.14159
    D1       -3.06725   0.00054   0.00000   0.00284   0.00029  -3.06696
    D2        1.14001   0.00070   0.00000   0.00365   0.00038   1.14038
    D3       -0.98259   0.00036   0.00000   0.00187   0.00019  -0.98240
    D4        0.65592  -0.00124   0.00000  -0.00647  -0.00069   0.65522
    D5        1.18230   0.00049   0.00000   0.00254   0.00026   1.18256
    D6       -2.89563  -0.00039   0.00000  -0.00202  -0.00021  -2.89584
    D7       -1.12378   0.00013   0.00000   0.00066   0.00007  -1.12371
    D8       -2.98323   0.00046   0.00000   0.00238   0.00025  -2.98299
    D9       -0.77798  -0.00042   0.00000  -0.00218  -0.00022  -0.77820
   D10        0.99387   0.00010   0.00000   0.00050   0.00005   0.99393
   D11       -0.91899   0.00035   0.00000   0.00185   0.00019  -0.91880
   D12        1.28627  -0.00052   0.00000  -0.00271  -0.00028   1.28598
   D13        3.05812  -0.00001   0.00000  -0.00003   0.00000   3.05811
   D14        1.92611  -0.00045   0.00000  -0.00235  -0.00024   1.92586
   D15       -2.37814  -0.00029   0.00000  -0.00149  -0.00015  -2.37829
   D16       -0.03026  -0.00028   0.00000  -0.00148  -0.00015  -0.03042
   D17       -0.14967  -0.00043   0.00000  -0.00227  -0.00023  -0.14991
   D18        1.82927  -0.00027   0.00000  -0.00141  -0.00015   1.82912
   D19       -2.10604  -0.00027   0.00000  -0.00139  -0.00014  -2.10619
   D20       -2.04241  -0.00024   0.00000  -0.00125  -0.00013  -2.04254
   D21       -0.06347  -0.00007   0.00000  -0.00039  -0.00004  -0.06351
   D22        2.28441  -0.00007   0.00000  -0.00038  -0.00004   2.28437
   D23       -1.54632  -0.00057   0.00000  -0.00297  -0.00025  -1.54657
   D24        0.67262  -0.00024   0.00000  -0.00124  -0.00007   0.67255
   D25        2.72944  -0.00043   0.00000  -0.00225  -0.00017   2.72926
         Item               Value     Threshold  Converged?
 Maximum Force            0.009573     0.002500     NO 
 RMS     Force            0.001280     0.001667     YES
 Maximum Displacement     0.004727     0.010000     YES
 RMS     Displacement     0.001104     0.006667     YES
 Predicted change in Energy=-5.265590D-06
 GradGradGradGradGradGradGradGradGradGradGradGradGradGradGradGradGradGrad

                          Input orientation:                          
 ---------------------------------------------------------------------
 Center     Atomic      Atomic             Coordinates (Angstroms)
 Number     Number       Type             X           Y           Z
 ---------------------------------------------------------------------
      1          6           0       -2.978354   -6.062365  -15.827103
      2          8           0       -3.874970   -6.236887  -14.768128
      3          1           0       -3.363300   -6.542616  -16.762381
      4          1           0       -1.961438   -6.517070  -15.658852
      5          1           0       -2.790772   -4.985994  -16.085384
      6          6           0       -1.512155   -5.438637  -12.644599
      7          6           0       -2.946617   -4.918956  -12.711119
      8          6           0       -3.117122   -3.483161  -12.762998
      9         17           0       -3.795433   -2.697508  -14.522865
     10          1           0       -0.973306   -5.207049  -11.692776
     11          1           0       -1.467319   -6.542610  -12.771023
     12          1           0       -0.890949   -5.010341  -13.462140
     13          1           0       -3.455605   -5.641537  -13.838914
     14          1           0       -3.616287   -5.391041  -11.960432
     15          1           0       -3.904556   -3.047295  -12.124275
     16          1           0       -2.197137   -2.870452  -12.720541
 ---------------------------------------------------------------------
                    Distance matrix (angstroms):
                    1          2          3          4          5
     1  C    0.000000
     2  O    1.398502   0.000000
     3  H    1.119629   2.081423   0.000000
     4  H    1.126580   2.129201   1.784277   0.000000
     5  H    1.122706   2.115510   1.791420   1.792740   0.000000
     6  C    3.559088   3.275588   4.647756   3.232738   3.698479
     7  C    3.319299   2.613440   4.384360   3.494807   3.378527
     8  C    4.007529   3.489683   5.041422   4.350424   3.661046
     9  Cl   3.700124   3.548757   4.470685   4.386691   2.947537
    10  H    4.673804   4.351783   5.761659   4.292124   4.758892
    11  H    3.442889   3.143037   4.418787   2.929909   3.893529
    12  H    3.325217   3.480576   4.399089   2.870841   3.239032
    13  H    2.087525   1.180571   3.060575   2.512224   2.432769
    14  H    3.976025   2.943727   4.944577   4.205327   4.226200
    15  H    4.864096   4.142986   5.832860   5.320553   4.548566
    16  H    4.522094   4.282595   5.584012   4.689035   4.018717
                    6          7          8          9         10
     6  C    0.000000
     7  C    1.527146   0.000000
     8  C    2.532553   1.446815   0.000000
     9  Cl   4.031752   2.989605   2.043155   0.000000
    10  H    1.118016   2.239192   2.951799   4.719279   0.000000
    11  H    1.112093   2.197308   3.475938   4.824300   1.786166
    12  H    1.112523   2.190469   2.788714   3.861393   1.782168
    13  H    2.290099   1.432869   2.435314   3.041476   3.310061
    14  H    2.213079   1.111239   2.129151   3.721998   2.662864
    15  H    3.422402   2.182922   1.103630   2.426415   3.666464
    16  H    2.659048   2.181325   1.106159   2.415125   2.830856
                   11         12         13         14         15
    11  H    0.000000
    12  H    1.776990   0.000000
    13  H    2.430145   2.667926   0.000000
    14  H    2.569286   3.134888   1.901910   0.000000
    15  H    4.309946   3.837351   3.141916   2.367085   0.000000
    16  H    3.744319   2.614425   3.242439   2.990839   1.817165
                   16
    16  H    0.000000
 Stoichiometry    C4H10ClO(1-)
 Framework group  C1[X(C4H10ClO)]
 Deg. of freedom    42
 Full point group                 C1      NOp   1
 Largest Abelian subgroup         C1      NOp   1
 Largest concise Abelian subgroup C1      NOp   1
                         Standard orientation:                         
 ---------------------------------------------------------------------
 Center     Atomic      Atomic             Coordinates (Angstroms)
 Number     Number       Type             X           Y           Z
 ---------------------------------------------------------------------
      1          6           0       -1.881984    1.417162   -0.429654
      2          8           0       -1.626493    0.878313    0.835325
      3          1           0       -2.453186    2.376773   -0.349375
      4          1           0       -2.502651    0.759575   -1.101617
      5          1           0       -0.953059    1.656690   -1.012916
      6          6           0       -0.934836   -2.011723   -0.542637
      7          6           0       -0.138987   -1.246056    0.512140
      8          6           0        1.254649   -0.991536    0.218418
      9         17           0        1.778332    0.946226   -0.162788
     10          1           0       -0.630713   -3.079296   -0.675890
     11          1           0       -2.022733   -2.020840   -0.312101
     12          1           0       -0.836947   -1.536438   -1.543751
     13          1           0       -0.954541   -0.081329    0.689333
     14          1           0       -0.282112   -1.643972    1.539773
     15          1           0        1.978200   -1.154009    1.035776
     16          1           0        1.644991   -1.396578   -0.734032
 ---------------------------------------------------------------------
 Rotational constants (GHZ):      2.4312512      1.7888340      1.1803146
 Standard basis: def2SVP (5D, 7F)
 There are   144 symmetry adapted cartesian basis functions of A   symmetry.
 There are   138 symmetry adapted basis functions of A   symmetry.
   138 basis functions,   232 primitive gaussians,   144 cartesian basis functions
    30 alpha electrons       30 beta electrons
       nuclear repulsion energy       294.7624928882 Hartrees.
 NAtoms=   16 NActive=   16 NUniq=   16 SFac= 1.00D+00 NAtFMM=   60 NAOKFM=F Big=F
 Integral buffers will be    131072 words long.
 Raffenetti 2 integral format.
 Two-electron integral symmetry is turned on.
 ------------------------------------------------------------------------------
 Polarizable Continuum Model (PCM)
 =================================
 Model                : PCM (using non-symmetric T matrix).
 Atomic radii         : SMD-Coulomb.
 Polarization charges : Total charges.
 Charge compensation  : None.
 Solution method      : On-the-fly selection.
 Cavity type          : VdW (van der Waals Surface) (Alpha=1.000).
 Cavity algorithm     : GePol (No added spheres)
                        Default sphere list used, NSphG=   16.
                        Lebedev-Laikov grids with approx.  5.0 points / Ang**2.
                        Smoothing algorithm: Karplus/York (Gamma=1.0000).
                        Polarization charges: spherical gaussians, with
                                              point-specific exponents (IZeta= 3).
                        Self-potential: point-specific (ISelfS= 7).
                        Self-field    : sphere-specific E.n sum rule (ISelfD= 2).
 1st derivatives      : Analytical E(r).r(x)/FMM algorithm (CHGder, D1EAlg=3).
                        Cavity 1st derivative terms included.
 Solvent              : Water, Eps=  78.355300 Eps(inf)=   1.777849
 ------------------------------------------------------------------------------
 Spheres list:
 ISph  on   Nord     Re0    Alpha      Xe            Ye            Ze
    1   C      1    1.8500  1.000     -1.881984      1.417162     -0.429654
    2   O      2    1.5200  1.000     -1.626493      0.878313      0.835325
    3   H      3    1.2000  1.000     -2.453186      2.376773     -0.349375
    4   H      4    1.2000  1.000     -2.502651      0.759575     -1.101617
    5   H      5    1.2000  1.000     -0.953059      1.656690     -1.012916
    6   C      6    1.8500  1.000     -0.934836     -2.011723     -0.542637
    7   C      7    1.8500  1.000     -0.138987     -1.246056      0.512140
    8   C      8    1.8500  1.000      1.254649     -0.991536      0.218418
    9  Cl      9    2.3800  1.000      1.778332      0.946226     -0.162788
   10   H     10    1.2000  1.000     -0.630713     -3.079296     -0.675890
   11   H     11    1.2000  1.000     -2.022733     -2.020840     -0.312101
   12   H     12    1.2000  1.000     -0.836947     -1.536438     -1.543751
   13   H     13    1.2000  1.000     -0.954541     -0.081329      0.689333
   14   H     14    1.2000  1.000     -0.282112     -1.643972      1.539773
   15   H     15    1.2000  1.000      1.978200     -1.154009      1.035776
   16   H     16    1.2000  1.000      1.644991     -1.396578     -0.734032
 ------------------------------------------------------------------------------
 ------------------------------------------------------------------------------
 Atomic radii for non-electrostatic terms: SMD-CDS.
 ------------------------------------------------------------------------------
 Nuclear repulsion after PCM non-electrostatic terms =      294.7684572911 Hartrees.
 One-electron integrals computed using PRISM.
   1 Symmetry operations used in ECPInt.
 ECPInt:  NShTT=    2346 NPrTT=    8374 LenC2=    2329 LenP2D=    6754.
 LDataN:  DoStor=T MaxTD1= 4 Len=   56
 NBasis=   138 RedAO= T EigKep=  2.45D-03  NBF=   138
 NBsUse=   138 1.00D-06 EigRej= -1.00D+00 NBFU=   138
 Initial guess from the checkpoint file:  "/home/aleph/fd/shug5449/autodE/examples/gaussian_elimination/ts_confs/Gau-204709.chk"
 B after Tr=     0.000000    0.000000    0.000000
         Rot=    1.000000   -0.000030   -0.000011    0.000340 Ang=  -0.04 deg.
 Keep J ints in memory in canonical form, NReq=51122109.
 Requested convergence on RMS density matrix=1.00D-08 within 128 cycles.
 Requested convergence on MAX density matrix=1.00D-06.
 Requested convergence on             energy=1.00D-06.
 No special actions if energy rises.
 Inv3:  Mode=1 IEnd=     5314683.
 Iteration    1 A*A^-1 deviation from unit magnitude is 6.33D-15 for   1204.
 Iteration    1 A*A^-1 deviation from orthogonality  is 4.49D-15 for    666    409.
 Iteration    1 A^-1*A deviation from unit magnitude is 6.11D-15 for   1204.
 Iteration    1 A^-1*A deviation from orthogonality  is 4.58D-09 for    771    747.
 Iteration    2 A*A^-1 deviation from unit magnitude is 8.66D-15 for    250.
 Iteration    2 A*A^-1 deviation from orthogonality  is 7.96D-15 for    717     48.
 Iteration    2 A^-1*A deviation from unit magnitude is 1.67D-15 for    188.
 Iteration    2 A^-1*A deviation from orthogonality  is 6.77D-16 for    980    155.
 Error on total polarization charges =  0.03720
 SCF Done:  E(RPBE-PBE) =  -693.103143768     A.U. after    8 cycles
            NFock=  8  Conv=0.38D-08     -V/T= 2.0050
 SMD-CDS (non-electrostatic) energy       (kcal/mol) =       3.74
 (included in total energy above)
   1 Symmetry operations used in ECPInt.
 ECPInt:  NShTT=    2346 NPrTT=    8374 LenC2=    2329 LenP2D=    6754.
 LDataN:  DoStor=T MaxTD1= 5 Len=  102
 D1PCM: PCM CHGder 1st derivatives, ID1Alg=3 FixD1E=F DoIter=F DoCFld=F I1PDM=0.
 Calling FoFJK, ICntrl=      2527 FMM=F ISym2X=0 I1Cent= 0 IOpClX= 0 NMat=1 NMatS=1 NMatT=0.
 ***** Axes restored to original set *****
 -------------------------------------------------------------------
 Center     Atomic                   Forces (Hartrees/Bohr)
 Number     Number              X              Y              Z
 -------------------------------------------------------------------
      1        6           0.000265021    0.000590740    0.000340633
      2        8           0.000309263   -0.006484867   -0.000305153
      3        1          -0.000065394    0.000168416   -0.000272962
      4        1          -0.000112749   -0.000359756   -0.000310712
      5        1           0.000125186    0.000424047   -0.000047025
      6        6          -0.000227047    0.000185506   -0.000089675
      7        6           0.003243510   -0.000275197    0.005417253
      8        6           0.003314836   -0.005105155    0.009245329
      9       17          -0.003643822    0.004295042   -0.010428501
     10        1           0.000160830   -0.000190830    0.000198580
     11        1           0.000105751   -0.000303872   -0.000046348
     12        1           0.000067657    0.000117056   -0.000320173
     13        1          -0.003469912    0.006914983   -0.004471545
     14        1           0.000058442    0.000115661    0.000534228
     15        1          -0.000231865   -0.000151343    0.000072757
     16        1           0.000100294    0.000059569    0.000483315
 -------------------------------------------------------------------
 Cartesian Forces:  Max     0.010428501 RMS     0.002983198

 GradGradGradGradGradGradGradGradGradGradGradGradGradGradGradGradGradGrad
 Berny optimization.
 Using GEDIIS/GDIIS optimizer.
 Bend failed for angle     2 -    13 -     7
 Tors failed for dihedral     1 -     2 -    13 -     7
 Tors failed for dihedral     6 -     7 -    13 -     2
 Tors failed for dihedral     8 -     7 -    13 -     2
 Tors failed for dihedral    14 -     7 -    13 -     2
 FormBX had a problem.
 Error termination via Lnk1e in /usr/local/gaussian/g09/l103.exe at Fri Dec 13 15:41:23 2019.
 Job cpu time:       0 days  0 hours 10 minutes 37.6 seconds.
 File lengths (MBytes):  RWF=    164 Int=      0 D2E=      0 Chk=      5 Scr=      2
