      -----------------------------------------------------------      
     |                   =====================                   |     
     |                           x T B                           |     
     |                   =====================                   |     
     |                         S. Grimme                         |     
     |          Mulliken Center for Theoretical Chemistry        |     
     |                    University of Bonn                     |     
      -----------------------------------------------------------      

   * xtb version 6.2.3 (830e466) compiled by 'ehlert@majestix' on 2020-03-16

   xtb is free software: you can redistribute it and/or modify it under
   the terms of the GNU Lesser General Public License as published by
   the Free Software Foundation, either version 3 of the License, or
   (at your option) any later version.
   
   xtb is distributed in the hope that it will be useful,
   but WITHOUT ANY WARRANTY; without even the implied warranty of
   MERCHANTABILITY or FITNESS FOR A PARTICULAR PURPOSE.  See the
   GNU Lesser General Public License for more details.
   
   Cite this work as:
   * S. Grimme, C. Bannwarth, P. Shushkov, J. Chem. Theory Comput., 2017,
     13, 1989-2009. DOI: 10.1021/acs.jctc.7b00118
   * C. Bannwarth, S. Ehlert and S. Grimme., J. Chem. Theory Comput., 2019,
     15, 1652-1671. DOI: 10.1021/acs.jctc.8b01176
   * P. Pracht, E. Caldeweyher, S. Ehlert, S. Grimme, ChemRxiv, 2019, preprint.
     DOI: 10.26434/chemrxiv.8326202.v1
   
   for DFT-D4:
   * E. Caldeweyher, C. Bannwarth and S. Grimme, J. Chem. Phys., 2017,
     147, 034112. DOI: 10.1063/1.4993215
   * E. Caldeweyher, S. Ehlert, A. Hansen, H. Neugebauer, S. Spicher,
     C. Bannwarth and S. Grimme, J. Chem. Phys., 2019, 150, 154122.
     DOI: 10.1063/1.5090222
   
   for sTDA-xTB:
   * S. Grimme and C. Bannwarth, J. Chem. Phys., 2016, 145, 054103.
     DOI: 10.1063/1.4959605
   
   in the mass-spec context:
   * V. Asgeirsson, C. Bauer and S. Grimme, Chem. Sci., 2017, 8, 4879.
     DOI: 10.1039/c7sc00601b
   
   for metadynamics refer to:
   * S. Grimme, J. Chem. Theory Comput., 2019, 155, 2847-2862
     DOI: 10.1021/acs.jctc.9b00143
   
   with help from (in alphabetical order)
   C. Bannwarth, F. Bohle, G. Brandenburg, E. Caldeweyher, M. Checinski,
   S. Dohm, S. Ehlert, S. Ehrlich, F. März, H. Neugebauer, J. Pisarek,
   P. Pracht, P. Shushkov, and S. Spicher.
   
 * started run on 2020/05/13 at 13:04:54.413     

           -------------------------------------------------
          |                Calculation Setup                |
           -------------------------------------------------

          program call               : /home/tom/.local/bin/xtb complex_conf2_opt_xtb.xyz --chrg -1 --opt
          coordinate file            : complex_conf2_opt_xtb.xyz
          omp threads                :                     4
          number of atoms            :                     6
          number of electrons        :                    22
          charge                     :                    -1
          spin                       :                   0.0
          first test random number   :      0.77890256708801

########################################################################
[WARNING] Please study the warnings concerning your input carefully
-2- prog_main: XTBPATH is not set, using XTBHOME instead
-1- prog_main: XTBHOME is not set, using HOME instead
########################################################################
           ------------------------------------------------- 
          |                 G F N 2 - x T B                 |
          | Geometry, Frequencies, Noncovalent interactions |
          |            JCTC 2019 parametrisation            |
           ------------------------------------------------- 
             k(s)              :                1.8500
             k(p)              :                2.2300
             k(d)              :                2.2300
             k(f)              :                2.0000
             kEN (H0ij)        :               -2.0000
             D4 a1             :                0.5200
             D4 a2             :                5.0000
             D4 s6             :                1.0000
             D4 s8             :                2.7000
             D4 s9             :                5.0000
             alphaj            :                2.0000

  Z AO/shell   Hii/eV     exponent
  1     Wed Apr 25 08:07:45 CEST 2018   EN: 2.200 GM2: 0.406  GM3: 0.0800  RAES: 1.40
     1s    -10.707211    1.230000
  6     Wed Apr 25 08:07:45 CEST 2018   EN: 2.550 GM2: 0.538  GM3: 0.1500  RAES: 3.00
     2s    -13.970922    2.096432
     2p    -10.063292    1.800000
  9     Mon Apr 23 13:58:50 CEST 2018   EN: 3.980 GM2: 0.532  GM3: 0.1426  RAES: 2.40
     2s    -23.458179    2.416361
     2p    -15.746583    2.308399
 17     Mon Apr 23 14:09:22 CEST 2018   EN: 3.160 GM2: 0.249  GM3: 0.1495  RAES: 2.50
     3s    -29.278781    2.485265
     3p    -12.673758    2.199650
     3d     -0.240338    2.476089

           ------------------------------------------------- 
          |        Self-Consistent Charge Iterations        |
           ------------------------------------------------- 

          ...................................................
          :                      SETUP                      :
          :.................................................:
          :  # basis functions                  21          :
          :  # atomic orbitals                  20          :
          :  # shells                           10          :
          :  # electrons                        22          :
          :  max. iterations                   250          :
          :  Hamiltonian                  GFN2-xTB          :
          :  restarted?                      false          :
          :  GBSA solvation                  false          :
          :  PC potential                    false          :
          :  electronic temp.          300.0000000     K    :
          :  accuracy                    1.0000000          :
          :  -> integral cutoff          0.2500000E+02      :
          :  -> integral neglect         0.1000000E-07      :
          :  -> SCF convergence          0.1000000E-05 Eh   :
          :  -> wf. convergence          0.1000000E-03 e    :
          :  Broyden damping             0.4000000          :
          ...................................................

 iter      E             dE          RMSdq      gap      omega  full diag
   1    -13.0069209 -0.130069E+02  0.601E+00    7.03       0.0  T
   2    -13.1403659 -0.133445E+00  0.341E+00    4.35       1.0  T
   3    -13.1458882 -0.552231E-02  0.184E+00    4.25       1.0  T
   4    -13.1464020 -0.513839E-03  0.297E-01    3.76       1.0  T
   5    -13.1464929 -0.909407E-04  0.250E-01    4.02       1.0  T
   6    -13.1466180 -0.125003E-03  0.181E-01    4.02       1.0  T
   7    -13.1467442 -0.126287E-03  0.567E-02    3.98       1.0  T
   8    -13.1467527 -0.850796E-05  0.187E-02    3.99       2.2  T
   9    -13.1467533 -0.530374E-06  0.491E-03    4.00       8.3  T
  10    -13.1467533 -0.403529E-07  0.477E-04    4.00      85.6  T
  11    -13.1467533 -0.181705E-09  0.372E-04    4.00     109.8  T

   *** convergence criteria satisfied after 11 iterations ***

         #    Occupation            Energy/Eh            Energy/eV
      -------------------------------------------------------------
         1        2.0000           -0.8416576             -22.9027
       ...           ...                  ...                  ...
         5        2.0000           -0.3382287              -9.2037
         6        2.0000           -0.2880078              -7.8371
         7        2.0000           -0.2002316              -5.4486
         8        2.0000           -0.1973682              -5.3707
         9        2.0000           -0.0841500              -2.2898
        10        2.0000           -0.0828791              -2.2553
        11        2.0000           -0.0692508              -1.8844 (HOMO)
        12                          0.0777724               2.1163 (LUMO)
        13                          0.2312359               6.2922
        14                          0.2368270               6.4444
        15                          0.2408023               6.5526
        16                          0.2567421               6.9863
       ...                                ...                  ...
        20                          0.3627175               9.8700
      -------------------------------------------------------------
                  HL-Gap            0.1470231 Eh            4.0007 eV
             Fermi-level            0.0042608 Eh            0.1159 eV

 SCC (total)                   0 d,  0 h,  0 min,  0.002 sec
 SCC setup                      ...        0 min,  0.000 sec (  3.499%)
 Dispersion                     ...        0 min,  0.000 sec (  0.772%)
 integral evaluation            ...        0 min,  0.000 sec ( 16.870%)
 zeroth order Hamiltonian       ...        0 min,  0.000 sec (  0.847%)
 iterations                     ...        0 min,  0.001 sec ( 56.760%)
 molecular gradient             ...        0 min,  0.000 sec ( 17.019%)
 printout                       ...        0 min,  0.000 sec (  3.137%)

         :::::::::::::::::::::::::::::::::::::::::::::::::::::
         ::                     SUMMARY                     ::
         :::::::::::::::::::::::::::::::::::::::::::::::::::::
         :: total energy             -13.094676087680 Eh    ::
         :: gradient norm              0.075742070554 Eh/a0 ::
         :: HOMO-LUMO gap              4.000703398026 eV    ::
         ::.................................................::
         :: SCC energy               -13.146753316463 Eh    ::
         :: -> isotropic ES            0.240790256070 Eh    ::
         :: -> anisotropic ES         -0.006778750491 Eh    ::
         :: -> anisotropic XC          0.000300695481 Eh    ::
         :: -> dispersion             -0.002212626162 Eh    ::
         :: repulsion energy           0.052077158980 Eh    ::
         :: add. restraining           0.000000000000 Eh    ::
         :::::::::::::::::::::::::::::::::::::::::::::::::::::

      ----------------------------------------------------------- 
     |                   =====================                   |
     |                        A N C O P T                        |
     |                   =====================                   |
     |               Approximate Normal Coordinate               |
     |                Rational Function Optimizer                |
      ----------------------------------------------------------- 

          ...................................................
          :                      SETUP                      :
          :.................................................:
          :   optimization level            normal          :
          :   max. optcycles                   200          :
          :   ANC micro-cycles                  20          :
          :   degrees of freedom                12          :
          :.................................................:
          :   RF solver                   davidson          :
          :   write xtbopt.log                true          :
          :   linear?                        false          :
          :   energy convergence         0.5000000E-05 Eh   :
          :   grad. convergence          0.1000000E-02 Eh/α :
          :   maximium RF displ.         1.0000000          :
          :   Hlow (freq-cutoff)         0.1000000E-01      :
          :   Hmax (freq-cutoff)         5.0000000          :
          :   S6 in model hess.         20.0000000          :
          ...................................................

generating ANC from model Hessian ...
Using Lindh-Hessian (1995)
 Shifting diagonal of input Hessian by   1.960315650805572E-003
 Lowest  eigenvalues of input Hessian
   -0.000000   -0.000000    0.000000    0.000000    0.000000    0.000000
    0.010000    0.013363    0.065941    0.073317    0.106381    0.115507
    0.116693    0.257694    0.469164    1.075175    1.077053    1.130986
 Highest eigenvalues
    0.116693    0.257694    0.469164    1.075175    1.077053    1.130986
 

........................................................................
.............................. CYCLE    1 ..............................
........................................................................
   1    -13.1467533 -0.131468E+02  0.168E-04    4.00       0.0  T
   2    -13.1467533 -0.329496E-10  0.108E-04    4.00     378.8  T
   3    -13.1467533 -0.926548E-11  0.779E-05    4.00     524.2  T
     SCC iter.                  ...        0 min,  0.000 sec
     gradient                   ...        0 min,  0.000 sec
 * total energy  :   -13.0946761 Eh     change        0.1582874E-08 Eh
   gradient norm :     0.0757427 Eh/α   predicted     0.0000000E+00 (-100.00%)
   displ. norm   :     0.6134158 α      lambda       -0.3315961E-01
   maximum displ.:     0.4804838 α      in ANC's #2, #3, #8, ...

........................................................................
.............................. CYCLE    2 ..............................
........................................................................
   1    -13.1697262 -0.131697E+02  0.868E-01    3.55       0.0  T
   2    -13.1698084 -0.822564E-04  0.506E-01    3.44       1.0  T
   3    -13.1698211 -0.126182E-04  0.655E-02    3.37       1.0  T
   4    -13.1698257 -0.466771E-05  0.263E-02    3.38       1.6  T
   5    -13.1698270 -0.124276E-05  0.192E-02    3.39       2.1  T
   6    -13.1698279 -0.931003E-06  0.780E-03    3.39       5.2  T
   7    -13.1698280 -0.132939E-06  0.482E-03    3.40       8.5  T
   8    -13.1698281 -0.569044E-07  0.291E-03    3.40      14.0  T
     SCC iter.                  ...        0 min,  0.001 sec
     gradient                   ...        0 min,  0.000 sec
 * total energy  :   -13.1162444 Eh     change       -0.2156828E-01 Eh
   gradient norm :     0.0254333 Eh/α   predicted    -0.2281843E-01 (   5.80%)
   displ. norm   :     0.5611250 α      lambda       -0.8754934E-02
   maximum displ.:     0.5552795 α      in ANC's #2, #3, #8, ...

........................................................................
.............................. CYCLE    3 ..............................
........................................................................
   1    -13.1750561 -0.131751E+02  0.703E-01    2.78       0.0  T
   2    -13.1751190 -0.628509E-04  0.429E-01    2.85       1.0  T
   3    -13.1750977  0.212751E-04  0.110E-01    2.81       1.0  T
   4    -13.1751480 -0.502929E-04  0.552E-02    2.85       1.0  T
   5    -13.1751557 -0.767688E-05  0.267E-02    2.85       1.5  T
   6    -13.1751579 -0.226407E-05  0.119E-02    2.86       3.4  T
   7    -13.1751582 -0.303630E-06  0.793E-03    2.86       5.2  T
   8    -13.1751584 -0.173794E-06  0.444E-03    2.86       9.2  T
   9    -13.1751585 -0.601025E-07  0.666E-04    2.86      61.3  T
     SCC iter.                  ...        0 min,  0.001 sec
     gradient                   ...        0 min,  0.000 sec
 * total energy  :   -13.1221498 Eh     change       -0.5905434E-02 Eh
   gradient norm :     0.0126874 Eh/α   predicted    -0.5755780E-02 (  -2.53%)
   displ. norm   :     0.3083487 α      lambda       -0.1727367E-02
   maximum displ.:     0.3066665 α      in ANC's #2, #6, #12, ...

........................................................................
.............................. CYCLE    4 ..............................
........................................................................
   1    -13.1760201 -0.131760E+02  0.396E-01    2.48       0.0  T
   2    -13.1760348 -0.147575E-04  0.239E-01    2.52       1.0  T
   3    -13.1760285  0.628730E-05  0.609E-02    2.50       1.0  T
   4    -13.1760440 -0.154678E-04  0.338E-02    2.52       1.2  T
   5    -13.1760462 -0.216640E-05  0.207E-02    2.52       2.0  T
   6    -13.1760476 -0.141782E-05  0.755E-03    2.52       5.4  T
   7    -13.1760477 -0.126173E-06  0.500E-03    2.52       8.2  T
   8    -13.1760478 -0.638863E-07  0.299E-03    2.52      13.7  T
   9    -13.1760478 -0.295227E-07  0.672E-04    2.53      60.7  T
     SCC iter.                  ...        0 min,  0.001 sec
     gradient                   ...        0 min,  0.000 sec
 * total energy  :   -13.1231356 Eh     change       -0.9858496E-03 Eh
   gradient norm :     0.0091838 Eh/α   predicted    -0.9458061E-03 (  -4.06%)
   displ. norm   :     0.0703825 α      lambda       -0.2357202E-03
   maximum displ.:     0.0617065 α      in ANC's #2, #8, #3, ...

........................................................................
.............................. CYCLE    5 ..............................
........................................................................
   1    -13.1778146 -0.131778E+02  0.894E-02    2.48       0.0  T
   2    -13.1778172 -0.259739E-05  0.521E-02    2.50       1.0  T
   3    -13.1778166  0.536252E-06  0.234E-02    2.49       1.7  T
   4    -13.1778181 -0.146563E-05  0.696E-03    2.49       5.9  T
   5    -13.1778182 -0.621953E-07  0.418E-03    2.49       9.8  T
   6    -13.1778182 -0.463115E-07  0.139E-03    2.49      29.5  T
   7    -13.1778182 -0.439604E-08  0.876E-04    2.49      46.6  T
     SCC iter.                  ...        0 min,  0.000 sec
     gradient                   ...        0 min,  0.000 sec
 * total energy  :   -13.1233070 Eh     change       -0.1713489E-03 Eh
   gradient norm :     0.0043978 Eh/α   predicted    -0.1184421E-03 ( -30.88%)
   displ. norm   :     0.0825410 α      lambda       -0.1857924E-03
   maximum displ.:     0.0586055 α      in ANC's #2, #3, #8, ...

........................................................................
.............................. CYCLE    6 ..............................
........................................................................
   1    -13.1790093 -0.131790E+02  0.856E-02    2.51       0.0  T
   2    -13.1790117 -0.243494E-05  0.500E-02    2.53       1.0  T
   3    -13.1790111  0.546418E-06  0.234E-02    2.52       1.7  T
   4    -13.1790125 -0.139779E-05  0.654E-03    2.53       6.2  T
   5    -13.1790126 -0.494487E-07  0.413E-03    2.53       9.9  T
   6    -13.1790126 -0.341587E-07  0.933E-04    2.53      43.8  T
   7    -13.1790126 -0.128255E-08  0.384E-04    2.53     106.3  T
     SCC iter.                  ...        0 min,  0.000 sec
     gradient                   ...        0 min,  0.000 sec
 * total energy  :   -13.1234334 Eh     change       -0.1264362E-03 Eh
   gradient norm :     0.0033624 Eh/α   predicted    -0.9352844E-04 ( -26.03%)
   displ. norm   :     0.0586203 α      lambda       -0.1006408E-03
   maximum displ.:     0.0335777 α      in ANC's #3, #8, #2, ...

........................................................................
.............................. CYCLE    7 ..............................
........................................................................
   1    -13.1794915 -0.131795E+02  0.693E-02    2.57       0.0  T
   2    -13.1794998 -0.824989E-05  0.393E-02    2.61       1.0  T
   3    -13.1795015 -0.168973E-05  0.242E-02    2.60       1.7  T
   4    -13.1795020 -0.561760E-06  0.772E-03    2.60       5.3  T
   5    -13.1795021 -0.878493E-07  0.542E-03    2.60       7.5  T
   6    -13.1795022 -0.102388E-06  0.178E-03    2.60      22.9  T
   7    -13.1795022 -0.858885E-08  0.100E-03    2.60      40.7  T
   8    -13.1795022 -0.197253E-08  0.692E-04    2.60      59.0  T
   9    -13.1795022 -0.154359E-08  0.151E-04    2.60     270.7  T
     SCC iter.                  ...        0 min,  0.001 sec
     gradient                   ...        0 min,  0.000 sec
 * total energy  :   -13.1235084 Eh     change       -0.7501106E-04 Eh
   gradient norm :     0.0037713 Eh/α   predicted    -0.5049248E-04 ( -32.69%)
   displ. norm   :     0.0660061 α      lambda       -0.1025204E-03
   maximum displ.:     0.0437158 α      in ANC's #8, #3, #5, ...

........................................................................
.............................. CYCLE    8 ..............................
........................................................................
   1    -13.1794313 -0.131794E+02  0.102E-01    2.66       0.0  T
   2    -13.1794615 -0.302130E-04  0.580E-02    2.73       1.0  T
   3    -13.1794686 -0.704946E-05  0.323E-02    2.71       1.3  T
   4    -13.1794693 -0.662274E-06  0.121E-02    2.72       3.4  T
   5    -13.1794695 -0.213418E-06  0.789E-03    2.72       5.2  T
   6    -13.1794697 -0.213680E-06  0.352E-03    2.72      11.6  T
   7    -13.1794697 -0.442789E-07  0.135E-03    2.72      30.3  T
   8    -13.1794697 -0.290075E-08  0.961E-04    2.72      42.5  T
   9    -13.1794697 -0.274427E-08  0.201E-04    2.72     202.9  T
     SCC iter.                  ...        0 min,  0.001 sec
     gradient                   ...        0 min,  0.000 sec
 * total energy  :   -13.1235761 Eh     change       -0.6768785E-04 Eh
   gradient norm :     0.0032738 Eh/α   predicted    -0.5148254E-04 ( -23.94%)
   displ. norm   :     0.0264952 α      lambda       -0.4121924E-04
   maximum displ.:     0.0203310 α      in ANC's #8, #9, #5, ...

........................................................................
.............................. CYCLE    9 ..............................
........................................................................
   1    -13.1791428 -0.131791E+02  0.657E-02    2.73       0.0  T
   2    -13.1791607 -0.179072E-04  0.381E-02    2.79       1.1  T
   3    -13.1791650 -0.430710E-05  0.174E-02    2.78       2.3  T
   4    -13.1791652 -0.162440E-06  0.685E-03    2.78       6.0  T
   5    -13.1791653 -0.607193E-07  0.415E-03    2.78       9.8  T
   6    -13.1791653 -0.568147E-07  0.237E-03    2.78      17.3  T
   7    -13.1791653 -0.224632E-07  0.532E-04    2.78      76.8  T
   8    -13.1791653 -0.756190E-09  0.235E-04    2.78     173.8  T
     SCC iter.                  ...        0 min,  0.001 sec
     gradient                   ...        0 min,  0.000 sec
 * total energy  :   -13.1236032 Eh     change       -0.2703102E-04 Eh
   gradient norm :     0.0021661 Eh/α   predicted    -0.2062464E-04 ( -23.70%)
   displ. norm   :     0.0153962 α      lambda       -0.1547096E-04
   maximum displ.:     0.0104111 α      in ANC's #2, #3, #9, ...

........................................................................
.............................. CYCLE   10 ..............................
........................................................................
   1    -13.1788302 -0.131788E+02  0.329E-02    2.77       0.0  T
   2    -13.1788346 -0.440574E-05  0.202E-02    2.79       2.0  T
   3    -13.1788357 -0.106182E-05  0.871E-03    2.79       4.7  T
   4    -13.1788357 -0.310078E-07  0.264E-03    2.79      15.4  T
   5    -13.1788357 -0.510086E-08  0.104E-03    2.79      39.3  T
   6    -13.1788357 -0.202829E-08  0.661E-04    2.79      61.7  T
   7    -13.1788357 -0.159182E-08  0.213E-04    2.79     192.0  T
     SCC iter.                  ...        0 min,  0.000 sec
     gradient                   ...        0 min,  0.000 sec
 * total energy  :   -13.1236126 Eh     change       -0.9467435E-05 Eh
   gradient norm :     0.0010522 Eh/α   predicted    -0.7736700E-05 ( -18.28%)
   displ. norm   :     0.0154076 α      lambda       -0.2829073E-05
   maximum displ.:     0.0107199 α      in ANC's #2, #3, #8, ...

........................................................................
.............................. CYCLE   11 ..............................
........................................................................
   1    -13.1787692 -0.131788E+02  0.232E-02    2.77       0.0  T
   2    -13.1787704 -0.119156E-05  0.141E-02    2.79       2.9  T
   3    -13.1787707 -0.273585E-06  0.734E-03    2.78       5.6  T
   4    -13.1787707 -0.356508E-07  0.182E-03    2.78      22.4  T
   5    -13.1787707 -0.338962E-08  0.845E-04    2.78      48.3  T
   6    -13.1787707 -0.157311E-08  0.335E-04    2.78     122.0  T
     SCC iter.                  ...        0 min,  0.000 sec
     gradient                   ...        0 min,  0.000 sec
 * total energy  :   -13.1236146 Eh     change       -0.2017743E-05 Eh
   gradient norm :     0.0007383 Eh/α   predicted    -0.1414234E-05 ( -29.91%)
   displ. norm   :     0.0033224 α      lambda       -0.9321706E-06
   maximum displ.:     0.0023285 α      in ANC's #3, #12, #2, ...

   *** GEOMETRY OPTIMIZATION CONVERGED AFTER 11 ITERATIONS ***

------------------------------------------------------------------------
 total energy gain   :        -0.0289386 Eh      -18.1592 kcal/mol
 total RMSD          :         0.6206702 a0        0.3284 Å
 total power (kW/mol):        -6.9071076 (step)-5440.1925 (real)
------------------------------------------------------------------------

 ANCopt (total)                0 d,  0 h,  0 min,  0.014 sec
 optimizer setup                ...        0 min,  0.000 sec (  0.372%)
 model hessian                  ...        0 min,  0.000 sec (  1.010%)
 ANC generation                 ...        0 min,  0.000 sec (  0.486%)
 coordinate transformation      ...        0 min,  0.000 sec (  0.341%)
 single point calculation       ...        0 min,  0.013 sec ( 91.191%)
 optimization log               ...        0 min,  0.000 sec (  1.848%)
 hessian update                 ...        0 min,  0.000 sec (  0.314%)
 rational function              ...        0 min,  0.000 sec (  2.080%)

================
 final structure:
================
6
 xtb: 6.2.3 (830e466)
F        -0.03865693113924   -0.07888907880795    0.52575533259315
Cl        1.40083786343902   -0.02434856319282   -1.24837474304342
C         2.59493820050228    0.01974102847669   -2.71778774234163
H         2.24588520534745    0.77723607275325   -3.40807182900323
H         3.58110811226893    0.26416171346745   -2.34351500482113
H         2.59025754958157   -0.95790117269662   -3.18237601338374
 
 Bond Distances (Angstroems)
 ---------------------------
Cl2-C3=1.8939        C3-Cl2=1.8939        C3-H4=1.0826         C3-H5=1.0828         C3-H6=1.0824         H4-C3=1.0826         
H5-C3=1.0828         H6-C3=1.0824         
 C  H  Rav=1.0826 sigma=0.0001  Rmin=1.0824  Rmax=1.0828     3
 Cl C  Rav=1.8939 sigma=0.0000  Rmin=1.8939  Rmax=1.8939     1
 
 selected bond angles (degree)
 --------------------
H4-C3-Cl2=107.92               H5-C3-Cl2=108.14               H5-C3-H4=110.86                H6-C3-Cl2=108.01               
H6-C3-H4=110.91                H6-C3-H5=110.87                
 
 selected dihedral angles (degree)
 ---------------------------------

           -------------------------------------------------
          |                Final Singlepoint                |
           -------------------------------------------------

          ...................................................
          :                      SETUP                      :
          :.................................................:
          :  # basis functions                  21          :
          :  # atomic orbitals                  20          :
          :  # shells                           10          :
          :  # electrons                        22          :
          :  max. iterations                   250          :
          :  Hamiltonian                  GFN2-xTB          :
          :  restarted?                      false          :
          :  GBSA solvation                  false          :
          :  PC potential                    false          :
          :  electronic temp.          300.0000000     K    :
          :  accuracy                    1.0000000          :
          :  -> integral cutoff          0.2500000E+02      :
          :  -> integral neglect         0.1000000E-07      :
          :  -> SCF convergence          0.1000000E-05 Eh   :
          :  -> wf. convergence          0.1000000E-03 e    :
          :  Broyden damping             0.4000000          :
          ...................................................

 iter      E             dE          RMSdq      gap      omega  full diag
   1    -13.1787707 -0.131788E+02  0.191E-04    2.78       0.0  T
   2    -13.1787707 -0.332712E-10  0.168E-04    2.78     243.0  T
   3    -13.1787707 -0.771294E-10  0.833E-05    2.78     490.0  T

   *** convergence criteria satisfied after 3 iterations ***

         #    Occupation            Energy/Eh            Energy/eV
      -------------------------------------------------------------
         1        2.0000           -0.8526108             -23.2007
       ...           ...                  ...                  ...
         5        2.0000           -0.3468752              -9.4390
         6        2.0000           -0.2931712              -7.9776
         7        2.0000           -0.2181380              -5.9358
         8        2.0000           -0.2181185              -5.9353
         9        2.0000           -0.0888485              -2.4177
        10        2.0000           -0.0874408              -2.3794
        11        2.0000           -0.0874407              -2.3794 (HOMO)
        12                          0.0148673               0.4046 (LUMO)
        13                          0.2246892               6.1141
        14                          0.2246983               6.1144
        15                          0.2290020               6.2315
        16                          0.2290517               6.2328
       ...                                ...                  ...
        20                          0.3669939               9.9864
      -------------------------------------------------------------
                  HL-Gap            0.1023081 Eh            2.7839 eV
             Fermi-level           -0.0362867 Eh           -0.9874 eV

 SCC (total)                   0 d,  0 h,  0 min,  0.001 sec
 SCC setup                      ...        0 min,  0.000 sec (  5.168%)
 Dispersion                     ...        0 min,  0.000 sec (  0.849%)
 integral evaluation            ...        0 min,  0.000 sec ( 30.291%)
 zeroth order Hamiltonian       ...        0 min,  0.000 sec (  1.491%)
 iterations                     ...        0 min,  0.000 sec ( 25.225%)
 molecular gradient             ...        0 min,  0.000 sec ( 29.416%)
 printout                       ...        0 min,  0.000 sec (  5.168%)

         :::::::::::::::::::::::::::::::::::::::::::::::::::::
         ::                     SUMMARY                     ::
         :::::::::::::::::::::::::::::::::::::::::::::::::::::
         :: total energy             -13.123614666828 Eh    ::
         :: gradient norm              0.000740432067 Eh/a0 ::
         :: HOMO-LUMO gap              2.783944043093 eV    ::
         ::.................................................::
         :: SCC energy               -13.178770711928 Eh    ::
         :: -> isotropic ES            0.240399588454 Eh    ::
         :: -> anisotropic ES         -0.009031935676 Eh    ::
         :: -> anisotropic XC         -0.001332582021 Eh    ::
         :: -> dispersion             -0.002073706992 Eh    ::
         :: repulsion energy           0.055156152607 Eh    ::
         :: add. restraining           0.000000000000 Eh    ::
         :::::::::::::::::::::::::::::::::::::::::::::::::::::

           -------------------------------------------------
          |                Property Printout                |
           -------------------------------------------------

    * Orbital Energies and Occupations

         #    Occupation            Energy/Eh            Energy/eV
      -------------------------------------------------------------
         1        2.0000           -0.8526108             -23.2007
         2        2.0000           -0.4475879             -12.1795
         3        2.0000           -0.3612495              -9.8301
         4        2.0000           -0.3469210              -9.4402
         5        2.0000           -0.3468752              -9.4390
         6        2.0000           -0.2931712              -7.9776
         7        2.0000           -0.2181380              -5.9358
         8        2.0000           -0.2181185              -5.9353
         9        2.0000           -0.0888485              -2.4177
        10        2.0000           -0.0874408              -2.3794
        11        2.0000           -0.0874407              -2.3794 (HOMO)
        12                          0.0148673               0.4046 (LUMO)
        13                          0.2246892               6.1141
        14                          0.2246983               6.1144
        15                          0.2290020               6.2315
        16                          0.2290517               6.2328
        17                          0.2729919               7.4285
        18                          0.3070637               8.3556
        19                          0.3665079               9.9732
        20                          0.3669939               9.9864
      -------------------------------------------------------------
                  HL-Gap            0.1023081 Eh            2.7839 eV
             Fermi-level           -0.0362867 Eh           -0.9874 eV

     #   Z        covCN         q      C6AA      α(0)
     1   9 F      0.253    -0.838    20.957     5.342
     2  17 Cl     1.124    -0.173   104.603    15.647
     3   6 C      3.647    -0.080    22.391     6.799
     4   1 H      0.925     0.030     2.580     2.512
     5   1 H      0.925     0.030     2.582     2.513
     6   1 H      0.925     0.030     2.580     2.512

 Mol. C6AA /au·bohr⁶  :        586.330526
 Mol. C8AA /au·bohr⁸  :      16025.944023
 Mol. α(0) /au        :         35.325640


Wiberg/Mayer (AO) data.
largest (>0.10) Wiberg bond orders for each atom
          total WBO             WBO to atom ...
     1  F   0.299        Cl   2 0.178    C    3 0.120
     2  Cl  1.079        C    3 0.890    F    1 0.178
     3  C   3.995        H    4 0.995    H    6 0.995    H    5 0.995    Cl   2 0.890    F    1 0.120
     4  H   0.999        C    3 0.995
     5  H   0.999        C    3 0.995
     6  H   0.999        C    3 0.995

molecular dipole:
                 x           y           z       tot (Debye)
 q only:       -0.308       0.135      -0.525
   full:       -0.576       0.125      -0.194       1.578
molecular quadrupole (traceless):
                xx          xy          yy          xz          yz          zz
 q only:       -0.085       0.029       0.872       0.794       0.146      -0.787
  q+dip:       -0.772      -0.003       2.612       3.420       0.172      -1.840
   full:       -0.690       0.016       2.178       2.783       0.148      -1.488

           -------------------------------------------------
          |                Geometry Summary                 |
           -------------------------------------------------

      molecular mass/u    :       69.4858989
   center of mass at/Å    :        1.2747997      -0.0293690      -1.0925609
  moments of inertia/u·Å² :        0.3204755E+01   0.1561365E+03   0.1561373E+03
rotational constants/cm⁻¹ :        0.5260194E+01   0.1079672E+00   0.1079667E+00

 * 3 selected distances

     #   Z        #   Z                                     value/Å
     3   6 C      4   1 H                                 1.0826490
     3   6 C      5   1 H                                 1.0827523 (max)
     3   6 C      6   1 H                                 1.0824271 (min)

 * 1 distinct bonds (by element types)

   Z      Z             #   av. dist./Å        max./Å        min./Å
   1 H    6 C           3     1.0826095     1.0827523     1.0824271


optimized geometry written to: xtbopt.xyz


           -------------------------------------------------
          | TOTAL ENERGY              -13.123614666828 Eh   |
          | GRADIENT NORM               0.000740432067 Eh/α |
          | HOMO-LUMO GAP               2.783944043093 eV   |
           -------------------------------------------------

------------------------------------------------------------------------
 * finished run on 2020/05/13 at 13:04:54.437     
------------------------------------------------------------------------
 total:
 * wall-time:     0 d,  0 h,  0 min,  0.024 sec
 *  cpu-time:     0 d,  0 h,  0 min,  0.092 sec
 * ratio c/w:     3.916 speedup
 SCF:
 * wall-time:     0 d,  0 h,  0 min,  0.002 sec
 *  cpu-time:     0 d,  0 h,  0 min,  0.008 sec
 * ratio c/w:     3.988 speedup
 ANC optimizer:
 * wall-time:     0 d,  0 h,  0 min,  0.015 sec
 *  cpu-time:     0 d,  0 h,  0 min,  0.061 sec
 * ratio c/w:     3.980 speedup

