      -----------------------------------------------------------      
     |                   =====================                   |     
     |                           x T B                           |     
     |                   =====================                   |     
     |                         S. Grimme                         |     
     |          Mulliken Center for Theoretical Chemistry        |     
     |                    University of Bonn                     |     
      -----------------------------------------------------------      

   * xtb version 6.2.3 (830e466) compiled by 'ehlert@majestix' on 2020-03-16

   xtb is free software: you can redistribute it and/or modify it under
   the terms of the GNU Lesser General Public License as published by
   the Free Software Foundation, either version 3 of the License, or
   (at your option) any later version.
   
   xtb is distributed in the hope that it will be useful,
   but WITHOUT ANY WARRANTY; without even the implied warranty of
   MERCHANTABILITY or FITNESS FOR A PARTICULAR PURPOSE.  See the
   GNU Lesser General Public License for more details.
   
   Cite this work as:
   * S. Grimme, C. Bannwarth, P. Shushkov, J. Chem. Theory Comput., 2017,
     13, 1989-2009. DOI: 10.1021/acs.jctc.7b00118
   * C. Bannwarth, S. Ehlert and S. Grimme., J. Chem. Theory Comput., 2019,
     15, 1652-1671. DOI: 10.1021/acs.jctc.8b01176
   * P. Pracht, E. Caldeweyher, S. Ehlert, S. Grimme, ChemRxiv, 2019, preprint.
     DOI: 10.26434/chemrxiv.8326202.v1
   
   for DFT-D4:
   * E. Caldeweyher, C. Bannwarth and S. Grimme, J. Chem. Phys., 2017,
     147, 034112. DOI: 10.1063/1.4993215
   * E. Caldeweyher, S. Ehlert, A. Hansen, H. Neugebauer, S. Spicher,
     C. Bannwarth and S. Grimme, J. Chem. Phys., 2019, 150, 154122.
     DOI: 10.1063/1.5090222
   
   for sTDA-xTB:
   * S. Grimme and C. Bannwarth, J. Chem. Phys., 2016, 145, 054103.
     DOI: 10.1063/1.4959605
   
   in the mass-spec context:
   * V. Asgeirsson, C. Bauer and S. Grimme, Chem. Sci., 2017, 8, 4879.
     DOI: 10.1039/c7sc00601b
   
   for metadynamics refer to:
   * S. Grimme, J. Chem. Theory Comput., 2019, 155, 2847-2862
     DOI: 10.1021/acs.jctc.9b00143
   
   with help from (in alphabetical order)
   C. Bannwarth, F. Bohle, G. Brandenburg, E. Caldeweyher, M. Checinski,
   S. Dohm, S. Ehlert, S. Ehrlich, F. März, H. Neugebauer, J. Pisarek,
   P. Pracht, P. Shushkov, and S. Spicher.
   
 * started run on 2020/05/13 at 13:04:54.444     

           -------------------------------------------------
          |                Calculation Setup                |
           -------------------------------------------------

          program call               : /home/tom/.local/bin/xtb complex_conf3_opt_xtb.xyz --chrg -1 --opt
          coordinate file            : complex_conf3_opt_xtb.xyz
          omp threads                :                     4
          number of atoms            :                     6
          number of electrons        :                    22
          charge                     :                    -1
          spin                       :                   0.0
          first test random number   :      0.98525329527749


molecular fragmentation (1/2 indicates fragments):
122222
# atoms in fragment 1/2:     1     5
 fragment masses (1/2) :       19.00       50.49
CMA distance (Bohr)    :   4.828
constraining FC (au)   :  0.0500
########################################################################
[WARNING] Please study the warnings concerning your input carefully
-2- prog_main: XTBPATH is not set, using XTBHOME instead
-1- prog_main: XTBHOME is not set, using HOME instead
########################################################################
           ------------------------------------------------- 
          |                 G F N 2 - x T B                 |
          | Geometry, Frequencies, Noncovalent interactions |
          |            JCTC 2019 parametrisation            |
           ------------------------------------------------- 
             k(s)              :                1.8500
             k(p)              :                2.2300
             k(d)              :                2.2300
             k(f)              :                2.0000
             kEN (H0ij)        :               -2.0000
             D4 a1             :                0.5200
             D4 a2             :                5.0000
             D4 s6             :                1.0000
             D4 s8             :                2.7000
             D4 s9             :                5.0000
             alphaj            :                2.0000

  Z AO/shell   Hii/eV     exponent
  1     Wed Apr 25 08:07:45 CEST 2018   EN: 2.200 GM2: 0.406  GM3: 0.0800  RAES: 1.40
     1s    -10.707211    1.230000
  6     Wed Apr 25 08:07:45 CEST 2018   EN: 2.550 GM2: 0.538  GM3: 0.1500  RAES: 3.00
     2s    -13.970922    2.096432
     2p    -10.063292    1.800000
  9     Mon Apr 23 13:58:50 CEST 2018   EN: 3.980 GM2: 0.532  GM3: 0.1426  RAES: 2.40
     2s    -23.458179    2.416361
     2p    -15.746583    2.308399
 17     Mon Apr 23 14:09:22 CEST 2018   EN: 3.160 GM2: 0.249  GM3: 0.1495  RAES: 2.50
     3s    -29.278781    2.485265
     3p    -12.673758    2.199650
     3d     -0.240338    2.476089

           ------------------------------------------------- 
          |        Self-Consistent Charge Iterations        |
           ------------------------------------------------- 

          ...................................................
          :                      SETUP                      :
          :.................................................:
          :  # basis functions                  21          :
          :  # atomic orbitals                  20          :
          :  # shells                           10          :
          :  # electrons                        22          :
          :  max. iterations                   250          :
          :  Hamiltonian                  GFN2-xTB          :
          :  restarted?                      false          :
          :  GBSA solvation                  false          :
          :  PC potential                    false          :
          :  electronic temp.          300.0000000     K    :
          :  accuracy                    1.0000000          :
          :  -> integral cutoff          0.2500000E+02      :
          :  -> integral neglect         0.1000000E-07      :
          :  -> SCF convergence          0.1000000E-05 Eh   :
          :  -> wf. convergence          0.1000000E-03 e    :
          :  Broyden damping             0.4000000          :
          ...................................................

 iter      E             dE          RMSdq      gap      omega  full diag
   1    -13.0966414 -0.130966E+02  0.540E+00    5.79       0.0  T
   2    -13.1703731 -0.737317E-01  0.303E+00    3.09       1.0  T
   3    -13.1728401 -0.246703E-02  0.175E+00    2.55       1.0  T
   4    -13.1740940 -0.125388E-02  0.570E-01    1.58       1.0  T
   5    -13.1746019 -0.507883E-03  0.280E-01    1.71       1.0  T
   6    -13.1747687 -0.166852E-03  0.147E-01    1.67       1.0  T
   7    -13.1748180 -0.492621E-04  0.334E-02    1.67       1.2  T
   8    -13.1748190 -0.966150E-06  0.273E-02    1.66       1.5  T
   9    -13.1748207 -0.175803E-05  0.153E-02    1.66       2.7  T
  10    -13.1748215 -0.759849E-06  0.228E-03    1.65      17.9  T
  11    -13.1748215 -0.394090E-08  0.409E-04    1.65      99.7  T
  12    -13.1748215 -0.707718E-10  0.116E-04    1.65     352.7  T

   *** convergence criteria satisfied after 12 iterations ***

         #    Occupation            Energy/Eh            Energy/eV
      -------------------------------------------------------------
         1        2.0000           -0.8763261             -23.8460
       ...           ...                  ...                  ...
         5        2.0000           -0.3277209              -8.9177
         6        2.0000           -0.3068399              -8.3495
         7        2.0000           -0.2396713              -6.5218
         8        2.0000           -0.2291366              -6.2351
         9        2.0000           -0.0519473              -1.4136
        10        2.0000           -0.0509608              -1.3867
        11        2.0000           -0.0494953              -1.3468 (HOMO)
        12                          0.0111173               0.3025 (LUMO)
        13                          0.1976664               5.3788
        14                          0.2032365               5.5303
        15                          0.2110324               5.7425
        16                          0.2138468               5.8191
       ...                                ...                  ...
        20                          0.3781619              10.2903
      -------------------------------------------------------------
                  HL-Gap            0.0606125 Eh            1.6494 eV
             Fermi-level           -0.0190837 Eh           -0.5193 eV

 SCC (total)                   0 d,  0 h,  0 min,  0.002 sec
 SCC setup                      ...        0 min,  0.000 sec (  3.122%)
 Dispersion                     ...        0 min,  0.000 sec (  0.692%)
 integral evaluation            ...        0 min,  0.000 sec ( 14.893%)
 zeroth order Hamiltonian       ...        0 min,  0.000 sec (  0.736%)
 iterations                     ...        0 min,  0.001 sec ( 61.365%)
 molecular gradient             ...        0 min,  0.000 sec ( 15.311%)
 printout                       ...        0 min,  0.000 sec (  2.858%)

         :::::::::::::::::::::::::::::::::::::::::::::::::::::
         ::                     SUMMARY                     ::
         :::::::::::::::::::::::::::::::::::::::::::::::::::::
         :: total energy             -13.122755145486 Eh    ::
         :: gradient norm              0.022697182766 Eh/a0 ::
         :: HOMO-LUMO gap              1.649351165247 eV    ::
         ::.................................................::
         :: SCC energy               -13.174821483876 Eh    ::
         :: -> isotropic ES            0.281274956094 Eh    ::
         :: -> anisotropic ES         -0.009793760791 Eh    ::
         :: -> anisotropic XC         -0.006637983270 Eh    ::
         :: -> dispersion             -0.002332981844 Eh    ::
         :: repulsion energy           0.052066082795 Eh    ::
         :: add. restraining           0.000000000000 Eh    ::
         :::::::::::::::::::::::::::::::::::::::::::::::::::::

      ----------------------------------------------------------- 
     |                   =====================                   |
     |                        A N C O P T                        |
     |                   =====================                   |
     |               Approximate Normal Coordinate               |
     |                Rational Function Optimizer                |
      ----------------------------------------------------------- 

          ...................................................
          :                      SETUP                      :
          :.................................................:
          :   optimization level            normal          :
          :   max. optcycles                   200          :
          :   ANC micro-cycles                  20          :
          :   degrees of freedom                12          :
          :.................................................:
          :   RF solver                   davidson          :
          :   write xtbopt.log                true          :
          :   linear?                        false          :
          :   energy convergence         0.5000000E-05 Eh   :
          :   grad. convergence          0.1000000E-02 Eh/α :
          :   maximium RF displ.         1.0000000          :
          :   Hlow (freq-cutoff)         0.1000000E-01      :
          :   Hmax (freq-cutoff)         5.0000000          :
          :   S6 in model hess.         20.0000000          :
          ...................................................

generating ANC from model Hessian ...
Using Lindh-Hessian (1995)
 Shifting diagonal of input Hessian by   8.460578742333255E-003
 Lowest  eigenvalues of input Hessian
   -0.000000   -0.000000   -0.000000   -0.000000    0.000000    0.000000
    0.010000    0.010688    0.018530    0.076632    0.078634    0.120629
    0.120765    0.130742    0.417677    1.079330    1.079748    1.099065
 Highest eigenvalues
    0.120765    0.130742    0.417677    1.079330    1.079748    1.099065
 

........................................................................
.............................. CYCLE    1 ..............................
........................................................................
   1    -13.1748215 -0.131748E+02  0.759E-06    1.65       0.0  T
   2    -13.1748215 -0.301981E-13  0.462E-06    1.65    8832.5  T
   3    -13.1748215 -0.213163E-13  0.216E-06    1.65   18884.7  T
     SCC iter.                  ...        0 min,  0.000 sec
     gradient                   ...        0 min,  0.000 sec
 * total energy  :   -13.1227551 Eh     change       -0.2734241E-08 Eh
   gradient norm :     0.0226971 Eh/α   predicted     0.0000000E+00 (-100.00%)
   displ. norm   :     0.5791326 α      lambda       -0.1005291E-01
   maximum displ.:     0.5243575 α      in ANC's #3, #2, #8, ...

........................................................................
.............................. CYCLE    2 ..............................
........................................................................
   1    -13.1831453 -0.131831E+02  0.917E-01    1.48       0.0  T
   2    -13.1831727 -0.273993E-04  0.528E-01    1.54       1.0  T
   3    -13.1831814 -0.873282E-05  0.442E-02    1.58       1.0  T
   4    -13.1831827 -0.124288E-05  0.251E-02    1.58       1.6  T
   5    -13.1831833 -0.677888E-06  0.166E-02    1.58       2.5  T
   6    -13.1831840 -0.671941E-06  0.304E-03    1.58      13.4  T
   7    -13.1831840 -0.167696E-07  0.191E-03    1.58      21.3  T
     SCC iter.                  ...        0 min,  0.001 sec
     gradient                   ...        0 min,  0.000 sec
 * total energy  :   -13.1302933 Eh     change       -0.7538102E-02 Eh
   gradient norm :     0.0132550 Eh/α   predicted    -0.6712315E-02 ( -10.95%)
   displ. norm   :     0.7922268 α      lambda       -0.8689481E-02
   maximum displ.:     0.6463428 α      in ANC's #2, #3, #1, ...

........................................................................
.............................. CYCLE    3 ..............................
........................................................................
   1    -13.1875928 -0.131876E+02  0.147E+00    1.40       0.0  T
   2    -13.1878522 -0.259412E-03  0.856E-01    1.73       1.0  T
   3    -13.1878841 -0.318312E-04  0.112E-01    2.01       1.0  T
   4    -13.1879034 -0.193112E-04  0.565E-02    2.03       1.0  T
   5    -13.1879067 -0.330693E-05  0.298E-02    2.02       1.4  T
   6    -13.1879094 -0.268551E-05  0.808E-03    2.02       5.1  T
   7    -13.1879095 -0.151243E-06  0.440E-03    2.03       9.3  T
   8    -13.1879096 -0.324012E-07  0.191E-03    2.03      21.3  T
   9    -13.1879096 -0.960905E-08  0.560E-04    2.03      73.0  T
     SCC iter.                  ...        0 min,  0.001 sec
     gradient                   ...        0 min,  0.000 sec
 * total energy  :   -13.1383910 Eh     change       -0.8097736E-02 Eh
   gradient norm :     0.0175087 Eh/α   predicted    -0.7071609E-02 ( -12.67%)
   displ. norm   :     0.8625689 α      lambda       -0.8132801E-02
   maximum displ.:     0.7642204 α      in ANC's #2, #3, #1, ...

........................................................................
.............................. CYCLE    4 ..............................
........................................................................
   1    -13.1862697 -0.131863E+02  0.175E+00    1.72       0.0  T
   2    -13.1871218 -0.852063E-03  0.102E+00    2.28       1.0  T
   3    -13.1871978 -0.760136E-04  0.215E-01    2.66       1.0  T
   4    -13.1872724 -0.745765E-04  0.984E-02    2.73       1.0  T
   5    -13.1872850 -0.126153E-04  0.569E-02    2.71       1.0  T
   6    -13.1872957 -0.107074E-04  0.196E-02    2.71       2.1  T
   7    -13.1872968 -0.110419E-05  0.635E-03    2.73       6.4  T
   8    -13.1872968 -0.422734E-07  0.229E-03    2.73      17.8  T
   9    -13.1872969 -0.934760E-08  0.104E-03    2.73      39.4  T
     SCC iter.                  ...        0 min,  0.001 sec
     gradient                   ...        0 min,  0.000 sec
 * total energy  :   -13.1427900 Eh     change       -0.4398981E-02 Eh
   gradient norm :     0.0277054 Eh/α   predicted    -0.7091945E-02 (  61.22%)
   displ. norm   :     0.1476887 α      lambda       -0.1981118E-02
   maximum displ.:     0.1011579 α      in ANC's #3, #5, #1, ...

........................................................................
.............................. CYCLE    5 ..............................
........................................................................
   1    -13.1909085 -0.131909E+02  0.374E-01    2.73       0.0  T
   2    -13.1910233 -0.114729E-03  0.231E-01    2.54       1.0  T
   3    -13.1910330 -0.978579E-05  0.831E-02    2.46       1.0  T
   4    -13.1910377 -0.468507E-05  0.248E-02    2.41       1.6  T
   5    -13.1910384 -0.648812E-06  0.121E-02    2.41       3.4  T
   6    -13.1910387 -0.349518E-06  0.366E-03    2.41      11.2  T
   7    -13.1910387 -0.272178E-07  0.174E-03    2.41      23.5  T
     SCC iter.                  ...        0 min,  0.000 sec
     gradient                   ...        0 min,  0.000 sec
 * total energy  :   -13.1443145 Eh     change       -0.1524538E-02 Eh
   gradient norm :     0.0214053 Eh/α   predicted    -0.1012165E-02 ( -33.61%)
   displ. norm   :     0.2749221 α      lambda       -0.2696037E-02
   maximum displ.:     0.1579504 α      in ANC's #2, #9, #3, ...

........................................................................
.............................. CYCLE    6 ..............................
........................................................................
   1    -13.1976094 -0.131976E+02  0.722E-01    2.66       0.0  T
   2    -13.1976854 -0.759418E-04  0.435E-01    2.52       1.0  T
   3    -13.1976935 -0.811462E-05  0.705E-02    2.42       1.0  T
   4    -13.1977013 -0.779389E-05  0.417E-02    2.40       1.0  T
   5    -13.1977050 -0.368789E-05  0.226E-02    2.41       1.8  T
   6    -13.1977067 -0.170085E-05  0.498E-03    2.40       8.2  T
   7    -13.1977067 -0.326236E-07  0.308E-03    2.40      13.2  T
     SCC iter.                  ...        0 min,  0.000 sec
     gradient                   ...        0 min,  0.000 sec
 * total energy  :   -13.1458478 Eh     change       -0.1533266E-02 Eh
   gradient norm :     0.0123091 Eh/α   predicted    -0.1449906E-02 (  -5.44%)
   displ. norm   :     0.3309498 α      lambda       -0.1061674E-02
   maximum displ.:     0.2172971 α      in ANC's #2, #3, #1, ...

........................................................................
.............................. CYCLE    7 ..............................
........................................................................
   1    -13.1950179 -0.131950E+02  0.610E-01    2.35       0.0  T
   2    -13.1950339 -0.160167E-04  0.359E-01    2.31       1.0  T
   3    -13.1950347 -0.737360E-06  0.294E-02    2.29       1.4  T
   4    -13.1950365 -0.184051E-05  0.141E-02    2.29       2.9  T
   5    -13.1950368 -0.268852E-06  0.759E-03    2.30       5.4  T
   6    -13.1950369 -0.126600E-06  0.151E-03    2.30      27.0  T
   7    -13.1950369 -0.301483E-08  0.650E-04    2.30      62.8  T
     SCC iter.                  ...        0 min,  0.000 sec
     gradient                   ...        0 min,  0.000 sec
 * total energy  :   -13.1462168 Eh     change       -0.3689784E-03 Eh
   gradient norm :     0.0085130 Eh/α   predicted    -0.5889795E-03 (  59.62%)
   displ. norm   :     0.1171277 α      lambda       -0.4828200E-03
   maximum displ.:     0.0996576 α      in ANC's #1, #2, #9, ...

........................................................................
.............................. CYCLE    8 ..............................
........................................................................
   1    -13.1976355 -0.131976E+02  0.180E-01    2.40       0.0  T
   2    -13.1976395 -0.394847E-05  0.105E-01    2.43       1.0  T
   3    -13.1976403 -0.868635E-06  0.191E-02    2.45       2.1  T
   4    -13.1976407 -0.386940E-06  0.120E-02    2.45       3.4  T
   5    -13.1976410 -0.269931E-06  0.791E-03    2.45       5.2  T
   6    -13.1976412 -0.194706E-06  0.139E-03    2.45      29.5  T
   7    -13.1976412 -0.219699E-08  0.824E-04    2.45      49.5  T
     SCC iter.                  ...        0 min,  0.000 sec
     gradient                   ...        0 min,  0.000 sec
 * total energy  :   -13.1464707 Eh     change       -0.2539120E-03 Eh
   gradient norm :     0.0061551 Eh/α   predicted    -0.2447238E-03 (  -3.62%)
   displ. norm   :     0.0408815 α      lambda       -0.9176978E-04
   maximum displ.:     0.0312483 α      in ANC's #2, #4, #9, ...

........................................................................
.............................. CYCLE    9 ..............................
........................................................................
   1    -13.1979687 -0.131980E+02  0.942E-02    2.51       0.0  T
   2    -13.1979693 -0.543097E-06  0.556E-02    2.52       1.0  T
   3    -13.1979697 -0.378752E-06  0.931E-03    2.53       4.4  T
   4    -13.1979697 -0.824929E-07  0.750E-03    2.53       5.4  T
   5    -13.1979699 -0.133882E-06  0.457E-03    2.53       8.9  T
   6    -13.1979699 -0.677229E-07  0.637E-04    2.52      64.1  T
   7    -13.1979699 -0.499085E-09  0.289E-04    2.52     141.3  T
     SCC iter.                  ...        0 min,  0.000 sec
     gradient                   ...        0 min,  0.000 sec
 * total energy  :   -13.1465240 Eh     change       -0.5335756E-04 Eh
   gradient norm :     0.0032170 Eh/α   predicted    -0.4596147E-04 ( -13.86%)
   displ. norm   :     0.0593079 α      lambda       -0.3682133E-04
   maximum displ.:     0.0444860 α      in ANC's #2, #1, #3, ...

........................................................................
.............................. CYCLE   10 ..............................
........................................................................
   1    -13.1974910 -0.131975E+02  0.140E-01    2.51       0.0  T
   2    -13.1974913 -0.374730E-06  0.818E-02    2.52       1.0  T
   3    -13.1974915 -0.164524E-06  0.553E-03    2.53       7.4  T
   4    -13.1974915 -0.273507E-07  0.402E-03    2.53      10.2  T
   5    -13.1974916 -0.264093E-07  0.262E-03    2.53      15.6  T
   6    -13.1974916 -0.213870E-07  0.558E-04    2.53      73.2  T
   7    -13.1974916 -0.438067E-09  0.339E-04    2.53     120.3  T
     SCC iter.                  ...        0 min,  0.000 sec
     gradient                   ...        0 min,  0.000 sec
 * total energy  :   -13.1465449 Eh     change       -0.2083399E-04 Eh
   gradient norm :     0.0019129 Eh/α   predicted    -0.1847731E-04 ( -11.31%)
   displ. norm   :     0.0235164 α      lambda       -0.1251492E-04
   maximum displ.:     0.0194443 α      in ANC's #1, #8, #4, ...

........................................................................
.............................. CYCLE   11 ..............................
........................................................................
   1    -13.1970900 -0.131971E+02  0.315E-02    2.57       0.0  T
   2    -13.1970902 -0.170658E-06  0.197E-02    2.57       2.1  T
   3    -13.1970903 -0.114679E-06  0.571E-03    2.58       7.1  T
   4    -13.1970903 -0.344556E-07  0.453E-03    2.58       9.0  T
   5    -13.1970904 -0.622898E-07  0.197E-03    2.58      20.7  T
   6    -13.1970904 -0.116951E-07  0.177E-04    2.57     231.1  T
   7    -13.1970904 -0.190159E-10  0.408E-05    2.57    1000.8  T
     SCC iter.                  ...        0 min,  0.000 sec
     gradient                   ...        0 min,  0.000 sec
 * total energy  :   -13.1465534 Eh     change       -0.8551977E-05 Eh
   gradient norm :     0.0007919 Eh/α   predicted    -0.6258864E-05 ( -26.81%)
   displ. norm   :     0.0198357 α      lambda       -0.4513407E-05
   maximum displ.:     0.0159599 α      in ANC's #2, #1, #9, ...

........................................................................
.............................. CYCLE   12 ..............................
........................................................................
   1    -13.1970787 -0.131971E+02  0.210E-02    2.55       0.0  T
   2    -13.1970788 -0.316959E-07  0.129E-02    2.55       3.2  T
   3    -13.1970788 -0.360701E-07  0.302E-03    2.55      13.5  T
   4    -13.1970788 -0.946385E-08  0.257E-03    2.55      15.9  T
   5    -13.1970788 -0.235205E-07  0.536E-04    2.56      76.1  T
   6    -13.1970788 -0.498819E-09  0.886E-05    2.56     460.6  T
     SCC iter.                  ...        0 min,  0.000 sec
     gradient                   ...        0 min,  0.000 sec
 * total energy  :   -13.1465562 Eh     change       -0.2837805E-05 Eh
   gradient norm :     0.0002957 Eh/α   predicted    -0.2255787E-05 ( -20.51%)
   displ. norm   :     0.0052931 α      lambda       -0.2878433E-06
   maximum displ.:     0.0032096 α      in ANC's #1, #3, #2, ...

   *** GEOMETRY OPTIMIZATION CONVERGED AFTER 12 ITERATIONS ***

------------------------------------------------------------------------
 total energy gain   :        -0.0238011 Eh      -14.9354 kcal/mol
 total RMSD          :         1.1562955 a0        0.6119 Å
 total power (kW/mol):        -5.2074812 (step)-3556.4209 (real)
------------------------------------------------------------------------

 ANCopt (total)                0 d,  0 h,  0 min,  0.018 sec
 optimizer setup                ...        0 min,  0.000 sec (  0.296%)
 model hessian                  ...        0 min,  0.000 sec (  0.625%)
 ANC generation                 ...        0 min,  0.000 sec (  0.358%)
 coordinate transformation      ...        0 min,  0.000 sec (  0.312%)
 single point calculation       ...        0 min,  0.016 sec ( 92.645%)
 optimization log               ...        0 min,  0.000 sec (  1.648%)
 hessian update                 ...        0 min,  0.000 sec (  0.264%)
 rational function              ...        0 min,  0.000 sec (  1.820%)

================
 final structure:
================
6
 xtb: 6.2.3 (830e466)
F         0.54470891457744    0.23558700948302   -0.68260507049656
Cl       -3.35197675413175   -0.19474530505911   -0.84446286995243
C        -1.89896495835762   -0.03382149988268   -1.84914696573758
H        -2.04069908500437    0.84743700674884   -2.47072399993119
H        -0.95570502174292    0.07141674393455   -1.23022731278714
H        -1.84329309534079   -0.92587395522462   -2.46878378109514
 
 Bond Distances (Angstroems)
 ---------------------------
Cl2-C3=1.7738        C3-Cl2=1.7738        C3-H4=1.0877         C3-H5=1.1331         C3-H6=1.0876         H4-C3=1.0877         
H5-C3=1.1331         H6-C3=1.0876         
 C  H  Rav=1.1028 sigma=0.0214  Rmin=1.0876  Rmax=1.1331     3
 Cl C  Rav=1.7738 sigma=0.0000  Rmin=1.7738  Rmax=1.7738     1
 
 selected bond angles (degree)
 --------------------
H4-C3-Cl2=106.88               H5-C3-Cl2=112.39               H5-C3-H4=110.20                H6-C3-Cl2=106.87               
H6-C3-H4=110.22                H6-C3-H5=110.17                
 
 selected dihedral angles (degree)
 ---------------------------------

 
 CMA Distance (Angstroems)
 ---------------------------
R(CMA):  3.5000
           -------------------------------------------------
          |                Final Singlepoint                |
           -------------------------------------------------

          ...................................................
          :                      SETUP                      :
          :.................................................:
          :  # basis functions                  21          :
          :  # atomic orbitals                  20          :
          :  # shells                           10          :
          :  # electrons                        22          :
          :  max. iterations                   250          :
          :  Hamiltonian                  GFN2-xTB          :
          :  restarted?                      false          :
          :  GBSA solvation                  false          :
          :  PC potential                    false          :
          :  electronic temp.          300.0000000     K    :
          :  accuracy                    1.0000000          :
          :  -> integral cutoff          0.2500000E+02      :
          :  -> integral neglect         0.1000000E-07      :
          :  -> SCF convergence          0.1000000E-05 Eh   :
          :  -> wf. convergence          0.1000000E-03 e    :
          :  Broyden damping             0.4000000          :
          ...................................................

 iter      E             dE          RMSdq      gap      omega  full diag
   1    -13.1970788 -0.131971E+02  0.386E-05    2.56       0.0  T
   2    -13.1970788 -0.105338E-11  0.323E-05    2.56    1265.0  T
   3    -13.1970788 -0.233058E-11  0.966E-06    2.56    4225.7  T

   *** convergence criteria satisfied after 3 iterations ***

         #    Occupation            Energy/Eh            Energy/eV
      -------------------------------------------------------------
         1        2.0000           -0.9075273             -24.6951
       ...           ...                  ...                  ...
         5        2.0000           -0.3411205              -9.2824
         6        2.0000           -0.3177204              -8.6456
         7        2.0000           -0.2659850              -7.2378
         8        2.0000           -0.2573935              -7.0040
         9        2.0000           -0.0977913              -2.6610
        10        2.0000           -0.0947014              -2.5770
        11        2.0000           -0.0946713              -2.5761 (HOMO)
        12                         -0.0007546              -0.0205 (LUMO)
        13                          0.1750270               4.7627
        14                          0.1754249               4.7736
        15                          0.1780064               4.8438
        16                          0.1797311               4.8907
       ...                                ...                  ...
        20                          0.4093032              11.1377
      -------------------------------------------------------------
                  HL-Gap            0.0939167 Eh            2.5556 eV
             Fermi-level           -0.0477129 Eh           -1.2983 eV

 SCC (total)                   0 d,  0 h,  0 min,  0.001 sec
 SCC setup                      ...        0 min,  0.000 sec (  5.479%)
 Dispersion                     ...        0 min,  0.000 sec (  0.851%)
 integral evaluation            ...        0 min,  0.000 sec ( 29.497%)
 zeroth order Hamiltonian       ...        0 min,  0.000 sec (  1.376%)
 iterations                     ...        0 min,  0.000 sec ( 24.043%)
 molecular gradient             ...        0 min,  0.000 sec ( 31.699%)
 printout                       ...        0 min,  0.000 sec (  5.054%)

         :::::::::::::::::::::::::::::::::::::::::::::::::::::
         ::                     SUMMARY                     ::
         :::::::::::::::::::::::::::::::::::::::::::::::::::::
         :: total energy             -13.146556242725 Eh    ::
         :: gradient norm              0.000295949088 Eh/a0 ::
         :: HOMO-LUMO gap              2.555602810639 eV    ::
         ::.................................................::
         :: SCC energy               -13.197078834051 Eh    ::
         :: -> isotropic ES            0.234181731691 Eh    ::
         :: -> anisotropic ES         -0.001616082385 Eh    ::
         :: -> anisotropic XC         -0.001639684242 Eh    ::
         :: -> dispersion             -0.002124876117 Eh    ::
         :: repulsion energy           0.050522313394 Eh    ::
         :: add. restraining           0.000000000000 Eh    ::
         :::::::::::::::::::::::::::::::::::::::::::::::::::::

           -------------------------------------------------
          |                Property Printout                |
           -------------------------------------------------

    * Orbital Energies and Occupations

         #    Occupation            Energy/Eh            Energy/eV
      -------------------------------------------------------------
         1        2.0000           -0.9075273             -24.6951
         2        2.0000           -0.4404632             -11.9856
         3        2.0000           -0.3657412              -9.9523
         4        2.0000           -0.3494186              -9.5082
         5        2.0000           -0.3411205              -9.2824
         6        2.0000           -0.3177204              -8.6456
         7        2.0000           -0.2659850              -7.2378
         8        2.0000           -0.2573935              -7.0040
         9        2.0000           -0.0977913              -2.6610
        10        2.0000           -0.0947014              -2.5770
        11        2.0000           -0.0946713              -2.5761 (HOMO)
        12                         -0.0007546              -0.0205 (LUMO)
        13                          0.1750270               4.7627
        14                          0.1754249               4.7736
        15                          0.1780064               4.8438
        16                          0.1797311               4.8907
        17                          0.2902883               7.8991
        18                          0.3269101               8.8957
        19                          0.3678802              10.0105
        20                          0.4093032              11.1377
      -------------------------------------------------------------
                  HL-Gap            0.0939167 Eh            2.5556 eV
             Fermi-level           -0.0477129 Eh           -1.2983 eV

     #   Z        covCN         q      C6AA      α(0)
     1   9 F      0.003    -0.899    22.294     5.499
     2  17 Cl     0.889    -0.290   108.398    15.928
     3   6 C      3.655    -0.021    21.259     6.620
     4   1 H      0.925     0.017     2.775     2.605
     5   1 H      0.919     0.176     1.229     1.734
     6   1 H      0.925     0.017     2.773     2.604

 Mol. C6AA /au·bohr⁶  :        577.787911
 Mol. C8AA /au·bohr⁸  :      15973.162612
 Mol. α(0) /au        :         34.990127


Wiberg/Mayer (AO) data.
largest (>0.10) Wiberg bond orders for each atom
          total WBO             WBO to atom ...
     1  F   0.191        H    5 0.106
     2  Cl  0.953        C    3 0.923
     3  C   3.839        H    6 0.994    H    4 0.994    Cl   2 0.923    H    5 0.857
     4  H   1.000        C    3 0.994
     5  H   0.969        C    3 0.857    F    1 0.106
     6  H   1.000        C    3 0.994

molecular dipole:
                 x           y           z       tot (Debye)
 q only:        0.543      -0.271       1.126
   full:        0.796      -0.244       0.963       3.236
molecular quadrupole (traceless):
                xx          xy          yy          xz          yz          zz
 q only:      -11.377      -1.706       6.191      -1.007       0.448       5.186
  q+dip:      -16.489      -2.391       8.365       0.441       0.528       8.124
   full:      -16.026      -2.291       7.930      -0.344       0.441       8.095

           -------------------------------------------------
          |                Geometry Summary                 |
           -------------------------------------------------

      molecular mass/u    :       69.4858989
   center of mass at/Å    :       -1.9597490      -0.0408977      -1.0266175
  moments of inertia/u·Å² :        0.1715040E+02   0.1930974E+03   0.2070389E+03
rotational constants/cm⁻¹ :        0.9829292E+00   0.8730120E-01   0.8142254E-01

 * 4 selected distances

     #   Z        #   Z                                     value/Å
     2  17 Cl     3   6 C                                 1.7738461 (max)
     3   6 C      4   1 H                                 1.0876871
     3   6 C      5   1 H                                 1.1330825
     3   6 C      6   1 H                                 1.0875692 (min)

 * 2 distinct bonds (by element types)

   Z      Z             #   av. dist./Å        max./Å        min./Å
   1 H    6 C           3     1.1027796     1.1330825     1.0875692
   6 C   17 Cl          1     1.7738461     1.7738461     1.7738461


optimized geometry written to: xtbopt.xyz


           -------------------------------------------------
          | TOTAL ENERGY              -13.146556242725 Eh   |
          | GRADIENT NORM               0.000295949088 Eh/α |
          | HOMO-LUMO GAP               2.555602810639 eV   |
           -------------------------------------------------

------------------------------------------------------------------------
 * finished run on 2020/05/13 at 13:04:54.474     
------------------------------------------------------------------------
 total:
 * wall-time:     0 d,  0 h,  0 min,  0.030 sec
 *  cpu-time:     0 d,  0 h,  0 min,  0.111 sec
 * ratio c/w:     3.759 speedup
 SCF:
 * wall-time:     0 d,  0 h,  0 min,  0.002 sec
 *  cpu-time:     0 d,  0 h,  0 min,  0.009 sec
 * ratio c/w:     3.898 speedup
 ANC optimizer:
 * wall-time:     0 d,  0 h,  0 min,  0.019 sec
 *  cpu-time:     0 d,  0 h,  0 min,  0.073 sec
 * ratio c/w:     3.840 speedup

