      -----------------------------------------------------------      
     |                   =====================                   |     
     |                           x T B                           |     
     |                   =====================                   |     
     |                         S. Grimme                         |     
     |          Mulliken Center for Theoretical Chemistry        |     
     |                    University of Bonn                     |     
      -----------------------------------------------------------      

   * xtb version 6.2.3 (830e466) compiled by 'ehlert@majestix' on 2020-03-16

   xtb is free software: you can redistribute it and/or modify it under
   the terms of the GNU Lesser General Public License as published by
   the Free Software Foundation, either version 3 of the License, or
   (at your option) any later version.
   
   xtb is distributed in the hope that it will be useful,
   but WITHOUT ANY WARRANTY; without even the implied warranty of
   MERCHANTABILITY or FITNESS FOR A PARTICULAR PURPOSE.  See the
   GNU Lesser General Public License for more details.
   
   Cite this work as:
   * S. Grimme, C. Bannwarth, P. Shushkov, J. Chem. Theory Comput., 2017,
     13, 1989-2009. DOI: 10.1021/acs.jctc.7b00118
   * C. Bannwarth, S. Ehlert and S. Grimme., J. Chem. Theory Comput., 2019,
     15, 1652-1671. DOI: 10.1021/acs.jctc.8b01176
   * P. Pracht, E. Caldeweyher, S. Ehlert, S. Grimme, ChemRxiv, 2019, preprint.
     DOI: 10.26434/chemrxiv.8326202.v1
   
   for DFT-D4:
   * E. Caldeweyher, C. Bannwarth and S. Grimme, J. Chem. Phys., 2017,
     147, 034112. DOI: 10.1063/1.4993215
   * E. Caldeweyher, S. Ehlert, A. Hansen, H. Neugebauer, S. Spicher,
     C. Bannwarth and S. Grimme, J. Chem. Phys., 2019, 150, 154122.
     DOI: 10.1063/1.5090222
   
   for sTDA-xTB:
   * S. Grimme and C. Bannwarth, J. Chem. Phys., 2016, 145, 054103.
     DOI: 10.1063/1.4959605
   
   in the mass-spec context:
   * V. Asgeirsson, C. Bauer and S. Grimme, Chem. Sci., 2017, 8, 4879.
     DOI: 10.1039/c7sc00601b
   
   for metadynamics refer to:
   * S. Grimme, J. Chem. Theory Comput., 2019, 155, 2847-2862
     DOI: 10.1021/acs.jctc.9b00143
   
   with help from (in alphabetical order)
   C. Bannwarth, F. Bohle, G. Brandenburg, E. Caldeweyher, M. Checinski,
   S. Dohm, S. Ehlert, S. Ehrlich, F. März, H. Neugebauer, J. Pisarek,
   P. Pracht, P. Shushkov, and S. Spicher.
   
 * started run on 2020/05/13 at 13:04:54.312     

           -------------------------------------------------
          |                Calculation Setup                |
           -------------------------------------------------

          program call               : /home/tom/.local/bin/xtb complex_conf1_opt_xtb.xyz --chrg -1 --opt
          coordinate file            : complex_conf1_opt_xtb.xyz
          omp threads                :                     4
          number of atoms            :                     6
          number of electrons        :                    22
          charge                     :                    -1
          spin                       :                   0.0
          first test random number   :      0.53829126560816


molecular fragmentation (1/2 indicates fragments):
122222
# atoms in fragment 1/2:     1     5
 fragment masses (1/2) :       19.00       50.49
CMA distance (Bohr)    :   6.878
constraining FC (au)   :  0.0500
########################################################################
[WARNING] Please study the warnings concerning your input carefully
-2- prog_main: XTBPATH is not set, using XTBHOME instead
-1- prog_main: XTBHOME is not set, using HOME instead
########################################################################
           ------------------------------------------------- 
          |                 G F N 2 - x T B                 |
          | Geometry, Frequencies, Noncovalent interactions |
          |            JCTC 2019 parametrisation            |
           ------------------------------------------------- 
             k(s)              :                1.8500
             k(p)              :                2.2300
             k(d)              :                2.2300
             k(f)              :                2.0000
             kEN (H0ij)        :               -2.0000
             D4 a1             :                0.5200
             D4 a2             :                5.0000
             D4 s6             :                1.0000
             D4 s8             :                2.7000
             D4 s9             :                5.0000
             alphaj            :                2.0000

  Z AO/shell   Hii/eV     exponent
  1     Wed Apr 25 08:07:45 CEST 2018   EN: 2.200 GM2: 0.406  GM3: 0.0800  RAES: 1.40
     1s    -10.707211    1.230000
  6     Wed Apr 25 08:07:45 CEST 2018   EN: 2.550 GM2: 0.538  GM3: 0.1500  RAES: 3.00
     2s    -13.970922    2.096432
     2p    -10.063292    1.800000
  9     Mon Apr 23 13:58:50 CEST 2018   EN: 3.980 GM2: 0.532  GM3: 0.1426  RAES: 2.40
     2s    -23.458179    2.416361
     2p    -15.746583    2.308399
 17     Mon Apr 23 14:09:22 CEST 2018   EN: 3.160 GM2: 0.249  GM3: 0.1495  RAES: 2.50
     3s    -29.278781    2.485265
     3p    -12.673758    2.199650
     3d     -0.240338    2.476089

           ------------------------------------------------- 
          |        Self-Consistent Charge Iterations        |
           ------------------------------------------------- 

          ...................................................
          :                      SETUP                      :
          :.................................................:
          :  # basis functions                  21          :
          :  # atomic orbitals                  20          :
          :  # shells                           10          :
          :  # electrons                        22          :
          :  max. iterations                   250          :
          :  Hamiltonian                  GFN2-xTB          :
          :  restarted?                      false          :
          :  GBSA solvation                  false          :
          :  PC potential                    false          :
          :  electronic temp.          300.0000000     K    :
          :  accuracy                    1.0000000          :
          :  -> integral cutoff          0.2500000E+02      :
          :  -> integral neglect         0.1000000E-07      :
          :  -> SCF convergence          0.1000000E-05 Eh   :
          :  -> wf. convergence          0.1000000E-03 e    :
          :  Broyden damping             0.4000000          :
          ...................................................

 iter      E             dE          RMSdq      gap      omega  full diag
   1    -13.1325029 -0.131325E+02  0.549E+00    5.35       0.0  T
   2    -13.1916531 -0.591502E-01  0.289E+00    3.07       1.0  T
   3    -13.1934450 -0.179187E-02  0.156E+00    2.60       1.0  T
   4    -13.1940863 -0.641361E-03  0.452E-01    2.02       1.0  T
   5    -13.1943329 -0.246562E-03  0.293E-01    2.36       1.0  T
   6    -13.1945333 -0.200447E-03  0.238E-01    2.15       1.0  T
   7    -13.1947287 -0.195383E-03  0.417E-02    2.13       1.0  T
   8    -13.1947298 -0.104780E-05  0.190E-02    2.11       2.1  T
   9    -13.1947307 -0.964821E-06  0.589E-03    2.11       6.9  T
  10    -13.1947308 -0.854182E-07  0.294E-03    2.12      13.9  T
  11    -13.1947308 -0.157222E-07  0.142E-03    2.12      28.8  T
  12    -13.1947309 -0.816629E-08  0.190E-04    2.12     214.9  T
  13    -13.1947309 -0.827605E-10  0.284E-05    2.12    1435.3  T

   *** convergence criteria satisfied after 13 iterations ***

         #    Occupation            Energy/Eh            Energy/eV
      -------------------------------------------------------------
         1        2.0000           -0.9118208             -24.8119
       ...           ...                  ...                  ...
         5        2.0000           -0.3401707              -9.2565
         6        2.0000           -0.3287705              -8.9463
         7        2.0000           -0.2694841              -7.3330
         8        2.0000           -0.2675528              -7.2805
         9        2.0000           -0.0858795              -2.3369
        10        2.0000           -0.0850659              -2.3148
        11        2.0000           -0.0848007              -2.3075 (HOMO)
        12                         -0.0070545              -0.1920 (LUMO)
        13                          0.1719156               4.6781
        14                          0.1722409               4.6869
        15                          0.1749852               4.7616
        16                          0.1755475               4.7769
       ...                                ...                  ...
        20                          0.3779536              10.2846
      -------------------------------------------------------------
                  HL-Gap            0.0777463 Eh            2.1156 eV
             Fermi-level           -0.0459276 Eh           -1.2498 eV

 SCC (total)                   0 d,  0 h,  0 min,  0.002 sec
 SCC setup                      ...        0 min,  0.000 sec (  3.279%)
 Dispersion                     ...        0 min,  0.000 sec (  0.771%)
 integral evaluation            ...        0 min,  0.000 sec ( 15.729%)
 zeroth order Hamiltonian       ...        0 min,  0.000 sec (  0.874%)
 iterations                     ...        0 min,  0.001 sec ( 59.222%)
 molecular gradient             ...        0 min,  0.000 sec ( 16.074%)
 printout                       ...        0 min,  0.000 sec (  2.992%)

         :::::::::::::::::::::::::::::::::::::::::::::::::::::
         ::                     SUMMARY                     ::
         :::::::::::::::::::::::::::::::::::::::::::::::::::::
         :: total energy             -13.142665217871 Eh    ::
         :: gradient norm              0.023494253835 Eh/a0 ::
         :: HOMO-LUMO gap              2.115583322105 eV    ::
         ::.................................................::
         :: SCC energy               -13.194730850637 Eh    ::
         :: -> isotropic ES            0.247542596168 Eh    ::
         :: -> anisotropic ES         -0.003330016014 Eh    ::
         :: -> anisotropic XC         -0.002130392975 Eh    ::
         :: -> dispersion             -0.002074026924 Eh    ::
         :: repulsion energy           0.052065719177 Eh    ::
         :: add. restraining           0.000000000000 Eh    ::
         :::::::::::::::::::::::::::::::::::::::::::::::::::::

      ----------------------------------------------------------- 
     |                   =====================                   |
     |                        A N C O P T                        |
     |                   =====================                   |
     |               Approximate Normal Coordinate               |
     |                Rational Function Optimizer                |
      ----------------------------------------------------------- 

          ...................................................
          :                      SETUP                      :
          :.................................................:
          :   optimization level            normal          :
          :   max. optcycles                   200          :
          :   ANC micro-cycles                  20          :
          :   degrees of freedom                12          :
          :.................................................:
          :   RF solver                   davidson          :
          :   write xtbopt.log                true          :
          :   linear?                        false          :
          :   energy convergence         0.5000000E-05 Eh   :
          :   grad. convergence          0.1000000E-02 Eh/α :
          :   maximium RF displ.         1.0000000          :
          :   Hlow (freq-cutoff)         0.1000000E-01      :
          :   Hmax (freq-cutoff)         5.0000000          :
          :   S6 in model hess.         20.0000000          :
          ...................................................

generating ANC from model Hessian ...
Using Lindh-Hessian (1995)
 Shifting diagonal of input Hessian by   7.806434705005074E-003
 Lowest  eigenvalues of input Hessian
   -0.000000   -0.000000   -0.000000   -0.000000    0.000000    0.000000
    0.010000    0.012151    0.024233    0.076572    0.079955    0.119811
    0.120273    0.133235    0.416932    1.078738    1.079463    1.103316
 Highest eigenvalues
    0.120273    0.133235    0.416932    1.078738    1.079463    1.103316
 

........................................................................
.............................. CYCLE    1 ..............................
........................................................................
   1    -13.1947309 -0.131947E+02  0.211E-05    2.12       0.0  T
   2    -13.1947309 -0.208900E-11  0.868E-06    2.12    4704.6  T
   3    -13.1947309 -0.143885E-12  0.429E-06    2.12    9509.6  T
     SCC iter.                  ...        0 min,  0.000 sec
     gradient                   ...        0 min,  0.001 sec
 * total energy  :   -13.1426652 Eh     change        0.6210676E-09 Eh
   gradient norm :     0.0234940 Eh/α   predicted     0.0000000E+00 (-100.00%)
   displ. norm   :     0.2234802 α      lambda       -0.1495573E-02
   maximum displ.:     0.1541333 α      in ANC's #1, #2, #3, ...

........................................................................
.............................. CYCLE    2 ..............................
........................................................................
   1    -13.1996172 -0.131996E+02  0.445E-01    1.93       0.0  T
   2    -13.1996417 -0.244945E-04  0.263E-01    1.99       1.0  T
   3    -13.1996441 -0.237251E-05  0.492E-02    2.00       1.0  T
   4    -13.1996483 -0.420372E-05  0.295E-02    2.01       1.4  T
   5    -13.1996496 -0.133265E-05  0.193E-02    2.00       2.1  T
   6    -13.1996508 -0.115932E-05  0.439E-03    2.01       9.3  T
   7    -13.1996508 -0.361636E-07  0.210E-03    2.01      19.4  T
     SCC iter.                  ...        0 min,  0.001 sec
     gradient                   ...        0 min,  0.000 sec
 * total energy  :   -13.1437134 Eh     change       -0.1048150E-02 Eh
   gradient norm :     0.0129643 Eh/α   predicted    -0.7851357E-03 ( -25.09%)
   displ. norm   :     0.3659760 α      lambda       -0.1251959E-02
   maximum displ.:     0.2887433 α      in ANC's #2, #1, #12, ...

........................................................................
.............................. CYCLE    3 ..............................
........................................................................
   1    -13.2037178 -0.132037E+02  0.700E-01    1.82       0.0  T
   2    -13.2040723 -0.354458E-03  0.395E-01    2.07       1.0  T
   3    -13.2040759 -0.366519E-05  0.132E-01    2.07       1.0  T
   4    -13.2040965 -0.205911E-04  0.466E-02    2.10       1.0  T
   5    -13.2040987 -0.221553E-05  0.309E-02    2.09       1.3  T
   6    -13.2041012 -0.246410E-05  0.981E-03    2.08       4.2  T
   7    -13.2041015 -0.241149E-06  0.459E-03    2.09       8.9  T
   8    -13.2041015 -0.648221E-07  0.217E-03    2.09      18.8  T
   9    -13.2041015 -0.135547E-07  0.619E-04    2.09      65.9  T
     SCC iter.                  ...        0 min,  0.001 sec
     gradient                   ...        0 min,  0.001 sec
 * total energy  :   -13.1448366 Eh     change       -0.1123189E-02 Eh
   gradient norm :     0.0117094 Eh/α   predicted    -0.7098280E-03 ( -36.80%)
   displ. norm   :     0.6742154 α      lambda       -0.2330849E-02
   maximum displ.:     0.5462964 α      in ANC's #2, #1, #3, ...

........................................................................
.............................. CYCLE    4 ..............................
........................................................................
   1    -13.2024663 -0.132025E+02  0.137E+00    1.67       0.0  T
   2    -13.2073522 -0.488589E-02  0.722E-01    2.55       1.0  T
   3    -13.2080518 -0.699588E-03  0.395E-01    2.29       1.0  T
   4    -13.2081278 -0.759506E-04  0.153E-01    2.33       1.0  T
   5    -13.2081379 -0.100965E-04  0.641E-02    2.33       1.0  T
   6    -13.2081466 -0.875560E-05  0.352E-02    2.35       1.2  T
   7    -13.2081499 -0.326276E-05  0.125E-02    2.33       3.3  T
   8    -13.2081507 -0.818590E-06  0.392E-03    2.34      10.4  T
   9    -13.2081507 -0.947201E-08  0.319E-03    2.34      12.8  T
  10    -13.2081507 -0.304227E-07  0.834E-04    2.34      49.0  T
  11    -13.2081507 -0.199244E-08  0.603E-05    2.34     677.0  T
     SCC iter.                  ...        0 min,  0.001 sec
     gradient                   ...        0 min,  0.000 sec
 * total energy  :   -13.1463874 Eh     change       -0.1550859E-02 Eh
   gradient norm :     0.0167419 Eh/α   predicted    -0.1695189E-02 (   9.31%)
   displ. norm   :     0.1390900 α      lambda       -0.1023939E-02
   maximum displ.:     0.0979659 α      in ANC's #2, #3, #8, ...

........................................................................
.............................. CYCLE    5 ..............................
........................................................................
   1    -13.2082081 -0.132082E+02  0.347E-01    2.37       0.0  T
   2    -13.2086589 -0.450822E-03  0.105E-01    2.61       1.0  T
   3    -13.2086738 -0.148876E-04  0.568E-02    2.59       1.0  T
   4    -13.2086773 -0.347074E-05  0.294E-02    2.61       1.4  T
   5    -13.2086774 -0.139500E-06  0.363E-03    2.61      11.2  T
   6    -13.2086775 -0.104737E-07  0.197E-03    2.60      20.8  T
   7    -13.2086775 -0.629760E-08  0.113E-03    2.61      36.3  T
     SCC iter.                  ...        0 min,  0.002 sec
     gradient                   ...        0 min,  0.000 sec
 * total energy  :   -13.1471946 Eh     change       -0.8071617E-03 Eh
   gradient norm :     0.0139472 Eh/α   predicted    -0.5218737E-03 ( -35.34%)
   displ. norm   :     0.2628419 α      lambda       -0.1998663E-02
   maximum displ.:     0.1856796 α      in ANC's #1, #8, #3, ...

........................................................................
.............................. CYCLE    6 ..............................
........................................................................
   1    -13.2049359 -0.132049E+02  0.624E-01    2.76       0.0  T
   2    -13.2057132 -0.777303E-03  0.266E-01    3.04       1.0  T
   3    -13.2057258 -0.125734E-04  0.130E-01    3.05       1.0  T
   4    -13.2057287 -0.291308E-05  0.430E-02    3.07       1.0  T
   5    -13.2057334 -0.471187E-05  0.228E-02    3.06       1.8  T
   6    -13.2057348 -0.139667E-05  0.830E-03    3.05       4.9  T
   7    -13.2057350 -0.210223E-06  0.339E-03    3.06      12.0  T
   8    -13.2057350 -0.352171E-07  0.108E-03    3.05      37.9  T
   9    -13.2057350 -0.189494E-08  0.600E-04    3.05      68.1  T
     SCC iter.                  ...        0 min,  0.001 sec
     gradient                   ...        0 min,  0.000 sec
 * total energy  :   -13.1481288 Eh     change       -0.9341913E-03 Eh
   gradient norm :     0.0194703 Eh/α   predicted    -0.1068373E-02 (  14.36%)
   displ. norm   :     0.1857723 α      lambda       -0.8407522E-03
   maximum displ.:     0.1387977 α      in ANC's #2, #3, #12, ...

........................................................................
.............................. CYCLE    7 ..............................
........................................................................
   1    -13.2020920 -0.132021E+02  0.708E-01    2.98       0.0  T
   2    -13.2043619 -0.226994E-02  0.243E-01    3.52       1.0  T
   3    -13.2045104 -0.148456E-03  0.107E-01    3.45       1.0  T
   4    -13.2045266 -0.162862E-04  0.688E-02    3.48       1.0  T
   5    -13.2045299 -0.329836E-05  0.254E-02    3.49       1.6  T
   6    -13.2045317 -0.176357E-05  0.951E-03    3.48       4.3  T
   7    -13.2045321 -0.366961E-06  0.294E-03    3.49      13.9  T
   8    -13.2045321 -0.180756E-07  0.693E-04    3.49      58.9  T
     SCC iter.                  ...        0 min,  0.001 sec
     gradient                   ...        0 min,  0.000 sec
 * total energy  :   -13.1486418 Eh     change       -0.5130075E-03 Eh
   gradient norm :     0.0228421 Eh/α   predicted    -0.4348842E-03 ( -15.23%)
   displ. norm   :     0.1404283 α      lambda       -0.1400993E-02
   maximum displ.:     0.0919073 α      in ANC's #3, #12, #9, ...

........................................................................
.............................. CYCLE    8 ..............................
........................................................................
   1    -13.2000220 -0.132000E+02  0.935E-01    3.39       0.0  T
   2    -13.2040081 -0.398611E-02  0.323E-01    4.06       1.0  T
   3    -13.2043117 -0.303621E-03  0.140E-01    3.96       1.0  T
   4    -13.2043448 -0.330985E-04  0.963E-02    4.00       1.0  T
   5    -13.2043548 -0.100060E-04  0.424E-02    4.00       1.0  T
   6    -13.2043597 -0.485664E-05  0.149E-02    4.00       2.7  T
   7    -13.2043605 -0.815793E-06  0.481E-03    4.01       8.5  T
   8    -13.2043606 -0.664976E-07  0.876E-04    4.01      46.6  T
     SCC iter.                  ...        0 min,  0.001 sec
     gradient                   ...        0 min,  0.000 sec
 * total energy  :   -13.1499803 Eh     change       -0.1338527E-02 Eh
   gradient norm :     0.0273747 Eh/α   predicted    -0.7143109E-03 ( -46.63%)
   displ. norm   :     0.7850659 α      lambda       -0.1016910E-01
   maximum displ.:     0.5385207 α      in ANC's #12, #3, #9, ...

........................................................................
.............................. CYCLE    9 ..............................
........................................................................
   1    -13.1747326 -0.131747E+02  0.344E+00    8.31       0.0  T
   2    -13.1949263 -0.201937E-01  0.170E+00    8.80       1.0  T
   3    -13.1992690 -0.434268E-02  0.824E-01    7.67       1.0  T
   4    -13.1996451 -0.376134E-03  0.294E-01    7.45       1.0  T
   5    -13.1997423 -0.971736E-04  0.205E-01    7.44       1.0  T
   6    -13.1998297 -0.873940E-04  0.724E-02    7.51       1.0  T
   7    -13.1998385 -0.880439E-05  0.211E-02    7.55       1.9  T
   8    -13.1998388 -0.340141E-06  0.257E-03    7.54      15.9  T
   9    -13.1998388 -0.123464E-08  0.906E-04    7.54      45.1  T
     SCC iter.                  ...        0 min,  0.001 sec
     gradient                   ...        0 min,  0.000 sec
 * total energy  :   -13.1625969 Eh     change       -0.1261657E-01 Eh
   gradient norm :     0.0986291 Eh/α   predicted    -0.8218296E-02 ( -34.86%)
   displ. norm   :     0.6824173 α      lambda       -0.1507526E-01
   maximum displ.:     0.5774108 α      in ANC's #12, #9, #6, ...

........................................................................
.............................. CYCLE   10 ..............................
........................................................................
   1    -13.1563781 -0.131564E+02  0.241E+00    7.38       0.0  T
   2    -13.1702435 -0.138654E-01  0.100E+00    6.75       1.0  T
   3    -13.1715448 -0.130128E-02  0.534E-01    6.74       1.0  T
   4    -13.1717022 -0.157420E-03  0.288E-01    6.62       1.0  T
   5    -13.1717190 -0.168353E-04  0.166E-02    6.59       2.5  T
   6    -13.1717192 -0.198740E-06  0.726E-03    6.60       5.6  T
   7    -13.1717193 -0.442573E-07  0.346E-03    6.60      11.8  T
   8    -13.1717193 -0.168287E-07  0.168E-03    6.60      24.3  T
     SCC iter.                  ...        0 min,  0.001 sec
     gradient                   ...        0 min,  0.000 sec
 * total energy  :   -13.0934097 Eh     change        0.6918716E-01 Eh
   gradient norm :     0.4866181 Eh/α   predicted    -0.1104789E-01 (-115.97%)
   displ. norm   :     0.4408545 α      lambda       -0.2039315E+00
   maximum displ.:     0.3419045 α      in ANC's #3, #8, #12, ...

........................................................................
.............................. CYCLE   11 ..............................
........................................................................
   1    -13.2078222 -0.132078E+02  0.169E+00    7.12       0.0  T
   2    -13.2116020 -0.377973E-02  0.808E-01    7.64       1.0  T
   3    -13.2123742 -0.772245E-03  0.376E-01    7.87       1.0  T
   4    -13.2124048 -0.306197E-04  0.143E-01    7.95       1.0  T
   5    -13.2124237 -0.188567E-04  0.721E-02    7.95       1.0  T
   6    -13.2124331 -0.945112E-05  0.195E-02    7.97       2.1  T
   7    -13.2124334 -0.316443E-06  0.622E-03    7.98       6.6  T
   8    -13.2124335 -0.420562E-07  0.162E-03    7.98      25.3  T
   9    -13.2124335 -0.202666E-08  0.161E-04    7.98     253.7  T
     SCC iter.                  ...        0 min,  0.001 sec
     gradient                   ...        0 min,  0.000 sec
 * total energy  :   -13.1717188 Eh     change       -0.7830906E-01 Eh
   gradient norm :     0.1103619 Eh/α   predicted    -0.1217830E+00 (  55.52%)
   displ. norm   :     0.5885408 α      lambda       -0.2200571E-01
   maximum displ.:     0.3568252 α      in ANC's #12, #3, #9, ...

........................................................................
.............................. CYCLE   12 ..............................
........................................................................
   1    -13.2291572 -0.132292E+02  0.805E-01    7.91       0.0  T
   2    -13.2296010 -0.443749E-03  0.495E-01    7.98       1.0  T
   3    -13.2296758 -0.748713E-04  0.172E-01    8.12       1.0  T
   4    -13.2296847 -0.885203E-05  0.772E-02    8.12       1.0  T
   5    -13.2296899 -0.517999E-05  0.378E-02    8.10       1.1  T
   6    -13.2296927 -0.286363E-05  0.425E-03    8.09       9.6  T
   7    -13.2296927 -0.196607E-07  0.196E-03    8.09      20.8  T
     SCC iter.                  ...        0 min,  0.000 sec
     gradient                   ...        0 min,  0.000 sec
 * total energy  :   -13.1706834 Eh     change        0.1035368E-02 Eh
   gradient norm :     0.0813051 Eh/α   predicted    -0.1481404E-01 (*******%)
   displ. norm   :     0.5487259 α      lambda       -0.2370477E-01
   maximum displ.:     0.4109556 α      in ANC's #12, #3, #8, ...

........................................................................
.............................. CYCLE   13 ..............................
........................................................................
   1    -13.2441820 -0.132442E+02  0.601E-01    8.17       0.0  T
   2    -13.2446765 -0.494479E-03  0.324E-01    8.17       1.0  T
   3    -13.2447216 -0.451710E-04  0.182E-01    8.07       1.0  T
   4    -13.2447432 -0.215879E-04  0.864E-02    8.04       1.0  T
   5    -13.2447529 -0.970381E-05  0.467E-02    8.07       1.0  T
   6    -13.2447567 -0.380703E-05  0.304E-03    8.08      13.4  T
   7    -13.2447567 -0.150391E-07  0.154E-03    8.08      26.5  T
     SCC iter.                  ...        0 min,  0.001 sec
     gradient                   ...        0 min,  0.001 sec
 * total energy  :   -13.1850677 Eh     change       -0.1438430E-01 Eh
   gradient norm :     0.0689400 Eh/α   predicted    -0.1542116E-01 (   7.21%)
   displ. norm   :     0.3497390 α      lambda       -0.9642659E-02
   maximum displ.:     0.1926396 α      in ANC's #2, #1, #12, ...

........................................................................
.............................. CYCLE   14 ..............................
........................................................................
   1    -13.2384633 -0.132385E+02  0.654E-01    8.52       0.0  T
   2    -13.2385247 -0.614664E-04  0.398E-01    8.49       1.0  T
   3    -13.2385345 -0.976479E-05  0.555E-02    8.42       1.0  T
   4    -13.2385366 -0.212017E-05  0.216E-02    8.43       1.9  T
   5    -13.2385371 -0.450865E-06  0.881E-03    8.44       4.6  T
   6    -13.2385372 -0.131523E-06  0.263E-03    8.44      15.5  T
   7    -13.2385372 -0.788218E-08  0.109E-03    8.44      37.4  T
     SCC iter.                  ...        0 min,  0.000 sec
     gradient                   ...        0 min,  0.002 sec
 * total energy  :   -13.1886431 Eh     change       -0.3575396E-02 Eh
   gradient norm :     0.0520783 Eh/α   predicted    -0.5411065E-02 (  51.34%)
   displ. norm   :     0.1826428 α      lambda       -0.4359351E-02
   maximum displ.:     0.1007733 α      in ANC's #12, #2, #8, ...

........................................................................
.............................. CYCLE   15 ..............................
........................................................................
   1    -13.2463403 -0.132463E+02  0.241E-01    8.75       0.0  T
   2    -13.2463713 -0.310413E-04  0.137E-01    8.76       1.0  T
   3    -13.2463736 -0.226265E-05  0.483E-02    8.74       1.0  T
   4    -13.2463740 -0.464827E-06  0.121E-02    8.74       3.4  T
   5    -13.2463742 -0.136982E-06  0.588E-03    8.74       6.9  T
   6    -13.2463742 -0.608643E-07  0.171E-03    8.74      23.9  T
     SCC iter.                  ...        0 min,  0.000 sec
     gradient                   ...        0 min,  0.001 sec
 * total energy  :   -13.1910702 Eh     change       -0.2427127E-02 Eh
   gradient norm :     0.0241849 Eh/α   predicted    -0.2252386E-02 (  -7.20%)
   displ. norm   :     0.3200367 α      lambda       -0.2920757E-02
   maximum displ.:     0.2045064 α      in ANC's #8, #1, #12, ...

........................................................................
.............................. CYCLE   16 ..............................
........................................................................
   1    -13.2642502 -0.132643E+02  0.503E-01    8.91       0.0  T
   2    -13.2642874 -0.372614E-04  0.300E-01    8.95       1.0  T
   3    -13.2642917 -0.427493E-05  0.480E-02    8.94       1.0  T
   4    -13.2642922 -0.510974E-06  0.141E-02    8.94       2.9  T
   5    -13.2642924 -0.204872E-06  0.730E-03    8.94       5.6  T
   6    -13.2642925 -0.975776E-07  0.200E-03    8.94      20.4  T
   7    -13.2642925 -0.364460E-08  0.716E-04    8.94      57.0  T
     SCC iter.                  ...        0 min,  0.001 sec
     gradient                   ...        0 min,  0.002 sec
 * total energy  :   -13.1869927 Eh     change        0.4077582E-02 Eh
   gradient norm :     0.0720679 Eh/α   predicted    -0.1609958E-02 (-139.48%)
   displ. norm   :     0.2132220 α      lambda       -0.9535063E-02
   maximum displ.:     0.1458892 α      in ANC's #8, #1, #12, ...

........................................................................
.............................. CYCLE   17 ..............................
........................................................................
   1    -13.2515343 -0.132515E+02  0.316E-01    9.57       0.0  T
   2    -13.2515609 -0.266890E-04  0.187E-01    9.51       1.0  T
   3    -13.2515649 -0.398512E-05  0.438E-02    9.48       1.0  T
   4    -13.2515653 -0.387122E-06  0.143E-02    9.48       2.9  T
   5    -13.2515655 -0.205364E-06  0.726E-03    9.48       5.6  T
   6    -13.2515656 -0.949595E-07  0.155E-03    9.48      26.4  T
   7    -13.2515656 -0.222114E-08  0.488E-04    9.48      83.7  T
     SCC iter.                  ...        0 min,  0.000 sec
     gradient                   ...        0 min,  0.000 sec
 * total energy  :   -13.1918124 Eh     change       -0.4819732E-02 Eh
   gradient norm :     0.0099753 Eh/α   predicted    -0.4984281E-02 (   3.41%)
   displ. norm   :     0.0742501 α      lambda       -0.2319652E-03
   maximum displ.:     0.0562785 α      in ANC's #1, #2, #3, ...

........................................................................
.............................. CYCLE   18 ..............................
........................................................................
   1    -13.2521057 -0.132521E+02  0.134E-01    9.84       0.0  T
   2    -13.2521069 -0.120474E-05  0.824E-02    9.82       1.0  T
   3    -13.2521074 -0.441094E-06  0.671E-03    9.81       6.1  T
   4    -13.2521074 -0.307367E-07  0.397E-03    9.81      10.3  T
   5    -13.2521074 -0.147175E-07  0.222E-03    9.81      18.4  T
   6    -13.2521074 -0.818096E-08  0.675E-04    9.81      60.5  T
     SCC iter.                  ...        0 min,  0.000 sec
     gradient                   ...        0 min,  0.000 sec
 * total energy  :   -13.1918357 Eh     change       -0.2330489E-04 Eh
   gradient norm :     0.0073060 Eh/α   predicted    -0.1166230E-03 ( 400.42%)
   displ. norm   :     0.0735201 α      lambda       -0.3264069E-03
   maximum displ.:     0.0375063 α      in ANC's #2, #8, #12, ...

........................................................................
.............................. CYCLE   19 ..............................
........................................................................
   1    -13.2503684 -0.132504E+02  0.108E-01   10.24       0.0  T
   2    -13.2503720 -0.360043E-05  0.642E-02   10.22       1.0  T
   3    -13.2503725 -0.515691E-06  0.164E-02   10.21       2.5  T
   4    -13.2503726 -0.837739E-07  0.646E-03   10.21       6.3  T
   5    -13.2503726 -0.428540E-07  0.366E-03   10.21      11.1  T
   6    -13.2503727 -0.246326E-07  0.628E-04   10.21      65.0  T
   7    -13.2503727 -0.296286E-09  0.111E-04   10.21     368.7  T
     SCC iter.                  ...        0 min,  0.000 sec
     gradient                   ...        0 min,  0.000 sec
 * total energy  :   -13.1918819 Eh     change       -0.4616912E-04 Eh
   gradient norm :     0.0078709 Eh/α   predicted    -0.1640851E-03 ( 255.40%)
   displ. norm   :     0.0401418 α      lambda       -0.1349369E-03
   maximum displ.:     0.0203110 α      in ANC's #12, #8, #3, ...

........................................................................
.............................. CYCLE   20 ..............................
........................................................................
   1    -13.2512914 -0.132513E+02  0.607E-02    9.94       0.0  T
   2    -13.2512928 -0.140822E-05  0.357E-02    9.96       1.1  T
   3    -13.2512930 -0.168050E-06  0.105E-02    9.96       3.9  T
   4    -13.2512930 -0.316021E-07  0.388E-03    9.97      10.5  T
   5    -13.2512931 -0.156768E-07  0.220E-03    9.96      18.6  T
   6    -13.2512931 -0.890477E-08  0.354E-04    9.97     115.4  T
     SCC iter.                  ...        0 min,  0.000 sec
     gradient                   ...        0 min,  0.000 sec
 * total energy  :   -13.1919483 Eh     change       -0.6643766E-04 Eh
   gradient norm :     0.0010131 Eh/α   predicted    -0.6757634E-04 (   1.71%)
   displ. norm   :     0.0103396 α      lambda       -0.3305237E-05
   maximum displ.:     0.0050725 α      in ANC's #1, #12, #8, ...
 * RMSD in coord.:     0.8618358 α      energy gain  -0.4928308E-01 Eh

generating ANC from model Hessian ...
Using Lindh-Hessian (1995)
 Shifting diagonal of input Hessian by   8.883886309034694E-003
 Lowest  eigenvalues of input Hessian
   -0.000000   -0.000000    0.000000    0.000000    0.000000    0.000000
    0.010000    0.010084    0.010145    0.123071    0.123688    0.150094
    0.150524    0.173729    0.472246    1.150311    1.151163    1.449670
 Highest eigenvalues
    0.150524    0.173729    0.472246    1.150311    1.151163    1.449670
 

........................................................................
.............................. CYCLE   21 ..............................
........................................................................
   1    -13.2513968 -0.132514E+02  0.121E-02   10.01       0.0  T
   2    -13.2513968 -0.154642E-07  0.739E-03   10.01       5.5  T
   3    -13.2513968 -0.446090E-08  0.833E-04   10.01      49.0  T
   4    -13.2513968 -0.393300E-09  0.468E-04   10.01      87.2  T
     SCC iter.                  ...        0 min,  0.000 sec
     gradient                   ...        0 min,  0.000 sec
 * total energy  :   -13.1919516 Eh     change       -0.3264039E-05 Eh
   gradient norm :     0.0008653 Eh/α   predicted     0.0000000E+00 (-100.00%)
   displ. norm   :     0.0535663 α      lambda       -0.1573846E-04
   maximum displ.:     0.0504129 α      in ANC's #1, #2, #8, ...

   *** GEOMETRY OPTIMIZATION CONVERGED AFTER 21 ITERATIONS ***

------------------------------------------------------------------------
 total energy gain   :        -0.0492863 Eh      -30.9276 kcal/mol
 total RMSD          :         0.8618358 a0        0.4561 Å
 total power (kW/mol):        -6.1619660 (step)-2813.9171 (real)
------------------------------------------------------------------------

 ANCopt (total)                0 d,  0 h,  0 min,  0.046 sec
 optimizer setup                ...        0 min,  0.000 sec (  0.122%)
 model hessian                  ...        0 min,  0.000 sec (  0.446%)
 ANC generation                 ...        0 min,  0.000 sec (  0.270%)
 coordinate transformation      ...        0 min,  0.000 sec (  0.211%)
 single point calculation       ...        0 min,  0.043 sec ( 94.474%)
 optimization log               ...        0 min,  0.001 sec (  1.136%)
 hessian update                 ...        0 min,  0.000 sec (  0.729%)
 rational function              ...        0 min,  0.001 sec (  1.279%)

================
 final structure:
================
6
 xtb: 6.2.3 (830e466)
F        -0.47613500769171    0.05125219124941    0.02751071678137
Cl       -2.95324764322138   -0.16640427689831    3.73385142123610
C        -1.28754113076905    0.03178796284184    1.14738732446726
H        -2.07295282851741    0.77109448067296    1.01372563902426
H        -0.68567191387688    0.27297166462134    2.01856130883885
H        -1.71683147592359   -0.96070202248726    1.25135358965216
 
 Bond Distances (Angstroems)
 ---------------------------
F1-C3=1.3831         C3-F1=1.3831         C3-H4=1.0869         C3-H5=1.0860         C3-H6=1.0863         H4-C3=1.0869         
H5-C3=1.0860         H6-C3=1.0863         
 C  H  Rav=1.0864 sigma=0.0004  Rmin=1.0860  Rmax=1.0869     3
 F  C  Rav=1.3831 sigma=0.0000  Rmin=1.3831  Rmax=1.3831     1
 
 selected bond angles (degree)
 --------------------
H4-C3-F1=108.35                H5-C3-F1=108.74                H5-C3-H4=110.37                H6-C3-F1=108.80                
H6-C3-H4=110.34                H6-C3-H5=110.19                
 
 selected dihedral angles (degree)
 ---------------------------------

 
 CMA Distance (Angstroems)
 ---------------------------
R(CMA):  3.5663
           -------------------------------------------------
          |                Final Singlepoint                |
           -------------------------------------------------

          ...................................................
          :                      SETUP                      :
          :.................................................:
          :  # basis functions                  21          :
          :  # atomic orbitals                  20          :
          :  # shells                           10          :
          :  # electrons                        22          :
          :  max. iterations                   250          :
          :  Hamiltonian                  GFN2-xTB          :
          :  restarted?                      false          :
          :  GBSA solvation                  false          :
          :  PC potential                    false          :
          :  electronic temp.          300.0000000     K    :
          :  accuracy                    1.0000000          :
          :  -> integral cutoff          0.2500000E+02      :
          :  -> integral neglect         0.1000000E-07      :
          :  -> SCF convergence          0.1000000E-05 Eh   :
          :  -> wf. convergence          0.1000000E-03 e    :
          :  Broyden damping             0.4000000          :
          ...................................................

 iter      E             dE          RMSdq      gap      omega  full diag
   1    -13.2513968 -0.132514E+02  0.229E-04   10.01       0.0  T
   2    -13.2513968 -0.321965E-10  0.182E-04   10.01     223.8  T
   3    -13.2513968 -0.552607E-10  0.703E-05   10.01     580.7  T

   *** convergence criteria satisfied after 3 iterations ***

         #    Occupation            Energy/Eh            Energy/eV
      -------------------------------------------------------------
         1        2.0000           -0.7803860             -21.2354
       ...           ...                  ...                  ...
         5        2.0000           -0.3960698             -10.7776
         6        2.0000           -0.3959136             -10.7734
         7        2.0000           -0.3184894              -8.6665
         8        2.0000           -0.3177517              -8.6465
         9        2.0000           -0.1839201              -5.0047
        10        2.0000           -0.1830289              -4.9805
        11        2.0000           -0.1830117              -4.9800 (HOMO)
        12                          0.1847837               5.0282 (LUMO)
        13                          0.2890982               7.8668
        14                          0.3420554               9.3078
        15                          0.3430049               9.3336
        16                          0.3475649               9.4577
       ...                                ...                  ...
        20                          0.3576020               9.7308
      -------------------------------------------------------------
                  HL-Gap            0.3677954 Eh           10.0082 eV
             Fermi-level            0.0008860 Eh            0.0241 eV

 SCC (total)                   0 d,  0 h,  0 min,  0.001 sec
 SCC setup                      ...        0 min,  0.000 sec (  5.051%)
 Dispersion                     ...        0 min,  0.000 sec (  0.833%)
 integral evaluation            ...        0 min,  0.000 sec ( 29.747%)
 zeroth order Hamiltonian       ...        0 min,  0.000 sec (  1.364%)
 iterations                     ...        0 min,  0.000 sec ( 24.343%)
 molecular gradient             ...        0 min,  0.000 sec ( 30.707%)
 printout                       ...        0 min,  0.000 sec (  5.606%)

         :::::::::::::::::::::::::::::::::::::::::::::::::::::
         ::                     SUMMARY                     ::
         :::::::::::::::::::::::::::::::::::::::::::::::::::::
         :: total energy             -13.191951564167 Eh    ::
         :: gradient norm              0.000864191137 Eh/a0 ::
         :: HOMO-LUMO gap             10.008223336938 eV    ::
         ::.................................................::
         :: SCC energy               -13.251396811512 Eh    ::
         :: -> isotropic ES            0.165537003687 Eh    ::
         :: -> anisotropic ES         -0.000776402072 Eh    ::
         :: -> anisotropic XC         -0.001574117352 Eh    ::
         :: -> dispersion             -0.001847193642 Eh    ::
         :: repulsion energy           0.059445385453 Eh    ::
         :: add. restraining           0.000000000000 Eh    ::
         :::::::::::::::::::::::::::::::::::::::::::::::::::::

           -------------------------------------------------
          |                Property Printout                |
           -------------------------------------------------

    * Orbital Energies and Occupations

         #    Occupation            Energy/Eh            Energy/eV
      -------------------------------------------------------------
         1        2.0000           -0.7803860             -21.2354
         2        2.0000           -0.6753858             -18.3782
         3        2.0000           -0.4698561             -12.7854
         4        2.0000           -0.3972501             -10.8097
         5        2.0000           -0.3960698             -10.7776
         6        2.0000           -0.3959136             -10.7734
         7        2.0000           -0.3184894              -8.6665
         8        2.0000           -0.3177517              -8.6465
         9        2.0000           -0.1839201              -5.0047
        10        2.0000           -0.1830289              -4.9805
        11        2.0000           -0.1830117              -4.9800 (HOMO)
        12                          0.1847837               5.0282 (LUMO)
        13                          0.2890982               7.8668
        14                          0.3420554               9.3078
        15                          0.3430049               9.3336
        16                          0.3475649               9.4577
        17                          0.3476373               9.4597
        18                          0.3476418               9.4598
        19                          0.3551293               9.6636
        20                          0.3576020               9.7308
      -------------------------------------------------------------
                  HL-Gap            0.3677954 Eh           10.0082 eV
             Fermi-level            0.0008860 Eh            0.0241 eV

     #   Z        covCN         q      C6AA      α(0)
     1   9 F      0.782    -0.290    12.211     4.128
     2  17 Cl     0.000    -0.996   126.859    17.141
     3   6 C      3.557     0.076    20.181     6.555
     4   1 H      0.925     0.065     2.143     2.289
     5   1 H      0.925     0.073     2.052     2.240
     6   1 H      0.925     0.072     2.058     2.244

 Mol. C6AA /au·bohr⁶  :        551.113052
 Mol. C8AA /au·bohr⁸  :      15870.666509
 Mol. α(0) /au        :         34.597297


Wiberg/Mayer (AO) data.
largest (>0.10) Wiberg bond orders for each atom
          total WBO             WBO to atom ...
     1  F   0.964        C    3 0.921
     2  Cl  0.007
     3  C   3.868        H    4 0.982    H    6 0.981    H    5 0.980    F    1 0.921
     4  H   0.996        C    3 0.982
     5  H   0.995        C    3 0.980
     6  H   0.995        C    3 0.981

molecular dipole:
                 x           y           z       tot (Debye)
 q only:        5.052       0.290      -6.305
   full:        4.956       0.291      -6.179      20.146
molecular quadrupole (traceless):
                xx          xy          yy          xz          yz          zz
 q only:       -5.312      -2.590      38.531      56.160       3.349     -33.219
  q+dip:       -5.142      -2.624      38.899      56.633       3.396     -33.757
   full:       -5.127      -2.621      38.527      56.101       3.385     -33.399

           -------------------------------------------------
          |                Geometry Summary                 |
           -------------------------------------------------

      molecular mass/u    :       69.4858989
   center of mass at/Å    :       -1.9244541      -0.0641855       2.1730637
  moments of inertia/u·Å² :        0.3259747E+01   0.2732554E+03   0.2733160E+03
rotational constants/cm⁻¹ :        0.5171455E+01   0.6169186E-01   0.6167817E-01

 * 4 selected distances

     #   Z        #   Z                                     value/Å
     1   9 F      3   6 C                                 1.3830699 (max)
     3   6 C      4   1 H                                 1.0868814
     3   6 C      5   1 H                                 1.0859835 (min)
     3   6 C      6   1 H                                 1.0863404

 * 2 distinct bonds (by element types)

   Z      Z             #   av. dist./Å        max./Å        min./Å
   1 H    6 C           3     1.0864018     1.0868814     1.0859835
   6 C    9 F           1     1.3830699     1.3830699     1.3830699


optimized geometry written to: xtbopt.xyz


           -------------------------------------------------
          | TOTAL ENERGY              -13.191951564167 Eh   |
          | GRADIENT NORM               0.000864191137 Eh/α |
          | HOMO-LUMO GAP              10.008223336938 eV   |
           -------------------------------------------------

------------------------------------------------------------------------
 * finished run on 2020/05/13 at 13:04:54.406     
------------------------------------------------------------------------
 total:
 * wall-time:     0 d,  0 h,  0 min,  0.093 sec
 *  cpu-time:     0 d,  0 h,  0 min,  0.273 sec
 * ratio c/w:     2.925 speedup
 SCF:
 * wall-time:     0 d,  0 h,  0 min,  0.002 sec
 *  cpu-time:     0 d,  0 h,  0 min,  0.008 sec
 * ratio c/w:     3.941 speedup
 ANC optimizer:
 * wall-time:     0 d,  0 h,  0 min,  0.047 sec
 *  cpu-time:     0 d,  0 h,  0 min,  0.167 sec
 * ratio c/w:     3.535 speedup

