      -----------------------------------------------------------      
     |                   =====================                   |     
     |                           x T B                           |     
     |                   =====================                   |     
     |                         S. Grimme                         |     
     |          Mulliken Center for Theoretical Chemistry        |     
     |                    University of Bonn                     |     
      -----------------------------------------------------------      

   * xtb version 6.2.3 (830e466) compiled by 'ehlert@majestix' on 2020-03-16

   xtb is free software: you can redistribute it and/or modify it under
   the terms of the GNU Lesser General Public License as published by
   the Free Software Foundation, either version 3 of the License, or
   (at your option) any later version.
   
   xtb is distributed in the hope that it will be useful,
   but WITHOUT ANY WARRANTY; without even the implied warranty of
   MERCHANTABILITY or FITNESS FOR A PARTICULAR PURPOSE.  See the
   GNU Lesser General Public License for more details.
   
   Cite this work as:
   * S. Grimme, C. Bannwarth, P. Shushkov, J. Chem. Theory Comput., 2017,
     13, 1989-2009. DOI: 10.1021/acs.jctc.7b00118
   * C. Bannwarth, S. Ehlert and S. Grimme., J. Chem. Theory Comput., 2019,
     15, 1652-1671. DOI: 10.1021/acs.jctc.8b01176
   * P. Pracht, E. Caldeweyher, S. Ehlert, S. Grimme, ChemRxiv, 2019, preprint.
     DOI: 10.26434/chemrxiv.8326202.v1
   
   for DFT-D4:
   * E. Caldeweyher, C. Bannwarth and S. Grimme, J. Chem. Phys., 2017,
     147, 034112. DOI: 10.1063/1.4993215
   * E. Caldeweyher, S. Ehlert, A. Hansen, H. Neugebauer, S. Spicher,
     C. Bannwarth and S. Grimme, J. Chem. Phys., 2019, 150, 154122.
     DOI: 10.1063/1.5090222
   
   for sTDA-xTB:
   * S. Grimme and C. Bannwarth, J. Chem. Phys., 2016, 145, 054103.
     DOI: 10.1063/1.4959605
   
   in the mass-spec context:
   * V. Asgeirsson, C. Bauer and S. Grimme, Chem. Sci., 2017, 8, 4879.
     DOI: 10.1039/c7sc00601b
   
   for metadynamics refer to:
   * S. Grimme, J. Chem. Theory Comput., 2019, 155, 2847-2862
     DOI: 10.1021/acs.jctc.9b00143
   
   with help from (in alphabetical order)
   C. Bannwarth, F. Bohle, G. Brandenburg, E. Caldeweyher, M. Checinski,
   S. Dohm, S. Ehlert, S. Ehrlich, F. März, H. Neugebauer, J. Pisarek,
   P. Pracht, P. Shushkov, and S. Spicher.
   
 * started run on 2020/05/29 at 13:52:10.902     

           -------------------------------------------------
          |                Calculation Setup                |
           -------------------------------------------------

          program call               : /home/tom/.local/bin/xtb complex_conf0_opt_xtb0.xyz --chrg -1 --opt
          coordinate file            : complex_conf0_opt_xtb0.xyz
          omp threads                :                     1
          number of atoms            :                     6
          number of electrons        :                    22
          charge                     :                    -1
          spin                       :                   0.0
          first test random number   :      0.58555292932875


molecular fragmentation (1/2 indicates fragments):
111112
# atoms in fragment 1/2:     5     1
 fragment masses (1/2) :       34.03       35.45
CMA distance (Bohr)    :   6.300
constraining FC (au)   :  0.0500
########################################################################
[WARNING] Please study the warnings concerning your input carefully
-2- prog_main: XTBPATH is not set, using XTBHOME instead
-1- prog_main: XTBHOME is not set, using HOME instead
########################################################################
           ------------------------------------------------- 
          |                 G F N 2 - x T B                 |
          | Geometry, Frequencies, Noncovalent interactions |
          |            JCTC 2019 parametrisation            |
           ------------------------------------------------- 
             k(s)              :                1.8500
             k(p)              :                2.2300
             k(d)              :                2.2300
             k(f)              :                2.0000
             kEN (H0ij)        :               -2.0000
             D4 a1             :                0.5200
             D4 a2             :                5.0000
             D4 s6             :                1.0000
             D4 s8             :                2.7000
             D4 s9             :                5.0000
             alphaj            :                2.0000

  Z AO/shell   Hii/eV     exponent
  1     Wed Apr 25 08:07:45 CEST 2018   EN: 2.200 GM2: 0.406  GM3: 0.0800  RAES: 1.40
     1s    -10.707211    1.230000
  6     Wed Apr 25 08:07:45 CEST 2018   EN: 2.550 GM2: 0.538  GM3: 0.1500  RAES: 3.00
     2s    -13.970922    2.096432
     2p    -10.063292    1.800000
  9     Mon Apr 23 13:58:50 CEST 2018   EN: 3.980 GM2: 0.532  GM3: 0.1426  RAES: 2.40
     2s    -23.458179    2.416361
     2p    -15.746583    2.308399
 17     Mon Apr 23 14:09:22 CEST 2018   EN: 3.160 GM2: 0.249  GM3: 0.1495  RAES: 2.50
     3s    -29.278781    2.485265
     3p    -12.673758    2.199650
     3d     -0.240338    2.476089

           ------------------------------------------------- 
          |        Self-Consistent Charge Iterations        |
           ------------------------------------------------- 

          ...................................................
          :                      SETUP                      :
          :.................................................:
          :  # basis functions                  21          :
          :  # atomic orbitals                  20          :
          :  # shells                           10          :
          :  # electrons                        22          :
          :  max. iterations                   250          :
          :  Hamiltonian                  GFN2-xTB          :
          :  restarted?                      false          :
          :  GBSA solvation                  false          :
          :  PC potential                    false          :
          :  electronic temp.          300.0000000     K    :
          :  accuracy                    1.0000000          :
          :  -> integral cutoff          0.2500000E+02      :
          :  -> integral neglect         0.1000000E-07      :
          :  -> SCF convergence          0.1000000E-05 Eh   :
          :  -> wf. convergence          0.1000000E-03 e    :
          :  Broyden damping             0.4000000          :
          ...................................................

 iter      E             dE          RMSdq      gap      omega  full diag
   1    -13.1707706 -0.131708E+02  0.545E+00   11.13       0.0  T
   2    -13.2331614 -0.623908E-01  0.283E+00   12.10       1.0  T
   3    -13.2345187 -0.135734E-02  0.160E+00   11.50       1.0  T
   4    -13.2346710 -0.152286E-03  0.204E-01   10.84       1.0  T
   5    -13.2347423 -0.713174E-04  0.774E-02   11.00       1.0  T
   6    -13.2347496 -0.725867E-05  0.461E-02   11.01       1.0  T
   7    -13.2347542 -0.461595E-05  0.200E-02   11.02       2.0  T
   8    -13.2347544 -0.186387E-06  0.238E-03   11.02      17.2  T
   9    -13.2347544 -0.134391E-07  0.810E-04   11.02      50.4  T
  10    -13.2347544 -0.131007E-08  0.157E-04   11.02     260.0  T

   *** convergence criteria satisfied after 10 iterations ***

         #    Occupation            Energy/Eh            Energy/eV
      -------------------------------------------------------------
         1        2.0000           -0.7907361             -21.5170
       ...           ...                  ...                  ...
         5        2.0000           -0.3757015             -10.2234
         6        2.0000           -0.3709962             -10.0953
         7        2.0000           -0.2986802              -8.1275
         8        2.0000           -0.2947318              -8.0201
         9        2.0000           -0.1901602              -5.1745
        10        2.0000           -0.1898077              -5.1649
        11        2.0000           -0.1833081              -4.9881 (HOMO)
        12                          0.2216036               6.0301 (LUMO)
        13                          0.2924027               7.9567
        14                          0.3135376               8.5318
        15                          0.3309601               9.0059
        16                          0.3338070               9.0834
       ...                                ...                  ...
        20                          0.4015917              10.9279
      -------------------------------------------------------------
                  HL-Gap            0.4049117 Eh           11.0182 eV
             Fermi-level            0.0191477 Eh            0.5210 eV

 SCC (total)                   0 d,  0 h,  0 min,  0.013 sec
 SCC setup                      ...        0 min,  0.000 sec (  2.330%)
 Dispersion                     ...        0 min,  0.000 sec (  0.471%)
 integral evaluation            ...        0 min,  0.003 sec ( 26.352%)
 zeroth order Hamiltonian       ...        0 min,  0.000 sec (  0.662%)
 iterations                     ...        0 min,  0.005 sec ( 39.514%)
 molecular gradient             ...        0 min,  0.004 sec ( 27.596%)
 printout                       ...        0 min,  0.000 sec (  2.291%)

         :::::::::::::::::::::::::::::::::::::::::::::::::::::
         ::                     SUMMARY                     ::
         :::::::::::::::::::::::::::::::::::::::::::::::::::::
         :: total energy             -13.180358874558 Eh    ::
         :: gradient norm              0.040033340516 Eh/a0 ::
         :: HOMO-LUMO gap             11.018207826674 eV    ::
         ::.................................................::
         :: SCC energy               -13.234754398416 Eh    ::
         :: -> isotropic ES            0.159350414138 Eh    ::
         :: -> anisotropic ES         -0.002187891227 Eh    ::
         :: -> anisotropic XC         -0.001359687213 Eh    ::
         :: -> dispersion             -0.002003906530 Eh    ::
         :: repulsion energy           0.054395520602 Eh    ::
         :: add. restraining           0.000000000000 Eh    ::
         :::::::::::::::::::::::::::::::::::::::::::::::::::::

      ----------------------------------------------------------- 
     |                   =====================                   |
     |                        A N C O P T                        |
     |                   =====================                   |
     |               Approximate Normal Coordinate               |
     |                Rational Function Optimizer                |
      ----------------------------------------------------------- 

          ...................................................
          :                      SETUP                      :
          :.................................................:
          :   optimization level            normal          :
          :   max. optcycles                   200          :
          :   ANC micro-cycles                  20          :
          :   degrees of freedom                12          :
          :.................................................:
          :   RF solver                   davidson          :
          :   write xtbopt.log                true          :
          :   linear?                        false          :
          :   energy convergence         0.5000000E-05 Eh   :
          :   grad. convergence          0.1000000E-02 Eh/α :
          :   maximium RF displ.         1.0000000          :
          :   Hlow (freq-cutoff)         0.1000000E-01      :
          :   Hmax (freq-cutoff)         5.0000000          :
          :   S6 in model hess.         20.0000000          :
          ...................................................

generating ANC from model Hessian ...
Using Lindh-Hessian (1995)
 Shifting diagonal of input Hessian by   8.261830972398384E-003
 Lowest  eigenvalues of input Hessian
   -0.000000   -0.000000   -0.000000    0.000000    0.000000    0.000000
    0.010000    0.013253    0.037684    0.109388    0.110865    0.141805
    0.147941    0.166147    0.455414    1.086873    1.090140    1.474524
 Highest eigenvalues
    0.147941    0.166147    0.455414    1.086873    1.090140    1.474524
 

........................................................................
.............................. CYCLE    1 ..............................
........................................................................
   1    -13.2347544 -0.132348E+02  0.526E-05   11.02       0.0  T
   2    -13.2347544 -0.706279E-11  0.282E-05   11.02    1445.6  T
   3    -13.2347544 -0.545342E-12  0.220E-05   11.02    1852.9  T
     SCC iter.                  ...        0 min,  0.001 sec
     gradient                   ...        0 min,  0.003 sec
 * total energy  :   -13.1803589 Eh     change        0.7722829E-08 Eh
   gradient norm :     0.0400336 Eh/α   predicted     0.0000000E+00 (-100.00%)
   displ. norm   :     0.6067784 α      lambda       -0.2192380E-01
   maximum displ.:     0.5834208 α      in ANC's #3, #2, #1, ...

........................................................................
.............................. CYCLE    2 ..............................
........................................................................
   1    -13.2485444 -0.132485E+02  0.423E-01   10.44       0.0  T
   2    -13.2485868 -0.424384E-04  0.245E-01   10.38       1.0  T
   3    -13.2486124 -0.255936E-04  0.801E-02   10.31       1.0  T
   4    -13.2486210 -0.854103E-05  0.451E-02   10.33       1.0  T
   5    -13.2486238 -0.282326E-05  0.254E-02   10.34       1.6  T
   6    -13.2486247 -0.929635E-06  0.250E-03   10.34      16.3  T
   7    -13.2486247 -0.307728E-08  0.531E-04   10.34      76.8  T
     SCC iter.                  ...        0 min,  0.002 sec
     gradient                   ...        0 min,  0.002 sec
 * total energy  :   -13.1907694 Eh     change       -0.1041058E-01 Eh
   gradient norm :     0.0094963 Eh/α   predicted    -0.1499785E-01 (  44.06%)
   displ. norm   :     0.1101940 α      lambda       -0.6787882E-03
   maximum displ.:     0.0953952 α      in ANC's #3, #1, #8, ...

........................................................................
.............................. CYCLE    3 ..............................
........................................................................
   1    -13.2502526 -0.132503E+02  0.889E-02   10.28       0.0  T
   2    -13.2502534 -0.813769E-06  0.538E-02   10.27       1.0  T
   3    -13.2502536 -0.171362E-06  0.575E-03   10.27       7.1  T
   4    -13.2502536 -0.176578E-07  0.335E-03   10.27      12.2  T
   5    -13.2502536 -0.107119E-07  0.167E-03   10.27      24.5  T
   6    -13.2502536 -0.509019E-08  0.374E-04   10.27     109.3  T
     SCC iter.                  ...        0 min,  0.001 sec
     gradient                   ...        0 min,  0.001 sec
 * total energy  :   -13.1912765 Eh     change       -0.5070785E-03 Eh
   gradient norm :     0.0041227 Eh/α   predicted    -0.3435166E-03 ( -32.26%)
   displ. norm   :     0.1438729 α      lambda       -0.4381991E-03
   maximum displ.:     0.1258336 α      in ANC's #3, #1, #8, ...

........................................................................
.............................. CYCLE    4 ..............................
........................................................................
   1    -13.2510440 -0.132510E+02  0.117E-01   10.07       0.0  T
   2    -13.2510449 -0.890942E-06  0.706E-02   10.07       1.0  T
   3    -13.2510453 -0.344951E-06  0.715E-03   10.06       5.7  T
   4    -13.2510453 -0.262872E-07  0.391E-03   10.06      10.4  T
   5    -13.2510453 -0.134822E-07  0.208E-03   10.06      19.6  T
   6    -13.2510453 -0.780316E-08  0.449E-04   10.06      91.0  T
     SCC iter.                  ...        0 min,  0.001 sec
     gradient                   ...        0 min,  0.001 sec
 * total energy  :   -13.1915562 Eh     change       -0.2796864E-03 Eh
   gradient norm :     0.0020326 Eh/α   predicted    -0.2236354E-03 ( -20.04%)
   displ. norm   :     0.0863962 α      lambda       -0.9566759E-04
   maximum displ.:     0.0688171 α      in ANC's #3, #1, #2, ...

........................................................................
.............................. CYCLE    5 ..............................
........................................................................
   1    -13.2509554 -0.132510E+02  0.844E-02    9.95       0.0  T
   2    -13.2509557 -0.370104E-06  0.510E-02    9.95       1.0  T
   3    -13.2509559 -0.161667E-06  0.451E-03    9.95       9.0  T
   4    -13.2509559 -0.115568E-07  0.141E-03    9.95      29.0  T
   5    -13.2509559 -0.154121E-08  0.102E-03    9.95      39.9  T
   6    -13.2509559 -0.182580E-08  0.300E-04    9.95     136.0  T
   7    -13.2509559 -0.990887E-10  0.839E-05    9.95     486.6  T
     SCC iter.                  ...        0 min,  0.001 sec
     gradient                   ...        0 min,  0.001 sec
 * total energy  :   -13.1916219 Eh     change       -0.6566762E-04 Eh
   gradient norm :     0.0021775 Eh/α   predicted    -0.4819202E-04 ( -26.61%)
   displ. norm   :     0.0745176 α      lambda       -0.3997910E-04
   maximum displ.:     0.0476570 α      in ANC's #3, #2, #1, ...

........................................................................
.............................. CYCLE    6 ..............................
........................................................................
   1    -13.2508004 -0.132508E+02  0.893E-02    9.91       0.0  T
   2    -13.2508008 -0.356050E-06  0.542E-02    9.90       1.0  T
   3    -13.2508009 -0.154041E-06  0.406E-03    9.90      10.0  T
   4    -13.2508009 -0.868591E-08  0.115E-03    9.90      35.5  T
   5    -13.2508009 -0.908990E-09  0.765E-04    9.90      53.3  T
   6    -13.2508009 -0.914449E-09  0.304E-04    9.90     134.2  T
     SCC iter.                  ...        0 min,  0.001 sec
     gradient                   ...        0 min,  0.001 sec
 * total energy  :   -13.1916502 Eh     change       -0.2827576E-04 Eh
   gradient norm :     0.0020605 Eh/α   predicted    -0.2010219E-04 ( -28.91%)
   displ. norm   :     0.0892619 α      lambda       -0.3127453E-04
   maximum displ.:     0.0745805 α      in ANC's #2, #3, #1, ...

........................................................................
.............................. CYCLE    7 ..............................
........................................................................
   1    -13.2506742 -0.132507E+02  0.120E-01    9.90       0.0  T
   2    -13.2506748 -0.573175E-06  0.730E-02    9.90       1.0  T
   3    -13.2506751 -0.250670E-06  0.481E-03    9.89       8.5  T
   4    -13.2506751 -0.113908E-07  0.201E-03    9.89      20.3  T
   5    -13.2506751 -0.279963E-08  0.960E-04    9.89      42.5  T
   6    -13.2506751 -0.145432E-08  0.390E-04    9.89     104.7  T
     SCC iter.                  ...        0 min,  0.001 sec
     gradient                   ...        0 min,  0.001 sec
 * total energy  :   -13.1916749 Eh     change       -0.2473810E-04 Eh
   gradient norm :     0.0019479 Eh/α   predicted    -0.1576181E-04 ( -36.29%)
   displ. norm   :     0.1292902 α      lambda       -0.3266563E-04
   maximum displ.:     0.1220479 α      in ANC's #2, #3, #1, ...

........................................................................
.............................. CYCLE    8 ..............................
........................................................................
   1    -13.2506757 -0.132507E+02  0.179E-01    9.95       0.0  T
   2    -13.2506769 -0.123816E-05  0.110E-01    9.95       1.0  T
   3    -13.2506775 -0.531818E-06  0.675E-03    9.94       6.0  T
   4    -13.2506775 -0.221489E-07  0.339E-03    9.94      12.0  T
   5    -13.2506775 -0.826812E-08  0.151E-03    9.94      27.0  T
   6    -13.2506775 -0.376878E-08  0.581E-04    9.94      70.3  T
   7    -13.2506775 -0.453570E-09  0.174E-04    9.94     234.2  T
     SCC iter.                  ...        0 min,  0.001 sec
     gradient                   ...        0 min,  0.001 sec
 * total energy  :   -13.1917190 Eh     change       -0.4412109E-04 Eh
   gradient norm :     0.0019680 Eh/α   predicted    -0.1645210E-04 ( -62.71%)
   displ. norm   :     0.1113733 α      lambda       -0.4144346E-04
   maximum displ.:     0.1104019 α      in ANC's #2, #9, #12, ...

........................................................................
.............................. CYCLE    9 ..............................
........................................................................
   1    -13.2509996 -0.132510E+02  0.149E-01   10.05       0.0  T
   2    -13.2510005 -0.920608E-06  0.915E-02   10.04       1.0  T
   3    -13.2510009 -0.355775E-06  0.552E-03   10.04       7.4  T
   4    -13.2510009 -0.155273E-07  0.313E-03   10.04      13.1  T
   5    -13.2510009 -0.776371E-08  0.142E-03   10.04      28.7  T
   6    -13.2510009 -0.356159E-08  0.470E-04   10.04      86.9  T
   7    -13.2510009 -0.247489E-09  0.137E-04   10.04     298.3  T
     SCC iter.                  ...        0 min,  0.001 sec
     gradient                   ...        0 min,  0.001 sec
 * total energy  :   -13.1917765 Eh     change       -0.5743648E-04 Eh
   gradient norm :     0.0021552 Eh/α   predicted    -0.2083680E-04 ( -63.72%)
   displ. norm   :     0.1344986 α      lambda       -0.6996613E-04
   maximum displ.:     0.1336324 α      in ANC's #2, #9, #8, ...

........................................................................
.............................. CYCLE   10 ..............................
........................................................................
   1    -13.2510574 -0.132511E+02  0.183E-01   10.06       0.0  T
   2    -13.2510589 -0.148405E-05  0.112E-01   10.06       1.0  T
   3    -13.2510594 -0.524217E-06  0.693E-03   10.06       5.9  T
   4    -13.2510595 -0.243237E-07  0.367E-03   10.06      11.1  T
   5    -13.2510595 -0.978275E-08  0.158E-03   10.06      25.9  T
   6    -13.2510595 -0.416462E-08  0.568E-04   10.06      71.9  T
   7    -13.2510595 -0.416911E-09  0.174E-04   10.06     234.1  T
     SCC iter.                  ...        0 min,  0.001 sec
     gradient                   ...        0 min,  0.001 sec
 * total energy  :   -13.1918424 Eh     change       -0.6590254E-04 Eh
   gradient norm :     0.0021806 Eh/α   predicted    -0.3561761E-04 ( -45.95%)
   displ. norm   :     0.1465553 α      lambda       -0.7076620E-04
   maximum displ.:     0.1450648 α      in ANC's #2, #9, #1, ...

........................................................................
.............................. CYCLE   11 ..............................
........................................................................
   1    -13.2511236 -0.132511E+02  0.198E-01   10.02       0.0  T
   2    -13.2511254 -0.182720E-05  0.121E-01   10.02       1.0  T
   3    -13.2511261 -0.632135E-06  0.808E-03   10.03       5.1  T
   4    -13.2511261 -0.329065E-07  0.401E-03   10.03      10.2  T
   5    -13.2511261 -0.113758E-07  0.166E-03   10.03      24.6  T
   6    -13.2511261 -0.438411E-08  0.644E-04   10.03      63.4  T
   7    -13.2511261 -0.596318E-09  0.195E-04   10.03     209.9  T
     SCC iter.                  ...        0 min,  0.001 sec
     gradient                   ...        0 min,  0.001 sec
 * total energy  :   -13.1919048 Eh     change       -0.6244988E-04 Eh
   gradient norm :     0.0014236 Eh/α   predicted    -0.3614042E-04 ( -42.13%)
   displ. norm   :     0.3097548 α      lambda       -0.7704475E-04
   maximum displ.:     0.3050583 α      in ANC's #2, #9, #1, ...

........................................................................
.............................. CYCLE   12 ..............................
........................................................................
   1    -13.2506246 -0.132506E+02  0.422E-01    9.83       0.0  T
   2    -13.2506329 -0.828418E-05  0.258E-01    9.84       1.0  T
   3    -13.2506358 -0.297083E-05  0.181E-02    9.86       2.3  T
   4    -13.2506360 -0.163648E-06  0.828E-03    9.85       4.9  T
   5    -13.2506361 -0.467572E-07  0.331E-03    9.85      12.3  T
   6    -13.2506361 -0.160494E-07  0.136E-03    9.85      30.0  T
   7    -13.2506361 -0.283001E-08  0.456E-04    9.85      89.5  T
   8    -13.2506361 -0.212081E-09  0.118E-04    9.85     346.3  T
     SCC iter.                  ...        0 min,  0.001 sec
     gradient                   ...        0 min,  0.001 sec
 * total energy  :   -13.1919496 Eh     change       -0.4475133E-04 Eh
   gradient norm :     0.0042889 Eh/α   predicted    -0.4016512E-04 ( -10.25%)
   displ. norm   :     0.0428000 α      lambda       -0.2864200E-04
   maximum displ.:     0.0424165 α      in ANC's #2, #3, #5, ...

........................................................................
.............................. CYCLE   13 ..............................
........................................................................
   1    -13.2512927 -0.132513E+02  0.585E-02    9.94       0.0  T
   2    -13.2512930 -0.247834E-06  0.356E-02    9.94       1.1  T
   3    -13.2512930 -0.683120E-07  0.317E-03    9.93      12.9  T
   4    -13.2512930 -0.478309E-08  0.135E-03    9.93      30.3  T
   5    -13.2512930 -0.128964E-08  0.476E-04    9.93      85.8  T
     SCC iter.                  ...        0 min,  0.000 sec
     gradient                   ...        0 min,  0.001 sec
 * total energy  :   -13.1919674 Eh     change       -0.1780957E-04 Eh
   gradient norm :     0.0021054 Eh/α   predicted    -0.1434627E-04 ( -19.45%)
   displ. norm   :     0.0223645 α      lambda       -0.9940404E-05
   maximum displ.:     0.0158989 α      in ANC's #3, #2, #1, ...

........................................................................
.............................. CYCLE   14 ..............................
........................................................................
   1    -13.2515652 -0.132516E+02  0.282E-02    9.97       0.0  T
   2    -13.2515652 -0.383592E-07  0.171E-02    9.97       2.4  T
   3    -13.2515653 -0.136607E-07  0.118E-03    9.96      34.6  T
   4    -13.2515653 -0.804503E-09  0.481E-04    9.96      84.9  T
   5    -13.2515653 -0.168239E-09  0.199E-04    9.96     205.1  T
     SCC iter.                  ...        0 min,  0.000 sec
     gradient                   ...        0 min,  0.001 sec
 * total energy  :   -13.1919750 Eh     change       -0.7591500E-05 Eh
   gradient norm :     0.0014918 Eh/α   predicted    -0.4973294E-05 ( -34.49%)
   displ. norm   :     0.0904124 α      lambda       -0.1180130E-04
   maximum displ.:     0.0731275 α      in ANC's #2, #3, #1, ...

........................................................................
.............................. CYCLE   15 ..............................
........................................................................
   1    -13.2517346 -0.132517E+02  0.130E-01   10.01       0.0  T
   2    -13.2517351 -0.524630E-06  0.795E-02   10.00       1.0  T
   3    -13.2517354 -0.251111E-06  0.433E-03   10.00       9.4  T
   4    -13.2517354 -0.994786E-08  0.140E-03   10.00      29.3  T
   5    -13.2517354 -0.124026E-08  0.812E-04   10.00      50.3  T
   6    -13.2517354 -0.914751E-09  0.354E-04   10.00     115.4  T
     SCC iter.                  ...        0 min,  0.000 sec
     gradient                   ...        0 min,  0.001 sec
 * total energy  :   -13.1919847 Eh     change       -0.9759730E-05 Eh
   gradient norm :     0.0010313 Eh/α   predicted    -0.5920628E-05 ( -39.34%)
   displ. norm   :     0.0420834 α      lambda       -0.2543627E-05
   maximum displ.:     0.0393842 α      in ANC's #2, #3, #1, ...

........................................................................
.............................. CYCLE   16 ..............................
........................................................................
   1    -13.2515203 -0.132515E+02  0.624E-02    9.99       0.0  T
   2    -13.2515204 -0.113341E-06  0.382E-02    9.99       1.1  T
   3    -13.2515204 -0.577111E-07  0.202E-03    9.99      20.2  T
   4    -13.2515204 -0.205078E-08  0.489E-04    9.99      83.5  T
   5    -13.2515204 -0.156209E-09  0.333E-04    9.99     122.6  T
     SCC iter.                  ...        0 min,  0.000 sec
     gradient                   ...        0 min,  0.001 sec
 * total energy  :   -13.1919867 Eh     change       -0.1970685E-05 Eh
   gradient norm :     0.0005495 Eh/α   predicted    -0.1270911E-05 ( -35.51%)
   displ. norm   :     0.0044781 α      lambda       -0.3542322E-06
   maximum displ.:     0.0032307 α      in ANC's #2, #1, #7, ...

   *** GEOMETRY OPTIMIZATION CONVERGED AFTER 16 ITERATIONS ***

------------------------------------------------------------------------
 total energy gain   :        -0.0116278 Eh       -7.2966 kcal/mol
 total RMSD          :         0.5986152 a0        0.3168 Å
 total power (kW/mol):        -1.9080510 (step) -582.1330 (real)
------------------------------------------------------------------------

 ANCopt (total)                0 d,  0 h,  0 min,  0.052 sec
 optimizer setup                ...        0 min,  0.000 sec (  0.469%)
 model hessian                  ...        0 min,  0.000 sec (  0.892%)
 ANC generation                 ...        0 min,  0.000 sec (  0.642%)
 coordinate transformation      ...        0 min,  0.000 sec (  0.225%)
 single point calculation       ...        0 min,  0.049 sec ( 93.326%)
 optimization log               ...        0 min,  0.001 sec (  1.237%)
 hessian update                 ...        0 min,  0.000 sec (  0.153%)
 rational function              ...        0 min,  0.001 sec (  1.443%)

================
 final structure:
================
6
 xtb: 6.2.3 (830e466)
C         0.04909155977997   -0.00581635767393   -0.04646148409435
F        -0.77479392777535   -0.02745357577730   -1.15867383833963
H         0.08305304921508    1.00774122730779    0.34235857613792
H        -0.35622171385935   -0.68113079623569    0.70123365300748
H         1.04274369888824   -0.32743983404902   -0.34368386653902
Cl        1.86531733375142    0.03409933642815    2.41441695982758
 
 Bond Distances (Angstroems)
 ---------------------------
C1-F2=1.3843         C1-H3=1.0861         C1-H4=1.0860         C1-H5=1.0859         F2-C1=1.3843         H3-C1=1.0861         
H4-C1=1.0860         H5-C1=1.0859         
 C  H  Rav=1.0860 sigma=0.0001  Rmin=1.0859  Rmax=1.0861     3
 F  C  Rav=1.3843 sigma=0.0000  Rmin=1.3843  Rmax=1.3843     1
 
 selected bond angles (degree)
 --------------------
H3-C1-F2=108.71                H4-C1-F2=108.74                H4-C1-H3=110.21                H5-C1-F2=108.67                
H5-C1-H3=110.23                H5-C1-H4=110.23                
 
 selected dihedral angles (degree)
 ---------------------------------

 
 CMA Distance (Angstroems)
 ---------------------------
R(CMA):  3.8006
           -------------------------------------------------
          |                Final Singlepoint                |
           -------------------------------------------------

          ...................................................
          :                      SETUP                      :
          :.................................................:
          :  # basis functions                  21          :
          :  # atomic orbitals                  20          :
          :  # shells                           10          :
          :  # electrons                        22          :
          :  max. iterations                   250          :
          :  Hamiltonian                  GFN2-xTB          :
          :  restarted?                      false          :
          :  GBSA solvation                  false          :
          :  PC potential                    false          :
          :  electronic temp.          300.0000000     K    :
          :  accuracy                    1.0000000          :
          :  -> integral cutoff          0.2500000E+02      :
          :  -> integral neglect         0.1000000E-07      :
          :  -> SCF convergence          0.1000000E-05 Eh   :
          :  -> wf. convergence          0.1000000E-03 e    :
          :  Broyden damping             0.4000000          :
          ...................................................

 iter      E             dE          RMSdq      gap      omega  full diag
   1    -13.2515204 -0.132515E+02  0.179E-04    9.99       0.0  T
   2    -13.2515204 -0.198987E-10  0.147E-04    9.99     278.1  T
   3    -13.2515204 -0.416502E-10  0.152E-05    9.99    2684.9  T

   *** convergence criteria satisfied after 3 iterations ***

         #    Occupation            Energy/Eh            Energy/eV
      -------------------------------------------------------------
         1        2.0000           -0.7806671             -21.2430
       ...           ...                  ...                  ...
         5        2.0000           -0.3951752             -10.7533
         6        2.0000           -0.3951409             -10.7523
         7        2.0000           -0.3173731              -8.6362
         8        2.0000           -0.3173447              -8.6354
         9        2.0000           -0.1841504              -5.0110
        10        2.0000           -0.1832613              -4.9868
        11        2.0000           -0.1832605              -4.9868 (HOMO)
        12                          0.1839142               5.0046 (LUMO)
        13                          0.2913185               7.9272
        14                          0.3423782               9.3166
        15                          0.3424783               9.3193
        16                          0.3472926               9.4503
       ...                                ...                  ...
        20                          0.3573233               9.7233
      -------------------------------------------------------------
                  HL-Gap            0.3671747 Eh            9.9913 eV
             Fermi-level            0.0003268 Eh            0.0089 eV

 SCC (total)                   0 d,  0 h,  0 min,  0.002 sec
 SCC setup                      ...        0 min,  0.000 sec (  3.125%)
 Dispersion                     ...        0 min,  0.000 sec (  0.477%)
 integral evaluation            ...        0 min,  0.001 sec ( 37.856%)
 zeroth order Hamiltonian       ...        0 min,  0.000 sec (  0.827%)
 iterations                     ...        0 min,  0.000 sec ( 14.632%)
 molecular gradient             ...        0 min,  0.001 sec ( 38.977%)
 printout                       ...        0 min,  0.000 sec (  2.873%)

         :::::::::::::::::::::::::::::::::::::::::::::::::::::
         ::                     SUMMARY                     ::
         :::::::::::::::::::::::::::::::::::::::::::::::::::::
         :: total energy             -13.191986685787 Eh    ::
         :: gradient norm              0.000550188117 Eh/a0 ::
         :: HOMO-LUMO gap              9.991331733358 eV    ::
         ::.................................................::
         :: SCC energy               -13.251520425294 Eh    ::
         :: -> isotropic ES            0.165427607738 Eh    ::
         :: -> anisotropic ES         -0.000796410380 Eh    ::
         :: -> anisotropic XC         -0.001543832309 Eh    ::
         :: -> dispersion             -0.001855372641 Eh    ::
         :: repulsion energy           0.059533874895 Eh    ::
         :: add. restraining           0.000000000000 Eh    ::
         :::::::::::::::::::::::::::::::::::::::::::::::::::::

           -------------------------------------------------
          |                Property Printout                |
           -------------------------------------------------

    * Orbital Energies and Occupations

         #    Occupation            Energy/Eh            Energy/eV
      -------------------------------------------------------------
         1        2.0000           -0.7806671             -21.2430
         2        2.0000           -0.6743427             -18.3498
         3        2.0000           -0.4689159             -12.7599
         4        2.0000           -0.3959414             -10.7741
         5        2.0000           -0.3951752             -10.7533
         6        2.0000           -0.3951409             -10.7523
         7        2.0000           -0.3173731              -8.6362
         8        2.0000           -0.3173447              -8.6354
         9        2.0000           -0.1841504              -5.0110
        10        2.0000           -0.1832613              -4.9868
        11        2.0000           -0.1832605              -4.9868 (HOMO)
        12                          0.1839142               5.0046 (LUMO)
        13                          0.2913185               7.9272
        14                          0.3423782               9.3166
        15                          0.3424783               9.3193
        16                          0.3472926               9.4503
        17                          0.3472938               9.4503
        18                          0.3473508               9.4519
        19                          0.3570734               9.7165
        20                          0.3573233               9.7233
      -------------------------------------------------------------
                  HL-Gap            0.3671747 Eh            9.9913 eV
             Fermi-level            0.0003268 Eh            0.0089 eV

     #   Z        covCN         q      C6AA      α(0)
     1   6 C      3.558     0.076    20.176     6.554
     2   9 F      0.782    -0.291    12.220     4.129
     3   1 H      0.925     0.070     2.085     2.258
     4   1 H      0.925     0.070     2.080     2.255
     5   1 H      0.925     0.070     2.084     2.257
     6  17 Cl     0.000    -0.996   126.847    17.141

 Mol. C6AA /au·bohr⁶  :        551.049963
 Mol. C8AA /au·bohr⁸  :      15869.032257
 Mol. α(0) /au        :         34.594508


Wiberg/Mayer (AO) data.
largest (>0.10) Wiberg bond orders for each atom
          total WBO             WBO to atom ...
     1  C   3.868        H    5 0.981    H    3 0.981    H    4 0.981    F    2 0.920
     2  F   0.963        C    1 0.920
     3  H   0.995        C    1 0.981
     4  H   0.995        C    1 0.981
     5  H   0.995        C    1 0.981
     6  Cl  0.008

molecular dipole:
                 x           y           z       tot (Debye)
 q only:       -2.976      -0.051      -3.820
   full:       -2.882      -0.048      -3.694      11.908
molecular quadrupole (traceless):
                xx          xy          yy          xz          yz          zz
 q only:       -1.916      -0.378      17.712     -25.647      -0.497     -15.796
  q+dip:       -1.943      -0.403      18.599     -26.911      -0.533     -16.656
   full:       -1.919      -0.393      18.227     -26.377      -0.518     -16.308

           -------------------------------------------------
          |                Geometry Summary                 |
           -------------------------------------------------

      molecular mass/u    :       69.4858989
   center of mass at/Å    :        0.7595274       0.0088745       0.9172027
  moments of inertia/u·Å² :        0.3199456E+01   0.2704632E+03   0.2704633E+03
rotational constants/cm⁻¹ :        0.5268905E+01   0.6232875E-01   0.6232872E-01

 * 4 selected distances

     #   Z        #   Z                                     value/Å
     1   6 C      2   9 F                                 1.3842947 (max)
     1   6 C      3   1 H                                 1.0861093
     1   6 C      4   1 H                                 1.0859910
     1   6 C      5   1 H                                 1.0858763 (min)

 * 2 distinct bonds (by element types)

   Z      Z             #   av. dist./Å        max./Å        min./Å
   1 H    6 C           3     1.0859922     1.0861093     1.0858763
   6 C    9 F           1     1.3842947     1.3842947     1.3842947


optimized geometry written to: xtbopt.xyz


           -------------------------------------------------
          | TOTAL ENERGY              -13.191986685787 Eh   |
          | GRADIENT NORM               0.000550188117 Eh/α |
          | HOMO-LUMO GAP               9.991331733358 eV   |
           -------------------------------------------------

------------------------------------------------------------------------
 * finished run on 2020/05/29 at 13:52:10.996     
------------------------------------------------------------------------
 total:
 * wall-time:     0 d,  0 h,  0 min,  0.094 sec
 *  cpu-time:     0 d,  0 h,  0 min,  0.075 sec
 * ratio c/w:     0.804 speedup
 SCF:
 * wall-time:     0 d,  0 h,  0 min,  0.013 sec
 *  cpu-time:     0 d,  0 h,  0 min,  0.013 sec
 * ratio c/w:     1.000 speedup
 ANC optimizer:
 * wall-time:     0 d,  0 h,  0 min,  0.055 sec
 *  cpu-time:     0 d,  0 h,  0 min,  0.055 sec
 * ratio c/w:     1.000 speedup

