      -----------------------------------------------------------      
     |                   =====================                   |     
     |                           x T B                           |     
     |                   =====================                   |     
     |                         S. Grimme                         |     
     |          Mulliken Center for Theoretical Chemistry        |     
     |                    University of Bonn                     |     
      -----------------------------------------------------------      

   * xtb version 6.2.3 (830e466) compiled by 'ehlert@majestix' on 2020-03-16

   xtb is free software: you can redistribute it and/or modify it under
   the terms of the GNU Lesser General Public License as published by
   the Free Software Foundation, either version 3 of the License, or
   (at your option) any later version.
   
   xtb is distributed in the hope that it will be useful,
   but WITHOUT ANY WARRANTY; without even the implied warranty of
   MERCHANTABILITY or FITNESS FOR A PARTICULAR PURPOSE.  See the
   GNU Lesser General Public License for more details.
   
   Cite this work as:
   * S. Grimme, C. Bannwarth, P. Shushkov, J. Chem. Theory Comput., 2017,
     13, 1989-2009. DOI: 10.1021/acs.jctc.7b00118
   * C. Bannwarth, S. Ehlert and S. Grimme., J. Chem. Theory Comput., 2019,
     15, 1652-1671. DOI: 10.1021/acs.jctc.8b01176
   * P. Pracht, E. Caldeweyher, S. Ehlert, S. Grimme, ChemRxiv, 2019, preprint.
     DOI: 10.26434/chemrxiv.8326202.v1
   
   for DFT-D4:
   * E. Caldeweyher, C. Bannwarth and S. Grimme, J. Chem. Phys., 2017,
     147, 034112. DOI: 10.1063/1.4993215
   * E. Caldeweyher, S. Ehlert, A. Hansen, H. Neugebauer, S. Spicher,
     C. Bannwarth and S. Grimme, J. Chem. Phys., 2019, 150, 154122.
     DOI: 10.1063/1.5090222
   
   for sTDA-xTB:
   * S. Grimme and C. Bannwarth, J. Chem. Phys., 2016, 145, 054103.
     DOI: 10.1063/1.4959605
   
   in the mass-spec context:
   * V. Asgeirsson, C. Bauer and S. Grimme, Chem. Sci., 2017, 8, 4879.
     DOI: 10.1039/c7sc00601b
   
   for metadynamics refer to:
   * S. Grimme, J. Chem. Theory Comput., 2019, 155, 2847-2862
     DOI: 10.1021/acs.jctc.9b00143
   
   with help from (in alphabetical order)
   C. Bannwarth, F. Bohle, G. Brandenburg, E. Caldeweyher, M. Checinski,
   S. Dohm, S. Ehlert, S. Ehrlich, F. März, H. Neugebauer, J. Pisarek,
   P. Pracht, P. Shushkov, and S. Spicher.
   
 * started run on 2020/05/29 at 13:52:11.112     

           -------------------------------------------------
          |                Calculation Setup                |
           -------------------------------------------------

          program call               : /home/tom/.local/bin/xtb complex_conf3_opt_xtb0.xyz --chrg -1 --opt
          coordinate file            : complex_conf3_opt_xtb0.xyz
          omp threads                :                     1
          number of atoms            :                     6
          number of electrons        :                    22
          charge                     :                    -1
          spin                       :                   0.0
          first test random number   :      0.06255072044060


molecular fragmentation (1/2 indicates fragments):
111112
# atoms in fragment 1/2:     5     1
 fragment masses (1/2) :       34.03       35.45
CMA distance (Bohr)    :   6.654
constraining FC (au)   :  0.0500
########################################################################
[WARNING] Please study the warnings concerning your input carefully
-2- prog_main: XTBPATH is not set, using XTBHOME instead
-1- prog_main: XTBHOME is not set, using HOME instead
########################################################################
           ------------------------------------------------- 
          |                 G F N 2 - x T B                 |
          | Geometry, Frequencies, Noncovalent interactions |
          |            JCTC 2019 parametrisation            |
           ------------------------------------------------- 
             k(s)              :                1.8500
             k(p)              :                2.2300
             k(d)              :                2.2300
             k(f)              :                2.0000
             kEN (H0ij)        :               -2.0000
             D4 a1             :                0.5200
             D4 a2             :                5.0000
             D4 s6             :                1.0000
             D4 s8             :                2.7000
             D4 s9             :                5.0000
             alphaj            :                2.0000

  Z AO/shell   Hii/eV     exponent
  1     Wed Apr 25 08:07:45 CEST 2018   EN: 2.200 GM2: 0.406  GM3: 0.0800  RAES: 1.40
     1s    -10.707211    1.230000
  6     Wed Apr 25 08:07:45 CEST 2018   EN: 2.550 GM2: 0.538  GM3: 0.1500  RAES: 3.00
     2s    -13.970922    2.096432
     2p    -10.063292    1.800000
  9     Mon Apr 23 13:58:50 CEST 2018   EN: 3.980 GM2: 0.532  GM3: 0.1426  RAES: 2.40
     2s    -23.458179    2.416361
     2p    -15.746583    2.308399
 17     Mon Apr 23 14:09:22 CEST 2018   EN: 3.160 GM2: 0.249  GM3: 0.1495  RAES: 2.50
     3s    -29.278781    2.485265
     3p    -12.673758    2.199650
     3d     -0.240338    2.476089

           ------------------------------------------------- 
          |        Self-Consistent Charge Iterations        |
           ------------------------------------------------- 

          ...................................................
          :                      SETUP                      :
          :.................................................:
          :  # basis functions                  21          :
          :  # atomic orbitals                  20          :
          :  # shells                           10          :
          :  # electrons                        22          :
          :  max. iterations                   250          :
          :  Hamiltonian                  GFN2-xTB          :
          :  restarted?                      false          :
          :  GBSA solvation                  false          :
          :  PC potential                    false          :
          :  electronic temp.          300.0000000     K    :
          :  accuracy                    1.0000000          :
          :  -> integral cutoff          0.2500000E+02      :
          :  -> integral neglect         0.1000000E-07      :
          :  -> SCF convergence          0.1000000E-05 Eh   :
          :  -> wf. convergence          0.1000000E-03 e    :
          :  Broyden damping             0.4000000          :
          ...................................................

 iter      E             dE          RMSdq      gap      omega  full diag
   1    -13.1779970 -0.131780E+02  0.521E+00   11.35       0.0  T
   2    -13.2413351 -0.633380E-01  0.257E+00   11.98       1.0  T
   3    -13.2426563 -0.132128E-02  0.148E+00   11.25       1.0  T
   4    -13.2429917 -0.335404E-03  0.284E-01   10.48       1.0  T
   5    -13.2430831 -0.913651E-04  0.155E-01   10.66       1.0  T
   6    -13.2431310 -0.478665E-04  0.478E-02   10.68       1.0  T
   7    -13.2431351 -0.409049E-05  0.251E-02   10.68       1.6  T
   8    -13.2431351 -0.868632E-07  0.266E-03   10.68      15.4  T
   9    -13.2431352 -0.541036E-08  0.105E-03   10.68      38.7  T
  10    -13.2431352 -0.136534E-08  0.161E-04   10.68     254.0  T
  11    -13.2431352 -0.350369E-10  0.448E-05   10.68     910.9  T

   *** convergence criteria satisfied after 11 iterations ***

         #    Occupation            Energy/Eh            Energy/eV
      -------------------------------------------------------------
         1        2.0000           -0.7862457             -21.3948
       ...           ...                  ...                  ...
         5        2.0000           -0.3874528             -10.5431
         6        2.0000           -0.3766585             -10.2494
         7        2.0000           -0.3103901              -8.4461
         8        2.0000           -0.2990987              -8.1389
         9        2.0000           -0.1854673              -5.0468
        10        2.0000           -0.1854473              -5.0463
        11        2.0000           -0.1844662              -5.0196 (HOMO)
        12                          0.2078979               5.6572 (LUMO)
        13                          0.2736512               7.4464
        14                          0.3150284               8.5724
        15                          0.3225733               8.7777
        16                          0.3378467               9.1933
       ...                                ...                  ...
        20                          0.4236136              11.5271
      -------------------------------------------------------------
                  HL-Gap            0.3923640 Eh           10.6768 eV
             Fermi-level            0.0117159 Eh            0.3188 eV

 SCC (total)                   0 d,  0 h,  0 min,  0.003 sec
 SCC setup                      ...        0 min,  0.000 sec (  2.181%)
 Dispersion                     ...        0 min,  0.000 sec (  0.462%)
 integral evaluation            ...        0 min,  0.001 sec ( 24.816%)
 zeroth order Hamiltonian       ...        0 min,  0.000 sec (  0.641%)
 iterations                     ...        0 min,  0.001 sec ( 42.150%)
 molecular gradient             ...        0 min,  0.001 sec ( 26.826%)
 printout                       ...        0 min,  0.000 sec (  2.155%)

         :::::::::::::::::::::::::::::::::::::::::::::::::::::
         ::                     SUMMARY                     ::
         :::::::::::::::::::::::::::::::::::::::::::::::::::::
         :: total energy             -13.188742857367 Eh    ::
         :: gradient norm              0.017902732377 Eh/a0 ::
         :: HOMO-LUMO gap             10.676768721150 eV    ::
         ::.................................................::
         :: SCC energy               -13.243135153296 Eh    ::
         :: -> isotropic ES            0.159772547583 Eh    ::
         :: -> anisotropic ES         -0.001643203992 Eh    ::
         :: -> anisotropic XC         -0.002321554539 Eh    ::
         :: -> dispersion             -0.001876010999 Eh    ::
         :: repulsion energy           0.054391982962 Eh    ::
         :: add. restraining           0.000000000000 Eh    ::
         :::::::::::::::::::::::::::::::::::::::::::::::::::::

      ----------------------------------------------------------- 
     |                   =====================                   |
     |                        A N C O P T                        |
     |                   =====================                   |
     |               Approximate Normal Coordinate               |
     |                Rational Function Optimizer                |
      ----------------------------------------------------------- 

          ...................................................
          :                      SETUP                      :
          :.................................................:
          :   optimization level            normal          :
          :   max. optcycles                   200          :
          :   ANC micro-cycles                  20          :
          :   degrees of freedom                12          :
          :.................................................:
          :   RF solver                   davidson          :
          :   write xtbopt.log                true          :
          :   linear?                        false          :
          :   energy convergence         0.5000000E-05 Eh   :
          :   grad. convergence          0.1000000E-02 Eh/α :
          :   maximium RF displ.         1.0000000          :
          :   Hlow (freq-cutoff)         0.1000000E-01      :
          :   Hmax (freq-cutoff)         5.0000000          :
          :   S6 in model hess.         20.0000000          :
          ...................................................

generating ANC from model Hessian ...
Using Lindh-Hessian (1995)
 Shifting diagonal of input Hessian by   8.774340701149679E-003
 Lowest  eigenvalues of input Hessian
   -0.000000   -0.000000   -0.000000    0.000000    0.000000    0.000000
    0.010000    0.011022    0.024005    0.110022    0.110647    0.142344
    0.145618    0.162600    0.458214    1.087486    1.090647    1.468217
 Highest eigenvalues
    0.145618    0.162600    0.458214    1.087486    1.090647    1.468217
 

........................................................................
.............................. CYCLE    1 ..............................
........................................................................
   1    -13.2431352 -0.132431E+02  0.101E-05   10.68       0.0  T
   2    -13.2431352 -0.905942E-13  0.657E-06   10.68    6210.8  T
   3    -13.2431352 -0.444089E-13  0.435E-06   10.68    9385.6  T
     SCC iter.                  ...        0 min,  0.000 sec
     gradient                   ...        0 min,  0.001 sec
 * total energy  :   -13.1887429 Eh     change       -0.3174909E-08 Eh
   gradient norm :     0.0179029 Eh/α   predicted     0.0000000E+00 (-100.00%)
   displ. norm   :     0.3565756 α      lambda       -0.3388807E-02
   maximum displ.:     0.2756218 α      in ANC's #3, #1, #8, ...

........................................................................
.............................. CYCLE    2 ..............................
........................................................................
   1    -13.2464079 -0.132464E+02  0.399E-01   10.52       0.0  T
   2    -13.2464453 -0.373490E-04  0.244E-01   10.45       1.0  T
   3    -13.2464500 -0.469206E-05  0.424E-02   10.42       1.0  T
   4    -13.2464507 -0.724458E-06  0.176E-02   10.42       2.3  T
   5    -13.2464510 -0.322948E-06  0.919E-03   10.42       4.4  T
   6    -13.2464512 -0.155691E-06  0.156E-03   10.42      26.1  T
   7    -13.2464512 -0.212818E-08  0.573E-04   10.42      71.2  T
     SCC iter.                  ...        0 min,  0.000 sec
     gradient                   ...        0 min,  0.001 sec
 * total energy  :   -13.1907382 Eh     change       -0.1995315E-02 Eh
   gradient norm :     0.0078545 Eh/α   predicted    -0.1909841E-02 (  -4.28%)
   displ. norm   :     0.2043973 α      lambda       -0.5341100E-03
   maximum displ.:     0.1961893 α      in ANC's #1, #3, #9, ...

........................................................................
.............................. CYCLE    3 ..............................
........................................................................
   1    -13.2475570 -0.132476E+02  0.317E-01   10.15       0.0  T
   2    -13.2475628 -0.585332E-05  0.197E-01   10.15       1.0  T
   3    -13.2475648 -0.194494E-05  0.142E-02   10.15       2.9  T
   4    -13.2475649 -0.129614E-06  0.804E-03   10.15       5.1  T
   5    -13.2475650 -0.566371E-07  0.413E-03   10.15       9.9  T
   6    -13.2475650 -0.298392E-07  0.124E-03   10.15      32.9  T
   7    -13.2475650 -0.168071E-08  0.283E-04   10.15     144.4  T
     SCC iter.                  ...        0 min,  0.000 sec
     gradient                   ...        0 min,  0.001 sec
 * total energy  :   -13.1911308 Eh     change       -0.3926174E-03 Eh
   gradient norm :     0.0048996 Eh/α   predicted    -0.2782120E-03 ( -29.14%)
   displ. norm   :     0.1432098 α      lambda       -0.2207379E-03
   maximum displ.:     0.1402571 α      in ANC's #1, #2, #9, ...

........................................................................
.............................. CYCLE    4 ..............................
........................................................................
   1    -13.2483238 -0.132483E+02  0.217E-01   10.00       0.0  T
   2    -13.2483260 -0.221821E-05  0.134E-01    9.99       1.0  T
   3    -13.2483268 -0.791959E-06  0.824E-03   10.00       5.0  T
   4    -13.2483268 -0.442867E-07  0.489E-03    9.99       8.3  T
   5    -13.2483268 -0.211412E-07  0.249E-03    9.99      16.4  T
   6    -13.2483268 -0.108059E-07  0.806E-04    9.99      50.7  T
     SCC iter.                  ...        0 min,  0.000 sec
     gradient                   ...        0 min,  0.001 sec
 * total energy  :   -13.1913036 Eh     change       -0.1727967E-03 Eh
   gradient norm :     0.0047464 Eh/α   predicted    -0.1126319E-03 ( -34.82%)
   displ. norm   :     0.1265094 α      lambda       -0.1412487E-03
   maximum displ.:     0.1233723 α      in ANC's #1, #2, #9, ...

........................................................................
.............................. CYCLE    5 ..............................
........................................................................
   1    -13.2488325 -0.132488E+02  0.183E-01    9.98       0.0  T
   2    -13.2488339 -0.139289E-05  0.113E-01    9.97       1.0  T
   3    -13.2488344 -0.558000E-06  0.660E-03    9.97       6.2  T
   4    -13.2488345 -0.281940E-07  0.442E-03    9.97       9.2  T
   5    -13.2488345 -0.211249E-07  0.220E-03    9.97      18.6  T
   6    -13.2488345 -0.869871E-08  0.604E-04    9.97      67.6  T
     SCC iter.                  ...        0 min,  0.000 sec
     gradient                   ...        0 min,  0.001 sec
 * total energy  :   -13.1914185 Eh     change       -0.1148794E-03 Eh
   gradient norm :     0.0045566 Eh/α   predicted    -0.7175590E-04 ( -37.54%)
   displ. norm   :     0.1442438 α      lambda       -0.1217557E-03
   maximum displ.:     0.1386561 α      in ANC's #1, #2, #3, ...

........................................................................
.............................. CYCLE    6 ..............................
........................................................................
   1    -13.2490738 -0.132491E+02  0.209E-01   10.01       0.0  T
   2    -13.2490755 -0.172477E-05  0.130E-01   10.01       1.0  T
   3    -13.2490762 -0.732073E-06  0.726E-03   10.00       5.6  T
   4    -13.2490762 -0.337741E-07  0.501E-03   10.00       8.1  T
   5    -13.2490763 -0.294795E-07  0.236E-03   10.00      17.3  T
   6    -13.2490763 -0.983304E-08  0.614E-04   10.00      66.5  T
     SCC iter.                  ...        0 min,  0.000 sec
     gradient                   ...        0 min,  0.001 sec
 * total energy  :   -13.1915137 Eh     change       -0.9520106E-04 Eh
   gradient norm :     0.0036025 Eh/α   predicted    -0.6214544E-04 ( -34.72%)
   displ. norm   :     0.1724905 α      lambda       -0.9499365E-04
   maximum displ.:     0.1640144 α      in ANC's #1, #2, #3, ...

........................................................................
.............................. CYCLE    7 ..............................
........................................................................
   1    -13.2491230 -0.132491E+02  0.261E-01   10.05       0.0  T
   2    -13.2491256 -0.256686E-05  0.161E-01   10.04       1.0  T
   3    -13.2491267 -0.107871E-05  0.841E-03   10.04       4.9  T
   4    -13.2491267 -0.447916E-07  0.567E-03   10.04       7.2  T
   5    -13.2491268 -0.354016E-07  0.268E-03   10.04      15.2  T
   6    -13.2491268 -0.127236E-07  0.760E-04   10.04      53.7  T
   7    -13.2491268 -0.504848E-09  0.220E-04   10.04     185.7  T
     SCC iter.                  ...        0 min,  0.000 sec
     gradient                   ...        0 min,  0.001 sec
 * total energy  :   -13.1915778 Eh     change       -0.6416700E-04 Eh
   gradient norm :     0.0025766 Eh/α   predicted    -0.4891162E-04 ( -23.77%)
   displ. norm   :     0.1026939 α      lambda       -0.3288169E-04
   maximum displ.:     0.0948709 α      in ANC's #1, #2, #3, ...

........................................................................
.............................. CYCLE    8 ..............................
........................................................................
   1    -13.2494627 -0.132495E+02  0.161E-01   10.11       0.0  T
   2    -13.2494637 -0.918020E-06  0.996E-02   10.11       1.0  T
   3    -13.2494641 -0.394990E-06  0.491E-03   10.10       8.3  T
   4    -13.2494641 -0.149827E-07  0.330E-03   10.10      12.4  T
   5    -13.2494641 -0.115895E-07  0.156E-03   10.10      26.2  T
   6    -13.2494641 -0.432243E-08  0.483E-04   10.10      84.5  T
   7    -13.2494641 -0.221032E-09  0.133E-04   10.10     306.8  T
     SCC iter.                  ...        0 min,  0.000 sec
     gradient                   ...        0 min,  0.001 sec
 * total energy  :   -13.1915996 Eh     change       -0.2174750E-04 Eh
   gradient norm :     0.0010829 Eh/α   predicted    -0.1661563E-04 ( -23.60%)
   displ. norm   :     0.0915355 α      lambda       -0.7739358E-05
   maximum displ.:     0.0836355 α      in ANC's #1, #2, #3, ...

........................................................................
.............................. CYCLE    9 ..............................
........................................................................
   1    -13.2496125 -0.132496E+02  0.148E-01   10.14       0.0  T
   2    -13.2496133 -0.811560E-06  0.912E-02   10.14       1.0  T
   3    -13.2496137 -0.325426E-06  0.443E-03   10.14       9.2  T
   4    -13.2496137 -0.122110E-07  0.283E-03   10.14      14.4  T
   5    -13.2496137 -0.771494E-08  0.134E-03   10.14      30.5  T
   6    -13.2496137 -0.320106E-08  0.437E-04   10.13      93.4  T
   7    -13.2496137 -0.192449E-09  0.126E-04   10.13     325.0  T
     SCC iter.                  ...        0 min,  0.000 sec
     gradient                   ...        0 min,  0.001 sec
 * total energy  :   -13.1916053 Eh     change       -0.5733251E-05 Eh
   gradient norm :     0.0003788 Eh/α   predicted    -0.3883746E-05 ( -32.26%)
   displ. norm   :     0.0076766 α      lambda       -0.7206166E-06
   maximum displ.:     0.0069436 α      in ANC's #2, #1, #3, ...

........................................................................
.............................. CYCLE   10 ..............................
........................................................................
   1    -13.2497791 -0.132498E+02  0.817E-03   10.16       0.0  T
   2    -13.2497791 -0.405676E-08  0.489E-03   10.16       8.3  T
   3    -13.2497791 -0.143312E-08  0.445E-04   10.16      91.8  T
   4    -13.2497791 -0.134476E-09  0.240E-04   10.16     169.9  T
     SCC iter.                  ...        0 min,  0.000 sec
     gradient                   ...        0 min,  0.001 sec
 * total energy  :   -13.1916058 Eh     change       -0.4527967E-06 Eh
   gradient norm :     0.0003854 Eh/α   predicted    -0.3601942E-06 ( -20.45%)
   displ. norm   :     0.0136307 α      lambda       -0.5677550E-06
   maximum displ.:     0.0104461 α      in ANC's #2, #1, #3, ...

   *** GEOMETRY OPTIMIZATION CONVERGED AFTER 10 ITERATIONS ***

------------------------------------------------------------------------
 total energy gain   :        -0.0028629 Eh       -1.7965 kcal/mol
 total RMSD          :         0.4907014 a0        0.2597 Å
 total power (kW/mol):        -0.7516578 (step) -397.4736 (real)
------------------------------------------------------------------------

 ANCopt (total)                0 d,  0 h,  0 min,  0.019 sec
 optimizer setup                ...        0 min,  0.000 sec (  0.275%)
 model hessian                  ...        0 min,  0.000 sec (  0.486%)
 ANC generation                 ...        0 min,  0.000 sec (  0.369%)
 coordinate transformation      ...        0 min,  0.000 sec (  0.221%)
 single point calculation       ...        0 min,  0.018 sec ( 94.327%)
 optimization log               ...        0 min,  0.000 sec (  1.195%)
 hessian update                 ...        0 min,  0.000 sec (  0.168%)
 rational function              ...        0 min,  0.000 sec (  1.400%)

================
 final structure:
================
6
 xtb: 6.2.3 (830e466)
C        -0.00574967262589   -0.01085571761125   -0.02597769822345
F         0.58591477377632   -1.09061806899196    0.59503434605500
H        -0.46261868045701    0.60478393745781    0.74798789369103
H         0.77787505033051    0.54155220814803   -0.54405213169454
H        -0.76278974746505   -0.35174309896199   -0.73487361835079
Cl       -2.39536172355888    0.30689073995933   -2.30085879147730
 
 Bond Distances (Angstroems)
 ---------------------------
C1-F2=1.3790         C1-H3=1.0894         C1-H4=1.0898         C1-H5=1.0917         F2-C1=1.3790         H3-C1=1.0894         
H4-C1=1.0898         H5-C1=1.0917         
 C  H  Rav=1.0903 sigma=0.0010  Rmin=1.0894  Rmax=1.0917     3
 F  C  Rav=1.3790 sigma=0.0000  Rmin=1.3790  Rmax=1.3790     1
 
 selected bond angles (degree)
 --------------------
H3-C1-F2=107.61                H4-C1-F2=107.61                H4-C1-H3=110.66                H5-C1-F2=110.21                
H5-C1-H3=110.30                H5-C1-H4=110.38                
 
 selected dihedral angles (degree)
 ---------------------------------

 
 CMA Distance (Angstroems)
 ---------------------------
R(CMA):  3.8644
           -------------------------------------------------
          |                Final Singlepoint                |
           -------------------------------------------------

          ...................................................
          :                      SETUP                      :
          :.................................................:
          :  # basis functions                  21          :
          :  # atomic orbitals                  20          :
          :  # shells                           10          :
          :  # electrons                        22          :
          :  max. iterations                   250          :
          :  Hamiltonian                  GFN2-xTB          :
          :  restarted?                      false          :
          :  GBSA solvation                  false          :
          :  PC potential                    false          :
          :  electronic temp.          300.0000000     K    :
          :  accuracy                    1.0000000          :
          :  -> integral cutoff          0.2500000E+02      :
          :  -> integral neglect         0.1000000E-07      :
          :  -> SCF convergence          0.1000000E-05 Eh   :
          :  -> wf. convergence          0.1000000E-03 e    :
          :  Broyden damping             0.4000000          :
          ...................................................

 iter      E             dE          RMSdq      gap      omega  full diag
   1    -13.2497791 -0.132498E+02  0.116E-04   10.16       0.0  T
   2    -13.2497791 -0.841283E-11  0.923E-05   10.16     442.5  T
   3    -13.2497791 -0.142553E-10  0.366E-05   10.16    1113.9  T

   *** convergence criteria satisfied after 3 iterations ***

         #    Occupation            Energy/Eh            Energy/eV
      -------------------------------------------------------------
         1        2.0000           -0.7823350             -21.2884
       ...           ...                  ...                  ...
         5        2.0000           -0.4001038             -10.8874
         6        2.0000           -0.3909251             -10.6376
         7        2.0000           -0.3219456              -8.7606
         8        2.0000           -0.3130244              -8.5178
         9        2.0000           -0.1846640              -5.0250
        10        2.0000           -0.1838117              -5.0018
        11        2.0000           -0.1837897              -5.0012 (HOMO)
        12                          0.1895214               5.1571 (LUMO)
        13                          0.2762033               7.5159
        14                          0.3286574               8.9432
        15                          0.3371044               9.1731
        16                          0.3440650               9.3625
       ...                                ...                  ...
        20                          0.3889828              10.5848
      -------------------------------------------------------------
                  HL-Gap            0.3733111 Eh           10.1583 eV
             Fermi-level            0.0028658 Eh            0.0780 eV

 SCC (total)                   0 d,  0 h,  0 min,  0.002 sec
 SCC setup                      ...        0 min,  0.000 sec (  2.908%)
 Dispersion                     ...        0 min,  0.000 sec (  0.409%)
 integral evaluation            ...        0 min,  0.001 sec ( 38.368%)
 zeroth order Hamiltonian       ...        0 min,  0.000 sec (  0.776%)
 iterations                     ...        0 min,  0.000 sec ( 15.048%)
 molecular gradient             ...        0 min,  0.001 sec ( 38.495%)
 printout                       ...        0 min,  0.000 sec (  2.837%)

         :::::::::::::::::::::::::::::::::::::::::::::::::::::
         ::                     SUMMARY                     ::
         :::::::::::::::::::::::::::::::::::::::::::::::::::::
         :: total energy             -13.191605770476 Eh    ::
         :: gradient norm              0.000387392520 Eh/a0 ::
         :: HOMO-LUMO gap             10.158311622102 eV    ::
         ::.................................................::
         :: SCC energy               -13.249779130149 Eh    ::
         :: -> isotropic ES            0.163472296612 Eh    ::
         :: -> anisotropic ES         -0.001710064144 Eh    ::
         :: -> anisotropic XC         -0.002037975888 Eh    ::
         :: -> dispersion             -0.001761824654 Eh    ::
         :: repulsion energy           0.058173188986 Eh    ::
         :: add. restraining           0.000000000000 Eh    ::
         :::::::::::::::::::::::::::::::::::::::::::::::::::::

           -------------------------------------------------
          |                Property Printout                |
           -------------------------------------------------

    * Orbital Energies and Occupations

         #    Occupation            Energy/Eh            Energy/eV
      -------------------------------------------------------------
         1        2.0000           -0.7823350             -21.2884
         2        2.0000           -0.6747064             -18.3597
         3        2.0000           -0.4729629             -12.8700
         4        2.0000           -0.4022066             -10.9446
         5        2.0000           -0.4001038             -10.8874
         6        2.0000           -0.3909251             -10.6376
         7        2.0000           -0.3219456              -8.7606
         8        2.0000           -0.3130244              -8.5178
         9        2.0000           -0.1846640              -5.0250
        10        2.0000           -0.1838117              -5.0018
        11        2.0000           -0.1837897              -5.0012 (HOMO)
        12                          0.1895214               5.1571 (LUMO)
        13                          0.2762033               7.5159
        14                          0.3286574               8.9432
        15                          0.3371044               9.1731
        16                          0.3440650               9.3625
        17                          0.3440782               9.3628
        18                          0.3451083               9.3909
        19                          0.3451168               9.3911
        20                          0.3889828              10.5848
      -------------------------------------------------------------
                  HL-Gap            0.3733111 Eh           10.1583 eV
             Fermi-level            0.0028658 Eh            0.0780 eV

     #   Z        covCN         q      C6AA      α(0)
     1   6 C      3.556     0.061    20.443     6.600
     2   9 F      0.783    -0.281    12.111     4.111
     3   1 H      0.925     0.041     2.431     2.438
     4   1 H      0.925     0.041     2.438     2.442
     5   1 H      0.924     0.123     1.592     1.973
     6  17 Cl     0.000    -0.985   126.387    17.109

 Mol. C6AA /au·bohr⁶  :        553.234582
 Mol. C8AA /au·bohr⁸  :      15906.109002
 Mol. α(0) /au        :         34.673209


Wiberg/Mayer (AO) data.
largest (>0.10) Wiberg bond orders for each atom
          total WBO             WBO to atom ...
     1  C   3.866        H    4 0.985    H    3 0.985    H    5 0.955    F    2 0.929
     2  F   0.970        C    1 0.929
     3  H   0.998        C    1 0.985
     4  H   0.998        C    1 0.985
     5  H   0.985        C    1 0.955
     6  Cl  0.030

molecular dipole:
                 x           y           z       tot (Debye)
 q only:        3.993       0.015       3.809
   full:        3.899       0.167       3.713      13.690
molecular quadrupole (traceless):
                xx          xy          yy          xz          yz          zz
 q only:      -10.156       5.048      18.005     -29.401       4.909      -7.849
  q+dip:       -9.444       5.746      16.694     -29.182       5.659      -7.250
   full:       -9.614       5.375      17.009     -29.030       5.273      -7.395

           -------------------------------------------------
          |                Geometry Summary                 |
           -------------------------------------------------

      molecular mass/u    :       69.4858989
   center of mass at/Å    :       -1.0694445      -0.1319592      -1.0234403
  moments of inertia/u·Å² :        0.9196393E+01   0.2728685E+03   0.2788272E+03
rotational constants/cm⁻¹ :        0.1833070E+01   0.6177933E-01   0.6045906E-01

 * 4 selected distances

     #   Z        #   Z                                     value/Å
     1   6 C      2   9 F                                 1.3789886 (max)
     1   6 C      3   1 H                                 1.0893871 (min)
     1   6 C      4   1 H                                 1.0897813
     1   6 C      5   1 H                                 1.0917176

 * 2 distinct bonds (by element types)

   Z      Z             #   av. dist./Å        max./Å        min./Å
   1 H    6 C           3     1.0902953     1.0917176     1.0893871
   6 C    9 F           1     1.3789886     1.3789886     1.3789886


optimized geometry written to: xtbopt.xyz


           -------------------------------------------------
          | TOTAL ENERGY              -13.191605770476 Eh   |
          | GRADIENT NORM               0.000387392520 Eh/α |
          | HOMO-LUMO GAP              10.158311622102 eV   |
           -------------------------------------------------

------------------------------------------------------------------------
 * finished run on 2020/05/29 at 13:52:11.143     
------------------------------------------------------------------------
 total:
 * wall-time:     0 d,  0 h,  0 min,  0.031 sec
 *  cpu-time:     0 d,  0 h,  0 min,  0.030 sec
 * ratio c/w:     0.999 speedup
 SCF:
 * wall-time:     0 d,  0 h,  0 min,  0.003 sec
 *  cpu-time:     0 d,  0 h,  0 min,  0.003 sec
 * ratio c/w:     1.000 speedup
 ANC optimizer:
 * wall-time:     0 d,  0 h,  0 min,  0.021 sec
 *  cpu-time:     0 d,  0 h,  0 min,  0.021 sec
 * ratio c/w:     1.000 speedup

