      -----------------------------------------------------------      
     |                   =====================                   |     
     |                           x T B                           |     
     |                   =====================                   |     
     |                         S. Grimme                         |     
     |          Mulliken Center for Theoretical Chemistry        |     
     |                    University of Bonn                     |     
      -----------------------------------------------------------      

   * xtb version 6.2.3 (830e466) compiled by 'ehlert@majestix' on 2020-03-16

   xtb is free software: you can redistribute it and/or modify it under
   the terms of the GNU Lesser General Public License as published by
   the Free Software Foundation, either version 3 of the License, or
   (at your option) any later version.
   
   xtb is distributed in the hope that it will be useful,
   but WITHOUT ANY WARRANTY; without even the implied warranty of
   MERCHANTABILITY or FITNESS FOR A PARTICULAR PURPOSE.  See the
   GNU Lesser General Public License for more details.
   
   Cite this work as:
   * S. Grimme, C. Bannwarth, P. Shushkov, J. Chem. Theory Comput., 2017,
     13, 1989-2009. DOI: 10.1021/acs.jctc.7b00118
   * C. Bannwarth, S. Ehlert and S. Grimme., J. Chem. Theory Comput., 2019,
     15, 1652-1671. DOI: 10.1021/acs.jctc.8b01176
   * P. Pracht, E. Caldeweyher, S. Ehlert, S. Grimme, ChemRxiv, 2019, preprint.
     DOI: 10.26434/chemrxiv.8326202.v1
   
   for DFT-D4:
   * E. Caldeweyher, C. Bannwarth and S. Grimme, J. Chem. Phys., 2017,
     147, 034112. DOI: 10.1063/1.4993215
   * E. Caldeweyher, S. Ehlert, A. Hansen, H. Neugebauer, S. Spicher,
     C. Bannwarth and S. Grimme, J. Chem. Phys., 2019, 150, 154122.
     DOI: 10.1063/1.5090222
   
   for sTDA-xTB:
   * S. Grimme and C. Bannwarth, J. Chem. Phys., 2016, 145, 054103.
     DOI: 10.1063/1.4959605
   
   in the mass-spec context:
   * V. Asgeirsson, C. Bauer and S. Grimme, Chem. Sci., 2017, 8, 4879.
     DOI: 10.1039/c7sc00601b
   
   for metadynamics refer to:
   * S. Grimme, J. Chem. Theory Comput., 2019, 155, 2847-2862
     DOI: 10.1021/acs.jctc.9b00143
   
   with help from (in alphabetical order)
   C. Bannwarth, F. Bohle, G. Brandenburg, E. Caldeweyher, M. Checinski,
   S. Dohm, S. Ehlert, S. Ehrlich, F. März, H. Neugebauer, J. Pisarek,
   P. Pracht, P. Shushkov, and S. Spicher.
   
 * started run on 2020/05/29 at 13:52:11.004     

           -------------------------------------------------
          |                Calculation Setup                |
           -------------------------------------------------

          program call               : /home/tom/.local/bin/xtb complex_conf1_opt_xtb0.xyz --chrg -1 --opt
          coordinate file            : complex_conf1_opt_xtb0.xyz
          omp threads                :                     1
          number of atoms            :                     6
          number of electrons        :                    22
          charge                     :                    -1
          spin                       :                   0.0
          first test random number   :      0.59863827930961


molecular fragmentation (1/2 indicates fragments):
111112
# atoms in fragment 1/2:     5     1
 fragment masses (1/2) :       34.03       35.45
CMA distance (Bohr)    :   6.649
constraining FC (au)   :  0.0500
########################################################################
[WARNING] Please study the warnings concerning your input carefully
-2- prog_main: XTBPATH is not set, using XTBHOME instead
-1- prog_main: XTBHOME is not set, using HOME instead
########################################################################
           ------------------------------------------------- 
          |                 G F N 2 - x T B                 |
          | Geometry, Frequencies, Noncovalent interactions |
          |            JCTC 2019 parametrisation            |
           ------------------------------------------------- 
             k(s)              :                1.8500
             k(p)              :                2.2300
             k(d)              :                2.2300
             k(f)              :                2.0000
             kEN (H0ij)        :               -2.0000
             D4 a1             :                0.5200
             D4 a2             :                5.0000
             D4 s6             :                1.0000
             D4 s8             :                2.7000
             D4 s9             :                5.0000
             alphaj            :                2.0000

  Z AO/shell   Hii/eV     exponent
  1     Wed Apr 25 08:07:45 CEST 2018   EN: 2.200 GM2: 0.406  GM3: 0.0800  RAES: 1.40
     1s    -10.707211    1.230000
  6     Wed Apr 25 08:07:45 CEST 2018   EN: 2.550 GM2: 0.538  GM3: 0.1500  RAES: 3.00
     2s    -13.970922    2.096432
     2p    -10.063292    1.800000
  9     Mon Apr 23 13:58:50 CEST 2018   EN: 3.980 GM2: 0.532  GM3: 0.1426  RAES: 2.40
     2s    -23.458179    2.416361
     2p    -15.746583    2.308399
 17     Mon Apr 23 14:09:22 CEST 2018   EN: 3.160 GM2: 0.249  GM3: 0.1495  RAES: 2.50
     3s    -29.278781    2.485265
     3p    -12.673758    2.199650
     3d     -0.240338    2.476089

           ------------------------------------------------- 
          |        Self-Consistent Charge Iterations        |
           ------------------------------------------------- 

          ...................................................
          :                      SETUP                      :
          :.................................................:
          :  # basis functions                  21          :
          :  # atomic orbitals                  20          :
          :  # shells                           10          :
          :  # electrons                        22          :
          :  max. iterations                   250          :
          :  Hamiltonian                  GFN2-xTB          :
          :  restarted?                      false          :
          :  GBSA solvation                  false          :
          :  PC potential                    false          :
          :  electronic temp.          300.0000000     K    :
          :  accuracy                    1.0000000          :
          :  -> integral cutoff          0.2500000E+02      :
          :  -> integral neglect         0.1000000E-07      :
          :  -> SCF convergence          0.1000000E-05 Eh   :
          :  -> wf. convergence          0.1000000E-03 e    :
          :  Broyden damping             0.4000000          :
          ...................................................

 iter      E             dE          RMSdq      gap      omega  full diag
   1    -13.1779551 -0.131780E+02  0.515E+00   11.13       0.0  T
   2    -13.2407357 -0.627806E-01  0.253E+00   12.06       1.0  T
   3    -13.2420842 -0.134857E-02  0.146E+00   11.35       1.0  T
   4    -13.2423989 -0.314606E-03  0.273E-01   10.62       1.0  T
   5    -13.2424860 -0.871292E-04  0.145E-01   10.78       1.0  T
   6    -13.2425276 -0.415995E-04  0.481E-02   10.80       1.0  T
   7    -13.2425323 -0.472046E-05  0.237E-02   10.80       1.7  T
   8    -13.2425324 -0.115293E-06  0.261E-03   10.80      15.6  T
   9    -13.2425324 -0.439492E-08  0.953E-04   10.80      42.9  T
  10    -13.2425324 -0.123181E-08  0.155E-04   10.80     263.9  T

   *** convergence criteria satisfied after 10 iterations ***

         #    Occupation            Energy/Eh            Energy/eV
      -------------------------------------------------------------
         1        2.0000           -0.7890936             -21.4723
       ...           ...                  ...                  ...
         5        2.0000           -0.3839244             -10.4471
         6        2.0000           -0.3743498             -10.1866
         7        2.0000           -0.3072881              -8.3617
         8        2.0000           -0.2971393              -8.0856
         9        2.0000           -0.1878284              -5.1111
        10        2.0000           -0.1877785              -5.1097
        11        2.0000           -0.1854011              -5.0450 (HOMO)
        12                          0.2115990               5.7579 (LUMO)
        13                          0.2793391               7.6012
        14                          0.3121494               8.4940
        15                          0.3284466               8.9375
        16                          0.3342779               9.0962
       ...                                ...                  ...
        20                          0.4340812              11.8120
      -------------------------------------------------------------
                  HL-Gap            0.3970000 Eh           10.8029 eV
             Fermi-level            0.0130989 Eh            0.3564 eV

 SCC (total)                   0 d,  0 h,  0 min,  0.003 sec
 SCC setup                      ...        0 min,  0.000 sec (  2.391%)
 Dispersion                     ...        0 min,  0.000 sec (  0.514%)
 integral evaluation            ...        0 min,  0.001 sec ( 25.812%)
 zeroth order Hamiltonian       ...        0 min,  0.000 sec (  0.663%)
 iterations                     ...        0 min,  0.001 sec ( 41.053%)
 molecular gradient             ...        0 min,  0.001 sec ( 26.438%)
 printout                       ...        0 min,  0.000 sec (  2.307%)

         :::::::::::::::::::::::::::::::::::::::::::::::::::::
         ::                     SUMMARY                     ::
         :::::::::::::::::::::::::::::::::::::::::::::::::::::
         :: total energy             -13.188137924285 Eh    ::
         :: gradient norm              0.020583987650 Eh/a0 ::
         :: HOMO-LUMO gap             10.802920642945 eV    ::
         ::.................................................::
         :: SCC energy               -13.242532423544 Eh    ::
         :: -> isotropic ES            0.157966173861 Eh    ::
         :: -> anisotropic ES         -0.001593053611 Eh    ::
         :: -> anisotropic XC         -0.002019434404 Eh    ::
         :: -> dispersion             -0.001907672186 Eh    ::
         :: repulsion energy           0.054394267762 Eh    ::
         :: add. restraining           0.000000000000 Eh    ::
         :::::::::::::::::::::::::::::::::::::::::::::::::::::

      ----------------------------------------------------------- 
     |                   =====================                   |
     |                        A N C O P T                        |
     |                   =====================                   |
     |               Approximate Normal Coordinate               |
     |                Rational Function Optimizer                |
      ----------------------------------------------------------- 

          ...................................................
          :                      SETUP                      :
          :.................................................:
          :   optimization level            normal          :
          :   max. optcycles                   200          :
          :   ANC micro-cycles                  20          :
          :   degrees of freedom                12          :
          :.................................................:
          :   RF solver                   davidson          :
          :   write xtbopt.log                true          :
          :   linear?                        false          :
          :   energy convergence         0.5000000E-05 Eh   :
          :   grad. convergence          0.1000000E-02 Eh/α :
          :   maximium RF displ.         1.0000000          :
          :   Hlow (freq-cutoff)         0.1000000E-01      :
          :   Hmax (freq-cutoff)         5.0000000          :
          :   S6 in model hess.         20.0000000          :
          ...................................................

generating ANC from model Hessian ...
Using Lindh-Hessian (1995)
 Shifting diagonal of input Hessian by   8.771250989103491E-003
 Lowest  eigenvalues of input Hessian
   -0.000000   -0.000000   -0.000000    0.000000    0.000000    0.000000
    0.010000    0.011236    0.028278    0.109759    0.110446    0.142226
    0.148659    0.162890    0.459053    1.087851    1.090098    1.468661
 Highest eigenvalues
    0.148659    0.162890    0.459053    1.087851    1.090098    1.468661
 

........................................................................
.............................. CYCLE    1 ..............................
........................................................................
   1    -13.2425324 -0.132425E+02  0.445E-05   10.80       0.0  T
   2    -13.2425324 -0.531131E-11  0.233E-05   10.80    1749.5  T
   3    -13.2425324 -0.394351E-12  0.184E-05   10.80    2223.1  T
     SCC iter.                  ...        0 min,  0.000 sec
     gradient                   ...        0 min,  0.001 sec
 * total energy  :   -13.1881379 Eh     change        0.2442491E-08 Eh
   gradient norm :     0.0205843 Eh/α   predicted     0.0000000E+00 (-100.00%)
   displ. norm   :     0.4155528 α      lambda       -0.5896745E-02
   maximum displ.:     0.3841845 α      in ANC's #3, #1, #2, ...

........................................................................
.............................. CYCLE    2 ..............................
........................................................................
   1    -13.2470513 -0.132471E+02  0.263E-01   10.59       0.0  T
   2    -13.2471112 -0.598836E-04  0.151E-01   10.49       1.0  T
   3    -13.2471171 -0.593403E-05  0.552E-02   10.45       1.0  T
   4    -13.2471185 -0.135490E-05  0.240E-02   10.43       1.7  T
   5    -13.2471192 -0.746218E-06  0.132E-02   10.43       3.1  T
   6    -13.2471195 -0.320769E-06  0.190E-03   10.43      21.5  T
   7    -13.2471195 -0.321796E-08  0.670E-04   10.43      60.9  T
     SCC iter.                  ...        0 min,  0.000 sec
     gradient                   ...        0 min,  0.001 sec
 * total energy  :   -13.1911399 Eh     change       -0.3002002E-02 Eh
   gradient norm :     0.0090249 Eh/α   predicted    -0.3457519E-02 (  15.17%)
   displ. norm   :     0.1269814 α      lambda       -0.3519475E-03
   maximum displ.:     0.1111879 α      in ANC's #1, #3, #8, ...

........................................................................
.............................. CYCLE    3 ..............................
........................................................................
   1    -13.2484191 -0.132484E+02  0.157E-01   10.32       0.0  T
   2    -13.2484218 -0.274127E-05  0.957E-02   10.31       1.0  T
   3    -13.2484223 -0.517049E-06  0.953E-03   10.31       4.3  T
   4    -13.2484224 -0.457088E-07  0.442E-03   10.31       9.2  T
   5    -13.2484224 -0.148427E-07  0.200E-03   10.31      20.4  T
   6    -13.2484224 -0.654387E-08  0.698E-04   10.31      58.5  T
     SCC iter.                  ...        0 min,  0.000 sec
     gradient                   ...        0 min,  0.001 sec
 * total energy  :   -13.1913945 Eh     change       -0.2545807E-03 Eh
   gradient norm :     0.0038139 Eh/α   predicted    -0.1788121E-03 ( -29.76%)
   displ. norm   :     0.1242415 α      lambda       -0.1536368E-03
   maximum displ.:     0.1129071 α      in ANC's #1, #3, #2, ...

........................................................................
.............................. CYCLE    4 ..............................
........................................................................
   1    -13.2490709 -0.132491E+02  0.151E-01   10.15       0.0  T
   2    -13.2490728 -0.194816E-05  0.919E-02   10.14       1.0  T
   3    -13.2490733 -0.461582E-06  0.781E-03   10.14       5.2  T
   4    -13.2490733 -0.325774E-07  0.395E-03   10.14      10.3  T
   5    -13.2490733 -0.115938E-07  0.175E-03   10.14      23.4  T
   6    -13.2490733 -0.490678E-08  0.651E-04   10.14      62.7  T
   7    -13.2490733 -0.567686E-09  0.141E-04   10.14     290.3  T
     SCC iter.                  ...        0 min,  0.000 sec
     gradient                   ...        0 min,  0.001 sec
 * total energy  :   -13.1915023 Eh     change       -0.1078155E-03 Eh
   gradient norm :     0.0014747 Eh/α   predicted    -0.7800386E-04 ( -27.65%)
   displ. norm   :     0.1228110 α      lambda       -0.4872219E-04
   maximum displ.:     0.1105905 α      in ANC's #1, #2, #3, ...

........................................................................
.............................. CYCLE    5 ..............................
........................................................................
   1    -13.2492613 -0.132493E+02  0.147E-01   10.03       0.0  T
   2    -13.2492628 -0.146291E-05  0.900E-02   10.03       1.0  T
   3    -13.2492632 -0.444823E-06  0.678E-03   10.03       6.0  T
   4    -13.2492632 -0.254332E-07  0.382E-03   10.03      10.7  T
   5    -13.2492632 -0.120559E-07  0.176E-03   10.02      23.2  T
   6    -13.2492632 -0.532004E-08  0.610E-04   10.02      67.0  T
   7    -13.2492632 -0.433419E-09  0.135E-04   10.02     303.4  T
     SCC iter.                  ...        0 min,  0.000 sec
     gradient                   ...        0 min,  0.001 sec
 * total energy  :   -13.1915521 Eh     change       -0.4973283E-04 Eh
   gradient norm :     0.0028446 Eh/α   predicted    -0.2452390E-04 ( -50.69%)
   displ. norm   :     0.0509378 α      lambda       -0.2231300E-04
   maximum displ.:     0.0420725 α      in ANC's #1, #2, #9, ...

........................................................................
.............................. CYCLE    6 ..............................
........................................................................
   1    -13.2493572 -0.132494E+02  0.621E-02   10.05       0.0  T
   2    -13.2493574 -0.190007E-06  0.382E-02   10.05       1.1  T
   3    -13.2493575 -0.834457E-07  0.259E-03   10.05      15.8  T
   4    -13.2493575 -0.384188E-08  0.172E-03   10.05      23.7  T
   5    -13.2493575 -0.312200E-08  0.831E-04   10.05      49.1  T
   6    -13.2493575 -0.124676E-08  0.241E-04   10.05     169.4  T
     SCC iter.                  ...        0 min,  0.000 sec
     gradient                   ...        0 min,  0.001 sec
 * total energy  :   -13.1915713 Eh     change       -0.1928511E-04 Eh
   gradient norm :     0.0022223 Eh/α   predicted    -0.1118483E-04 ( -42.00%)
   displ. norm   :     0.1007384 α      lambda       -0.3576696E-04
   maximum displ.:     0.0787461 α      in ANC's #1, #2, #3, ...

........................................................................
.............................. CYCLE    7 ..............................
........................................................................
   1    -13.2494613 -0.132495E+02  0.128E-01   10.12       0.0  T
   2    -13.2494620 -0.740474E-06  0.786E-02   10.11       1.0  T
   3    -13.2494624 -0.338809E-06  0.487E-03   10.11       8.4  T
   4    -13.2494624 -0.136711E-07  0.330E-03   10.11      12.4  T
   5    -13.2494624 -0.117159E-07  0.156E-03   10.11      26.2  T
   6    -13.2494624 -0.433800E-08  0.466E-04   10.11      87.6  T
   7    -13.2494624 -0.199403E-09  0.104E-04   10.11     391.6  T
     SCC iter.                  ...        0 min,  0.000 sec
     gradient                   ...        0 min,  0.001 sec
 * total energy  :   -13.1915964 Eh     change       -0.2508862E-04 Eh
   gradient norm :     0.0009256 Eh/α   predicted    -0.1806342E-04 ( -28.00%)
   displ. norm   :     0.1095619 α      lambda       -0.1181852E-04
   maximum displ.:     0.0832090 α      in ANC's #1, #2, #9, ...

........................................................................
.............................. CYCLE    8 ..............................
........................................................................
   1    -13.2495151 -0.132495E+02  0.145E-01   10.15       0.0  T
   2    -13.2495160 -0.974817E-06  0.891E-02   10.14       1.0  T
   3    -13.2495165 -0.416483E-06  0.519E-03   10.14       7.9  T
   4    -13.2495165 -0.155765E-07  0.340E-03   10.14      12.0  T
   5    -13.2495165 -0.117243E-07  0.158E-03   10.14      25.8  T
   6    -13.2495165 -0.445633E-08  0.474E-04   10.14      86.1  T
   7    -13.2495165 -0.212411E-09  0.121E-04   10.14     337.5  T
     SCC iter.                  ...        0 min,  0.000 sec
     gradient                   ...        0 min,  0.001 sec
 * total energy  :   -13.1916049 Eh     change       -0.8446469E-05 Eh
   gradient norm :     0.0005679 Eh/α   predicted    -0.5941407E-05 ( -29.66%)
   displ. norm   :     0.0075078 α      lambda       -0.1105685E-05
   maximum displ.:     0.0066588 α      in ANC's #2, #9, #1, ...

........................................................................
.............................. CYCLE    9 ..............................
........................................................................
   1    -13.2497349 -0.132497E+02  0.944E-03   10.15       0.0  T
   2    -13.2497349 -0.439735E-08  0.578E-03   10.15       7.1  T
   3    -13.2497349 -0.161599E-08  0.430E-04   10.15      94.9  T
   4    -13.2497349 -0.104123E-09  0.266E-04   10.15     153.6  T
     SCC iter.                  ...        0 min,  0.000 sec
     gradient                   ...        0 min,  0.001 sec
 * total energy  :   -13.1916057 Eh     change       -0.8354220E-06 Eh
   gradient norm :     0.0002218 Eh/α   predicted    -0.5525614E-06 ( -33.86%)
   displ. norm   :     0.0106528 α      lambda       -0.3668302E-06
   maximum displ.:     0.0099834 α      in ANC's #2, #3, #1, ...

   *** GEOMETRY OPTIMIZATION CONVERGED AFTER 9 ITERATIONS ***

------------------------------------------------------------------------
 total energy gain   :        -0.0034678 Eh       -2.1761 kcal/mol
 total RMSD          :         0.3376667 a0        0.1787 Å
 total power (kW/mol):        -1.0116296 (step) -527.0764 (real)
------------------------------------------------------------------------

 ANCopt (total)                0 d,  0 h,  0 min,  0.017 sec
 optimizer setup                ...        0 min,  0.000 sec (  0.324%)
 model hessian                  ...        0 min,  0.000 sec (  0.897%)
 ANC generation                 ...        0 min,  0.000 sec (  0.399%)
 coordinate transformation      ...        0 min,  0.000 sec (  0.239%)
 single point calculation       ...        0 min,  0.016 sec ( 93.626%)
 optimization log               ...        0 min,  0.000 sec (  1.220%)
 hessian update                 ...        0 min,  0.000 sec (  0.174%)
 rational function              ...        0 min,  0.000 sec (  1.544%)

================
 final structure:
================
6
 xtb: 6.2.3 (830e466)
C        -0.00174966327770   -0.02628196941949    0.00654510889329
F         1.14743394372698    0.72385635641817   -0.13051387006243
H        -0.55313826266614    0.28732683181507    0.89525821431975
H        -0.60512167763915    0.12888651709429   -0.88727348486799
H         0.29522795134082   -1.07121574147564    0.09289298688109
Cl       -2.47467229148481   -0.04257199443239    2.21512104483629
 
 Bond Distances (Angstroems)
 ---------------------------
C1-F2=1.3792         C1-H3=1.0919         C1-H4=1.0895         C1-H5=1.0897         F2-C1=1.3792         H3-C1=1.0919         
H4-C1=1.0895         H5-C1=1.0897         
 C  H  Rav=1.0904 sigma=0.0011  Rmin=1.0895  Rmax=1.0919     3
 F  C  Rav=1.3792 sigma=0.0000  Rmin=1.3792  Rmax=1.3792     1
 
 selected bond angles (degree)
 --------------------
H3-C1-F2=110.21                H4-C1-F2=107.61                H4-C1-H3=110.31                H5-C1-F2=107.60                
H5-C1-H3=110.40                H5-C1-H4=110.64                
 
 selected dihedral angles (degree)
 ---------------------------------

 
 CMA Distance (Angstroems)
 ---------------------------
R(CMA):  3.8636
           -------------------------------------------------
          |                Final Singlepoint                |
           -------------------------------------------------

          ...................................................
          :                      SETUP                      :
          :.................................................:
          :  # basis functions                  21          :
          :  # atomic orbitals                  20          :
          :  # shells                           10          :
          :  # electrons                        22          :
          :  max. iterations                   250          :
          :  Hamiltonian                  GFN2-xTB          :
          :  restarted?                      false          :
          :  GBSA solvation                  false          :
          :  PC potential                    false          :
          :  electronic temp.          300.0000000     K    :
          :  accuracy                    1.0000000          :
          :  -> integral cutoff          0.2500000E+02      :
          :  -> integral neglect         0.1000000E-07      :
          :  -> SCF convergence          0.1000000E-05 Eh   :
          :  -> wf. convergence          0.1000000E-03 e    :
          :  Broyden damping             0.4000000          :
          ...................................................

 iter      E             dE          RMSdq      gap      omega  full diag
   1    -13.2497349 -0.132497E+02  0.123E-04   10.15       0.0  T
   2    -13.2497349 -0.908784E-11  0.987E-05   10.15     413.7  T
   3    -13.2497349 -0.173941E-10  0.316E-05   10.15    1291.9  T

   *** convergence criteria satisfied after 3 iterations ***

         #    Occupation            Energy/Eh            Energy/eV
      -------------------------------------------------------------
         1        2.0000           -0.7823573             -21.2890
       ...           ...                  ...                  ...
         5        2.0000           -0.4000497             -10.8859
         6        2.0000           -0.3908415             -10.6353
         7        2.0000           -0.3219197              -8.7599
         8        2.0000           -0.3129874              -8.5168
         9        2.0000           -0.1846762              -5.0253
        10        2.0000           -0.1838202              -5.0020
        11        2.0000           -0.1837994              -5.0014 (HOMO)
        12                          0.1892711               5.1503 (LUMO)
        13                          0.2760865               7.5127
        14                          0.3285727               8.9409
        15                          0.3369019               9.1676
        16                          0.3440317               9.3616
       ...                                ...                  ...
        20                          0.3891129              10.5883
      -------------------------------------------------------------
                  HL-Gap            0.3730705 Eh           10.1518 eV
             Fermi-level            0.0027359 Eh            0.0744 eV

 SCC (total)                   0 d,  0 h,  0 min,  0.002 sec
 SCC setup                      ...        0 min,  0.000 sec (  3.084%)
 Dispersion                     ...        0 min,  0.000 sec (  0.416%)
 integral evaluation            ...        0 min,  0.001 sec ( 39.707%)
 zeroth order Hamiltonian       ...        0 min,  0.000 sec (  0.789%)
 iterations                     ...        0 min,  0.000 sec ( 13.900%)
 molecular gradient             ...        0 min,  0.001 sec ( 38.029%)
 printout                       ...        0 min,  0.000 sec (  2.840%)

         :::::::::::::::::::::::::::::::::::::::::::::::::::::
         ::                     SUMMARY                     ::
         :::::::::::::::::::::::::::::::::::::::::::::::::::::
         :: total energy             -13.191605710065 Eh    ::
         :: gradient norm              0.000222434382 Eh/a0 ::
         :: HOMO-LUMO gap             10.151765452544 eV    ::
         ::.................................................::
         :: SCC energy               -13.249734906292 Eh    ::
         :: -> isotropic ES            0.163458387445 Eh    ::
         :: -> anisotropic ES         -0.001717338916 Eh    ::
         :: -> anisotropic XC         -0.002036912892 Eh    ::
         :: -> dispersion             -0.001761426491 Eh    ::
         :: repulsion energy           0.058129021815 Eh    ::
         :: add. restraining           0.000000000000 Eh    ::
         :::::::::::::::::::::::::::::::::::::::::::::::::::::

           -------------------------------------------------
          |                Property Printout                |
           -------------------------------------------------

    * Orbital Energies and Occupations

         #    Occupation            Energy/Eh            Energy/eV
      -------------------------------------------------------------
         1        2.0000           -0.7823573             -21.2890
         2        2.0000           -0.6746114             -18.3571
         3        2.0000           -0.4729397             -12.8693
         4        2.0000           -0.4021746             -10.9437
         5        2.0000           -0.4000497             -10.8859
         6        2.0000           -0.3908415             -10.6353
         7        2.0000           -0.3219197              -8.7599
         8        2.0000           -0.3129874              -8.5168
         9        2.0000           -0.1846762              -5.0253
        10        2.0000           -0.1838202              -5.0020
        11        2.0000           -0.1837994              -5.0014 (HOMO)
        12                          0.1892711               5.1503 (LUMO)
        13                          0.2760865               7.5127
        14                          0.3285727               8.9409
        15                          0.3369019               9.1676
        16                          0.3440317               9.3616
        17                          0.3440439               9.3619
        18                          0.3450777               9.3900
        19                          0.3450857               9.3903
        20                          0.3891129              10.5883
      -------------------------------------------------------------
                  HL-Gap            0.3730705 Eh           10.1518 eV
             Fermi-level            0.0027359 Eh            0.0744 eV

     #   Z        covCN         q      C6AA      α(0)
     1   6 C      3.556     0.061    20.445     6.600
     2   9 F      0.783    -0.281    12.111     4.111
     3   1 H      0.924     0.123     1.590     1.972
     4   1 H      0.925     0.041     2.433     2.439
     5   1 H      0.925     0.041     2.439     2.442
     6  17 Cl     0.000    -0.985   126.382    17.109

 Mol. C6AA /au·bohr⁶  :        553.251224
 Mol. C8AA /au·bohr⁸  :      15906.357623
 Mol. α(0) /au        :         34.673814


Wiberg/Mayer (AO) data.
largest (>0.10) Wiberg bond orders for each atom
          total WBO             WBO to atom ...
     1  C   3.866        H    5 0.985    H    4 0.985    H    3 0.955    F    2 0.929
     2  F   0.970        C    1 0.929
     3  H   0.985        C    1 0.955
     4  H   0.998        C    1 0.985
     5  H   0.998        C    1 0.985
     6  Cl  0.030

molecular dipole:
                 x           y           z       tot (Debye)
 q only:        3.842      -0.314      -3.906
   full:        3.670      -0.418      -3.877      13.610
molecular quadrupole (traceless):
                xx          xy          yy          xz          yz          zz
 q only:      -14.092      -1.998      19.403      28.938       0.762      -5.311
  q+dip:      -14.625      -3.174      18.981      28.387       0.792      -4.356
   full:      -14.244      -2.690      18.969      28.346       0.711      -4.725

           -------------------------------------------------
          |                Geometry Summary                 |
           -------------------------------------------------

      molecular mass/u    :       69.4858989
   center of mass at/Å    :       -0.9617187       0.1621472       1.0971044
  moments of inertia/u·Å² :        0.9256274E+01   0.2727014E+03   0.2787206E+03
rotational constants/cm⁻¹ :        0.1821212E+01   0.6181719E-01   0.6048219E-01

 * 4 selected distances

     #   Z        #   Z                                     value/Å
     1   6 C      2   9 F                                 1.3791721 (max)
     1   6 C      3   1 H                                 1.0918749
     1   6 C      4   1 H                                 1.0895167 (min)
     1   6 C      5   1 H                                 1.0897423

 * 2 distinct bonds (by element types)

   Z      Z             #   av. dist./Å        max./Å        min./Å
   1 H    6 C           3     1.0903780     1.0918749     1.0895167
   6 C    9 F           1     1.3791721     1.3791721     1.3791721


optimized geometry written to: xtbopt.xyz


           -------------------------------------------------
          | TOTAL ENERGY              -13.191605710065 Eh   |
          | GRADIENT NORM               0.000222434382 Eh/α |
          | HOMO-LUMO GAP              10.151765452544 eV   |
           -------------------------------------------------

------------------------------------------------------------------------
 * finished run on 2020/05/29 at 13:52:11.033     
------------------------------------------------------------------------
 total:
 * wall-time:     0 d,  0 h,  0 min,  0.029 sec
 *  cpu-time:     0 d,  0 h,  0 min,  0.029 sec
 * ratio c/w:     0.999 speedup
 SCF:
 * wall-time:     0 d,  0 h,  0 min,  0.003 sec
 *  cpu-time:     0 d,  0 h,  0 min,  0.003 sec
 * ratio c/w:     1.000 speedup
 ANC optimizer:
 * wall-time:     0 d,  0 h,  0 min,  0.019 sec
 *  cpu-time:     0 d,  0 h,  0 min,  0.019 sec
 * ratio c/w:     1.000 speedup

