      -----------------------------------------------------------      
     |                   =====================                   |     
     |                           x T B                           |     
     |                   =====================                   |     
     |                         S. Grimme                         |     
     |          Mulliken Center for Theoretical Chemistry        |     
     |                    University of Bonn                     |     
      -----------------------------------------------------------      

   * xtb version 6.2.3 (830e466) compiled by 'ehlert@majestix' on 2020-03-16

   xtb is free software: you can redistribute it and/or modify it under
   the terms of the GNU Lesser General Public License as published by
   the Free Software Foundation, either version 3 of the License, or
   (at your option) any later version.
   
   xtb is distributed in the hope that it will be useful,
   but WITHOUT ANY WARRANTY; without even the implied warranty of
   MERCHANTABILITY or FITNESS FOR A PARTICULAR PURPOSE.  See the
   GNU Lesser General Public License for more details.
   
   Cite this work as:
   * S. Grimme, C. Bannwarth, P. Shushkov, J. Chem. Theory Comput., 2017,
     13, 1989-2009. DOI: 10.1021/acs.jctc.7b00118
   * C. Bannwarth, S. Ehlert and S. Grimme., J. Chem. Theory Comput., 2019,
     15, 1652-1671. DOI: 10.1021/acs.jctc.8b01176
   * P. Pracht, E. Caldeweyher, S. Ehlert, S. Grimme, ChemRxiv, 2019, preprint.
     DOI: 10.26434/chemrxiv.8326202.v1
   
   for DFT-D4:
   * E. Caldeweyher, C. Bannwarth and S. Grimme, J. Chem. Phys., 2017,
     147, 034112. DOI: 10.1063/1.4993215
   * E. Caldeweyher, S. Ehlert, A. Hansen, H. Neugebauer, S. Spicher,
     C. Bannwarth and S. Grimme, J. Chem. Phys., 2019, 150, 154122.
     DOI: 10.1063/1.5090222
   
   for sTDA-xTB:
   * S. Grimme and C. Bannwarth, J. Chem. Phys., 2016, 145, 054103.
     DOI: 10.1063/1.4959605
   
   in the mass-spec context:
   * V. Asgeirsson, C. Bauer and S. Grimme, Chem. Sci., 2017, 8, 4879.
     DOI: 10.1039/c7sc00601b
   
   for metadynamics refer to:
   * S. Grimme, J. Chem. Theory Comput., 2019, 155, 2847-2862
     DOI: 10.1021/acs.jctc.9b00143
   
   with help from (in alphabetical order)
   C. Bannwarth, F. Bohle, G. Brandenburg, E. Caldeweyher, M. Checinski,
   S. Dohm, S. Ehlert, S. Ehrlich, F. März, H. Neugebauer, J. Pisarek,
   P. Pracht, P. Shushkov, and S. Spicher.
   
 * started run on 2020/05/29 at 13:52:11.040     

           -------------------------------------------------
          |                Calculation Setup                |
           -------------------------------------------------

          program call               : /home/tom/.local/bin/xtb complex_conf2_opt_xtb0.xyz --chrg -1 --opt
          coordinate file            : complex_conf2_opt_xtb0.xyz
          omp threads                :                     1
          number of atoms            :                     6
          number of electrons        :                    22
          charge                     :                    -1
          spin                       :                   0.0
          first test random number   :      0.16139033004557

########################################################################
[WARNING] Please study the warnings concerning your input carefully
-2- prog_main: XTBPATH is not set, using XTBHOME instead
-1- prog_main: XTBHOME is not set, using HOME instead
########################################################################
           ------------------------------------------------- 
          |                 G F N 2 - x T B                 |
          | Geometry, Frequencies, Noncovalent interactions |
          |            JCTC 2019 parametrisation            |
           ------------------------------------------------- 
             k(s)              :                1.8500
             k(p)              :                2.2300
             k(d)              :                2.2300
             k(f)              :                2.0000
             kEN (H0ij)        :               -2.0000
             D4 a1             :                0.5200
             D4 a2             :                5.0000
             D4 s6             :                1.0000
             D4 s8             :                2.7000
             D4 s9             :                5.0000
             alphaj            :                2.0000

  Z AO/shell   Hii/eV     exponent
  1     Wed Apr 25 08:07:45 CEST 2018   EN: 2.200 GM2: 0.406  GM3: 0.0800  RAES: 1.40
     1s    -10.707211    1.230000
  6     Wed Apr 25 08:07:45 CEST 2018   EN: 2.550 GM2: 0.538  GM3: 0.1500  RAES: 3.00
     2s    -13.970922    2.096432
     2p    -10.063292    1.800000
  9     Mon Apr 23 13:58:50 CEST 2018   EN: 3.980 GM2: 0.532  GM3: 0.1426  RAES: 2.40
     2s    -23.458179    2.416361
     2p    -15.746583    2.308399
 17     Mon Apr 23 14:09:22 CEST 2018   EN: 3.160 GM2: 0.249  GM3: 0.1495  RAES: 2.50
     3s    -29.278781    2.485265
     3p    -12.673758    2.199650
     3d     -0.240338    2.476089

           ------------------------------------------------- 
          |        Self-Consistent Charge Iterations        |
           ------------------------------------------------- 

          ...................................................
          :                      SETUP                      :
          :.................................................:
          :  # basis functions                  21          :
          :  # atomic orbitals                  20          :
          :  # shells                           10          :
          :  # electrons                        22          :
          :  max. iterations                   250          :
          :  Hamiltonian                  GFN2-xTB          :
          :  restarted?                      false          :
          :  GBSA solvation                  false          :
          :  PC potential                    false          :
          :  electronic temp.          300.0000000     K    :
          :  accuracy                    1.0000000          :
          :  -> integral cutoff          0.2500000E+02      :
          :  -> integral neglect         0.1000000E-07      :
          :  -> SCF convergence          0.1000000E-05 Eh   :
          :  -> wf. convergence          0.1000000E-03 e    :
          :  Broyden damping             0.4000000          :
          ...................................................

 iter      E             dE          RMSdq      gap      omega  full diag
   1    -13.0294385 -0.130294E+02  0.617E+00   10.45       0.0  T
   2    -13.1553316 -0.125893E+00  0.285E+00   10.65       1.0  T
   3    -13.1562178 -0.886237E-03  0.171E+00    9.99       1.0  T
   4    -13.1565780 -0.360138E-03  0.198E-01    8.97       1.0  T
   5    -13.1566302 -0.521760E-04  0.138E-01    9.04       1.0  T
   6    -13.1566656 -0.354640E-04  0.556E-02    9.02       1.0  T
   7    -13.1566696 -0.393864E-05  0.201E-02    9.01       2.0  T
   8    -13.1566695  0.192165E-07  0.427E-03    9.00       9.5  T
   9    -13.1566696 -0.561191E-07  0.992E-04    9.00      41.2  T
  10    -13.1566696 -0.262300E-08  0.182E-04    9.00     224.4  T

   *** convergence criteria satisfied after 10 iterations ***

         #    Occupation            Energy/Eh            Energy/eV
      -------------------------------------------------------------
         1        2.0000           -0.7533521             -20.4998
       ...           ...                  ...                  ...
         5        2.0000           -0.3863065             -10.5119
         6        2.0000           -0.3672179              -9.9925
         7        2.0000           -0.2864085              -7.7936
         8        2.0000           -0.2848709              -7.7517
         9        2.0000           -0.1488000              -4.0491
        10        2.0000           -0.1483360              -4.0364
        11        2.0000           -0.1193761              -3.2484 (HOMO)
        12                          0.2115338               5.7561 (LUMO)
        13                          0.2464394               6.7060
        14                          0.3035728               8.2606
        15                          0.3095418               8.4231
        16                          0.3753666              10.2142
       ...                                ...                  ...
        20                          0.3940087              10.7215
      -------------------------------------------------------------
                  HL-Gap            0.3309099 Eh            9.0045 eV
             Fermi-level            0.0460788 Eh            1.2539 eV

 SCC (total)                   0 d,  0 h,  0 min,  0.003 sec
 SCC setup                      ...        0 min,  0.000 sec (  2.384%)
 Dispersion                     ...        0 min,  0.000 sec (  0.495%)
 integral evaluation            ...        0 min,  0.001 sec ( 26.502%)
 zeroth order Hamiltonian       ...        0 min,  0.000 sec (  0.697%)
 iterations                     ...        0 min,  0.001 sec ( 39.120%)
 molecular gradient             ...        0 min,  0.001 sec ( 27.740%)
 printout                       ...        0 min,  0.000 sec (  2.274%)

         :::::::::::::::::::::::::::::::::::::::::::::::::::::
         ::                     SUMMARY                     ::
         :::::::::::::::::::::::::::::::::::::::::::::::::::::
         :: total energy             -13.102269888074 Eh    ::
         :: gradient norm              0.195029573878 Eh/a0 ::
         :: HOMO-LUMO gap              9.004517096334 eV    ::
         ::.................................................::
         :: SCC energy               -13.156669595805 Eh    ::
         :: -> isotropic ES            0.185266806411 Eh    ::
         :: -> anisotropic ES         -0.000285190692 Eh    ::
         :: -> anisotropic XC         -0.007586905784 Eh    ::
         :: -> dispersion             -0.002074277177 Eh    ::
         :: repulsion energy           0.054399581845 Eh    ::
         :: add. restraining           0.000000000000 Eh    ::
         :::::::::::::::::::::::::::::::::::::::::::::::::::::

      ----------------------------------------------------------- 
     |                   =====================                   |
     |                        A N C O P T                        |
     |                   =====================                   |
     |               Approximate Normal Coordinate               |
     |                Rational Function Optimizer                |
      ----------------------------------------------------------- 

          ...................................................
          :                      SETUP                      :
          :.................................................:
          :   optimization level            normal          :
          :   max. optcycles                   200          :
          :   ANC micro-cycles                  20          :
          :   degrees of freedom                12          :
          :.................................................:
          :   RF solver                   davidson          :
          :   write xtbopt.log                true          :
          :   linear?                        false          :
          :   energy convergence         0.5000000E-05 Eh   :
          :   grad. convergence          0.1000000E-02 Eh/α :
          :   maximium RF displ.         1.0000000          :
          :   Hlow (freq-cutoff)         0.1000000E-01      :
          :   Hmax (freq-cutoff)         5.0000000          :
          :   S6 in model hess.         20.0000000          :
          ...................................................

generating ANC from model Hessian ...
Using Lindh-Hessian (1995)
 Shifting diagonal of input Hessian by   2.985180861187759E-003
 Lowest  eigenvalues of input Hessian
   -0.000000   -0.000000   -0.000000   -0.000000    0.000000    0.000000
    0.010000    0.017645    0.095003    0.104917    0.115580    0.140734
    0.158656    0.288378    0.483829    1.084557    1.093076    1.490064
 Highest eigenvalues
    0.158656    0.288378    0.483829    1.084557    1.093076    1.490064
 

........................................................................
.............................. CYCLE    1 ..............................
........................................................................
   1    -13.1566696 -0.131567E+02  0.114E-04    9.00       0.0  T
   2    -13.1566696 -0.322444E-10  0.676E-05    9.00     603.8  T
   3    -13.1566696 -0.322409E-11  0.534E-05    9.00     764.4  T
     SCC iter.                  ...        0 min,  0.000 sec
     gradient                   ...        0 min,  0.001 sec
 * total energy  :   -13.1022699 Eh     change        0.5972627E-09 Eh
   gradient norm :     0.1950296 Eh/α   predicted     0.0000000E+00 (-100.00%)
   displ. norm   :     0.4774503 α      lambda       -0.8401653E-01
   maximum displ.:     0.3658338 α      in ANC's #8, #9, #3, ...

........................................................................
.............................. CYCLE    2 ..............................
........................................................................
   1    -13.2073678 -0.132074E+02  0.833E-01   10.15       0.0  T
   2    -13.2076040 -0.236193E-03  0.556E-01   10.15       1.0  T
   3    -13.2077954 -0.191380E-03  0.217E-01   10.22       1.0  T
   4    -13.2078430 -0.476601E-04  0.148E-01   10.24       1.0  T
   5    -13.2078793 -0.362281E-04  0.606E-02   10.27       1.0  T
   6    -13.2078845 -0.523661E-05  0.453E-03   10.28       9.0  T
   7    -13.2078845 -0.262585E-08  0.137E-03   10.28      29.7  T
     SCC iter.                  ...        0 min,  0.001 sec
     gradient                   ...        0 min,  0.001 sec
 * total energy  :   -13.1495486 Eh     change       -0.4727869E-01 Eh
   gradient norm :     0.0508062 Eh/α   predicted    -0.5158443E-01 (   9.11%)
   displ. norm   :     0.2612758 α      lambda       -0.9193046E-02
   maximum displ.:     0.1638278 α      in ANC's #2, #8, #3, ...

........................................................................
.............................. CYCLE    3 ..............................
........................................................................
   1    -13.2154844 -0.132155E+02  0.334E-01   10.48       0.0  T
   2    -13.2154988 -0.143224E-04  0.211E-01   10.47       1.0  T
   3    -13.2155090 -0.102350E-04  0.462E-02   10.48       1.0  T
   4    -13.2155107 -0.168949E-05  0.341E-02   10.48       1.2  T
   5    -13.2155125 -0.184093E-05  0.152E-02   10.49       2.7  T
   6    -13.2155129 -0.382497E-06  0.207E-03   10.49      19.7  T
   7    -13.2155129 -0.882192E-09  0.298E-04   10.49     136.8  T
     SCC iter.                  ...        0 min,  0.001 sec
     gradient                   ...        0 min,  0.001 sec
 * total energy  :   -13.1570599 Eh     change       -0.7511336E-02 Eh
   gradient norm :     0.0322638 Eh/α   predicted    -0.4910302E-02 ( -34.63%)
   displ. norm   :     0.4856164 α      lambda       -0.1028383E-01
   maximum displ.:     0.3726740 α      in ANC's #2, #8, #3, ...

........................................................................
.............................. CYCLE    4 ..............................
........................................................................
   1    -13.2205438 -0.132205E+02  0.711E-01   10.26       0.0  T
   2    -13.2205886 -0.447955E-04  0.441E-01   10.27       1.0  T
   3    -13.2206117 -0.231276E-04  0.629E-02   10.31       1.0  T
   4    -13.2206146 -0.287777E-05  0.430E-02   10.30       1.0  T
   5    -13.2206169 -0.229298E-05  0.247E-02   10.30       1.7  T
   6    -13.2206180 -0.111909E-05  0.448E-03   10.31       9.1  T
   7    -13.2206180 -0.881714E-08  0.776E-04   10.31      52.6  T
     SCC iter.                  ...        0 min,  0.001 sec
     gradient                   ...        0 min,  0.001 sec
 * total energy  :   -13.1647787 Eh     change       -0.7718816E-02 Eh
   gradient norm :     0.0218751 Eh/α   predicted    -0.6354491E-02 ( -17.68%)
   displ. norm   :     0.4895598 α      lambda       -0.5951579E-02
   maximum displ.:     0.3992833 α      in ANC's #2, #8, #9, ...

........................................................................
.............................. CYCLE    5 ..............................
........................................................................
   1    -13.2230821 -0.132231E+02  0.732E-01    9.64       0.0  T
   2    -13.2231225 -0.404024E-04  0.451E-01    9.67       1.0  T
   3    -13.2231396 -0.171542E-04  0.509E-02    9.72       1.0  T
   4    -13.2231416 -0.197819E-05  0.274E-02    9.71       1.5  T
   5    -13.2231423 -0.731959E-06  0.179E-02    9.71       2.3  T
   6    -13.2231429 -0.586892E-06  0.445E-03    9.71       9.2  T
   7    -13.2231429 -0.152663E-07  0.891E-04    9.71      45.8  T
     SCC iter.                  ...        0 min,  0.000 sec
     gradient                   ...        0 min,  0.001 sec
 * total energy  :   -13.1693883 Eh     change       -0.4609617E-02 Eh
   gradient norm :     0.0251351 Eh/α   predicted    -0.3688984E-02 ( -19.97%)
   displ. norm   :     0.4706619 α      lambda       -0.4885240E-02
   maximum displ.:     0.3398812 α      in ANC's #2, #9, #8, ...

........................................................................
.............................. CYCLE    6 ..............................
........................................................................
   1    -13.2283581 -0.132284E+02  0.703E-01    9.32       0.0  T
   2    -13.2283910 -0.329063E-04  0.431E-01    9.35       1.0  T
   3    -13.2284046 -0.135902E-04  0.437E-02    9.40       1.0  T
   4    -13.2284061 -0.151790E-05  0.163E-02    9.39       2.5  T
   5    -13.2284063 -0.211883E-06  0.119E-02    9.39       3.4  T
   6    -13.2284065 -0.252014E-06  0.380E-03    9.39      10.8  T
   7    -13.2284066 -0.142215E-07  0.800E-04    9.39      51.0  T
     SCC iter.                  ...        0 min,  0.000 sec
     gradient                   ...        0 min,  0.001 sec
 * total energy  :   -13.1732488 Eh     change       -0.3860411E-02 Eh
   gradient norm :     0.0227174 Eh/α   predicted    -0.2983716E-02 ( -22.71%)
   displ. norm   :     0.5138908 α      lambda       -0.4033005E-02
   maximum displ.:     0.3462105 α      in ANC's #2, #9, #8, ...

........................................................................
.............................. CYCLE    7 ..............................
........................................................................
   1    -13.2318254 -0.132318E+02  0.680E-01    9.28       0.0  T
   2    -13.2318474 -0.220256E-04  0.418E-01    9.30       1.0  T
   3    -13.2318586 -0.111490E-04  0.347E-02    9.33       1.2  T
   4    -13.2318595 -0.903033E-06  0.139E-02    9.33       2.9  T
   5    -13.2318597 -0.203377E-06  0.843E-03    9.33       4.8  T
   6    -13.2318598 -0.123034E-06  0.340E-03    9.33      12.0  T
   7    -13.2318598 -0.124369E-07  0.339E-04    9.33     120.4  T
     SCC iter.                  ...        0 min,  0.000 sec
     gradient                   ...        0 min,  0.001 sec
 * total energy  :   -13.1764678 Eh     change       -0.3219023E-02 Eh
   gradient norm :     0.0206718 Eh/α   predicted    -0.2549029E-02 ( -20.81%)
   displ. norm   :     0.5064721 α      lambda       -0.3624697E-02
   maximum displ.:     0.2979335 α      in ANC's #9, #2, #8, ...

........................................................................
.............................. CYCLE    8 ..............................
........................................................................
   1    -13.2385351 -0.132385E+02  0.682E-01    9.53       0.0  T
   2    -13.2385547 -0.195461E-04  0.420E-01    9.55       1.0  T
   3    -13.2385655 -0.107998E-04  0.294E-02    9.57       1.4  T
   4    -13.2385660 -0.537302E-06  0.124E-02    9.56       3.3  T
   5    -13.2385661 -0.116965E-06  0.832E-03    9.56       4.9  T
   6    -13.2385663 -0.112204E-06  0.317E-03    9.56      12.9  T
   7    -13.2385663 -0.128223E-07  0.707E-04    9.57      57.8  T
     SCC iter.                  ...        0 min,  0.001 sec
     gradient                   ...        0 min,  0.001 sec
 * total energy  :   -13.1791968 Eh     change       -0.2728991E-02 Eh
   gradient norm :     0.0128148 Eh/α   predicted    -0.2277236E-02 ( -16.55%)
   displ. norm   :     0.7692531 α      lambda       -0.3501908E-02
   maximum displ.:     0.5117899 α      in ANC's #2, #9, #8, ...

........................................................................
.............................. CYCLE    9 ..............................
........................................................................
   1    -13.2274237 -0.132274E+02  0.965E-01    7.87       0.0  T
   2    -13.2274723 -0.485894E-04  0.592E-01    7.92       1.0  T
   3    -13.2274962 -0.238683E-04  0.451E-02    7.99       1.0  T
   4    -13.2274974 -0.126344E-05  0.171E-02    7.98       2.4  T
   5    -13.2274976 -0.192195E-06  0.112E-02    7.98       3.6  T
   6    -13.2274978 -0.173996E-06  0.479E-03    7.98       8.5  T
   7    -13.2274978 -0.331325E-07  0.159E-03    7.98      25.6  T
   8    -13.2274979 -0.335011E-08  0.191E-04    7.98     213.9  T
     SCC iter.                  ...        0 min,  0.001 sec
     gradient                   ...        0 min,  0.001 sec
 * total energy  :   -13.1792922 Eh     change       -0.9541895E-04 Eh
   gradient norm :     0.0436374 Eh/α   predicted    -0.2787069E-02 (2820.88%)
   displ. norm   :     0.1705439 α      lambda       -0.4351444E-02
   maximum displ.:     0.1578160 α      in ANC's #2, #8, #3, ...

........................................................................
.............................. CYCLE   10 ..............................
........................................................................
   1    -13.2382639 -0.132383E+02  0.250E-01    9.64       0.0  T
   2    -13.2382740 -0.101399E-04  0.148E-01    9.60       1.0  T
   3    -13.2382774 -0.339683E-05  0.212E-02    9.56       1.9  T
   4    -13.2382777 -0.264077E-06  0.576E-03    9.56       7.1  T
   5    -13.2382777 -0.196079E-07  0.406E-03    9.56      10.1  T
     SCC iter.                  ...        0 min,  0.000 sec
     gradient                   ...        0 min,  0.001 sec
 * total energy  :   -13.1817335 Eh     change       -0.2441310E-02 Eh
   gradient norm :     0.0115709 Eh/α   predicted    -0.2239002E-02 (  -8.29%)
   displ. norm   :     0.3009514 α      lambda       -0.1254870E-02
   maximum displ.:     0.2019252 α      in ANC's #9, #2, #8, ...

........................................................................
.............................. CYCLE   11 ..............................
........................................................................
   1    -13.2408910 -0.132409E+02  0.434E-01    9.42       0.0  T
   2    -13.2408984 -0.743787E-05  0.269E-01    9.43       1.0  T
   3    -13.2409027 -0.424377E-05  0.148E-02    9.44       2.7  T
   4    -13.2409028 -0.111150E-06  0.527E-03    9.44       7.7  T
   5    -13.2409028 -0.160445E-07  0.331E-03    9.43      12.3  T
   6    -13.2409028 -0.144986E-07  0.151E-03    9.44      27.0  T
   7    -13.2409028 -0.348808E-08  0.421E-04    9.44      97.0  T
     SCC iter.                  ...        0 min,  0.000 sec
     gradient                   ...        0 min,  0.001 sec
 * total energy  :   -13.1827625 Eh     change       -0.1028994E-02 Eh
   gradient norm :     0.0079202 Eh/α   predicted    -0.6842641E-03 ( -33.50%)
   displ. norm   :     0.6405302 α      lambda       -0.1989468E-02
   maximum displ.:     0.4057854 α      in ANC's #9, #2, #1, ...

........................................................................
.............................. CYCLE   12 ..............................
........................................................................
   1    -13.2372276 -0.132372E+02  0.839E-01    8.94       0.0  T
   2    -13.2372536 -0.260162E-04  0.519E-01    8.95       1.0  T
   3    -13.2372698 -0.161122E-04  0.260E-02    8.97       1.6  T
   4    -13.2372700 -0.215685E-06  0.108E-02    8.97       3.8  T
   5    -13.2372700 -0.605008E-07  0.554E-03    8.97       7.4  T
   6    -13.2372701 -0.397091E-07  0.275E-03    8.97      14.8  T
   7    -13.2372701 -0.118669E-07  0.843E-04    8.97      48.4  T
     SCC iter.                  ...        0 min,  0.001 sec
     gradient                   ...        0 min,  0.001 sec
 * total energy  :   -13.1837450 Eh     change       -0.9824994E-03 Eh
   gradient norm :     0.0214310 Eh/α   predicted    -0.1402857E-02 (  42.78%)
   displ. norm   :     0.1026201 α      lambda       -0.1056837E-02
   maximum displ.:     0.0642722 α      in ANC's #9, #1, #12, ...

........................................................................
.............................. CYCLE   13 ..............................
........................................................................
   1    -13.2401516 -0.132402E+02  0.168E-01    9.51       0.0  T
   2    -13.2401537 -0.207940E-05  0.105E-01    9.50       1.0  T
   3    -13.2401545 -0.817806E-06  0.903E-03    9.49       4.5  T
   4    -13.2401546 -0.615716E-07  0.245E-03    9.49      16.6  T
   5    -13.2401546 -0.353852E-08  0.161E-03    9.49      25.4  T
     SCC iter.                  ...        0 min,  0.000 sec
     gradient                   ...        0 min,  0.001 sec
 * total energy  :   -13.1844331 Eh     change       -0.6881421E-03 Eh
   gradient norm :     0.0099870 Eh/α   predicted    -0.5339816E-03 ( -22.40%)
   displ. norm   :     0.2728836 α      lambda       -0.1058753E-02
   maximum displ.:     0.1979487 α      in ANC's #9, #1, #12, ...

........................................................................
.............................. CYCLE   14 ..............................
........................................................................
   1    -13.2444121 -0.132444E+02  0.437E-01    9.62       0.0  T
   2    -13.2444194 -0.725148E-05  0.270E-01    9.63       1.0  T
   3    -13.2444235 -0.409299E-05  0.138E-02    9.63       3.0  T
   4    -13.2444235 -0.652376E-07  0.575E-03    9.63       7.1  T
   5    -13.2444236 -0.116315E-07  0.227E-03    9.63      18.0  T
   6    -13.2444236 -0.495380E-08  0.102E-03    9.63      39.9  T
     SCC iter.                  ...        0 min,  0.000 sec
     gradient                   ...        0 min,  0.001 sec
 * total energy  :   -13.1851033 Eh     change       -0.6702006E-03 Eh
   gradient norm :     0.0071616 Eh/α   predicted    -0.5687962E-03 ( -15.13%)
   displ. norm   :     0.6375429 α      lambda       -0.1378008E-02
   maximum displ.:     0.4546487 α      in ANC's #9, #2, #12, ...

........................................................................
.............................. CYCLE   15 ..............................
........................................................................
   1    -13.2374454 -0.132374E+02  0.951E-01    8.03       0.0  T
   2    -13.2374833 -0.379090E-04  0.589E-01    8.06       1.0  T
   3    -13.2375034 -0.201082E-04  0.327E-02    8.12       1.2  T
   4    -13.2375041 -0.603776E-06  0.976E-03    8.11       4.2  T
   5    -13.2375041 -0.316449E-07  0.558E-03    8.11       7.3  T
   6    -13.2375041 -0.257623E-07  0.233E-03    8.11      17.6  T
   7    -13.2375041 -0.779838E-08  0.111E-03    8.11      36.9  T
     SCC iter.                  ...        0 min,  0.000 sec
     gradient                   ...        0 min,  0.001 sec
 * total energy  :   -13.1849721 Eh     change        0.1312196E-03 Eh
   gradient norm :     0.0261454 Eh/α   predicted    -0.9690553E-03 (-838.50%)
   displ. norm   :     0.2359720 α      lambda       -0.2227537E-02
   maximum displ.:     0.1570236 α      in ANC's #9, #8, #2, ...

........................................................................
.............................. CYCLE   16 ..............................
........................................................................
   1    -13.2436568 -0.132437E+02  0.367E-01    9.79       0.0  T
   2    -13.2436687 -0.119331E-04  0.224E-01    9.74       1.0  T
   3    -13.2436728 -0.411127E-05  0.221E-02    9.70       1.8  T
   4    -13.2436731 -0.333629E-06  0.438E-03    9.70       9.3  T
   5    -13.2436731 -0.759446E-08  0.251E-03    9.71      16.3  T
     SCC iter.                  ...        0 min,  0.000 sec
     gradient                   ...        0 min,  0.001 sec
 * total energy  :   -13.1860151 Eh     change       -0.1043014E-02 Eh
   gradient norm :     0.0096374 Eh/α   predicted    -0.1175789E-02 (  12.73%)
   displ. norm   :     0.1614167 α      lambda       -0.5057610E-03
   maximum displ.:     0.0998353 α      in ANC's #9, #2, #6, ...

........................................................................
.............................. CYCLE   17 ..............................
........................................................................
   1    -13.2446835 -0.132447E+02  0.232E-01    9.59       0.0  T
   2    -13.2446860 -0.251457E-05  0.143E-01    9.60       1.0  T
   3    -13.2446872 -0.121046E-05  0.932E-03    9.61       4.4  T
   4    -13.2446872 -0.473136E-07  0.248E-03    9.61      16.5  T
   5    -13.2446873 -0.244717E-08  0.135E-03    9.61      30.3  T
     SCC iter.                  ...        0 min,  0.000 sec
     gradient                   ...        0 min,  0.001 sec
 * total energy  :   -13.1864571 Eh     change       -0.4419251E-03 Eh
   gradient norm :     0.0063290 Eh/α   predicted    -0.2594692E-03 ( -41.29%)
   displ. norm   :     0.7186319 α      lambda       -0.1878441E-02
   maximum displ.:     0.4315901 α      in ANC's #9, #2, #6, ...

........................................................................
.............................. CYCLE   18 ..............................
........................................................................
   1    -13.2422579 -0.132423E+02  0.102E+00    8.64       0.0  T
   2    -13.2422988 -0.408621E-04  0.633E-01    8.67       1.0  T
   3    -13.2423195 -0.206896E-04  0.367E-02    8.73       1.1  T
   4    -13.2423202 -0.736471E-06  0.132E-02    8.72       3.1  T
   5    -13.2423203 -0.805521E-07  0.694E-03    8.71       5.9  T
   6    -13.2423203 -0.498799E-07  0.298E-03    8.72      13.7  T
   7    -13.2423203 -0.132468E-07  0.127E-03    8.72      32.1  T
     SCC iter.                  ...        0 min,  0.000 sec
     gradient                   ...        0 min,  0.001 sec
 * total energy  :   -13.1876483 Eh     change       -0.1191205E-02 Eh
   gradient norm :     0.0172295 Eh/α   predicted    -0.1424300E-02 (  19.57%)
   displ. norm   :     0.2841045 α      lambda       -0.1494140E-02
   maximum displ.:     0.1864508 α      in ANC's #8, #3, #2, ...

........................................................................
.............................. CYCLE   19 ..............................
........................................................................
   1    -13.2478519 -0.132479E+02  0.161E-01    9.13       0.0  T
   2    -13.2478533 -0.142489E-05  0.998E-02    9.13       1.0  T
   3    -13.2478539 -0.590482E-06  0.912E-03    9.14       4.5  T
   4    -13.2478540 -0.507877E-07  0.284E-03    9.13      14.4  T
   5    -13.2478540 -0.549687E-08  0.200E-03    9.13      20.4  T
     SCC iter.                  ...        0 min,  0.000 sec
     gradient                   ...        0 min,  0.001 sec
 * total energy  :   -13.1887972 Eh     change       -0.1148912E-02 Eh
   gradient norm :     0.0112978 Eh/α   predicted    -0.8073701E-03 ( -29.73%)
   displ. norm   :     0.7000333 α      lambda       -0.2051225E-02
   maximum displ.:     0.3967638 α      in ANC's #8, #3, #2, ...

........................................................................
.............................. CYCLE   20 ..............................
........................................................................
   1    -13.2481447 -0.132481E+02  0.622E-01    9.70       0.0  T
   2    -13.2481617 -0.169553E-04  0.383E-01    9.69       1.0  T
   3    -13.2481677 -0.603020E-05  0.232E-02    9.71       1.8  T
   4    -13.2481680 -0.275946E-06  0.138E-02    9.71       3.0  T
   5    -13.2481681 -0.140908E-06  0.597E-03    9.71       6.8  T
   6    -13.2481682 -0.587364E-07  0.226E-03    9.71      18.1  T
   7    -13.2481682 -0.686165E-08  0.508E-04    9.71      80.3  T
     SCC iter.                  ...        0 min,  0.000 sec
     gradient                   ...        0 min,  0.001 sec
 * total energy  :   -13.1903917 Eh     change       -0.1594499E-02 Eh
   gradient norm :     0.0109313 Eh/α   predicted    -0.1528202E-02 (  -4.16%)
   displ. norm   :     0.5870613 α      lambda       -0.1333433E-02
   maximum displ.:     0.3492894 α      in ANC's #8, #3, #2, ...
 * RMSD in coord.:     2.4250491 α      energy gain  -0.8812179E-01 Eh

generating ANC from model Hessian ...
Using Lindh-Hessian (1995)
 Shifting diagonal of input Hessian by   1.376918748949197E-002
 Lowest  eigenvalues of input Hessian
    0.010000   -0.000000   -0.000000   -0.000000    0.000000    0.000000
    0.000000    0.014804    0.015126    0.124338    0.126081    0.152512
    0.155201    0.174155    0.469669    1.131107    1.165316    1.444873
 Highest eigenvalues
    0.155201    0.174155    0.469669    1.131107    1.165316    1.444873
 

........................................................................
.............................. CYCLE   21 ..............................
........................................................................
   1    -13.2491593 -0.132492E+02  0.404E-01   10.00       0.0  T
   2    -13.2491707 -0.114088E-04  0.248E-01   10.01       1.0  T
   3    -13.2491741 -0.340103E-05  0.243E-02   10.04       1.7  T
   4    -13.2491744 -0.320882E-06  0.135E-02   10.03       3.0  T
   5    -13.2491746 -0.161967E-06  0.714E-03   10.03       5.7  T
   6    -13.2491747 -0.919836E-07  0.187E-03   10.03      21.8  T
   7    -13.2491747 -0.344952E-08  0.338E-04   10.03     120.8  T
   8    -13.2491747 -0.524274E-10  0.854E-05   10.03     478.1  T
     SCC iter.                  ...        0 min,  0.001 sec
     gradient                   ...        0 min,  0.001 sec
 * total energy  :   -13.1911365 Eh     change       -0.7448599E-03 Eh
   gradient norm :     0.0086433 Eh/α   predicted     0.0000000E+00 (-100.00%)
   displ. norm   :     0.0610574 α      lambda       -0.3497193E-03
   maximum displ.:     0.0316440 α      in ANC's #2, #8, #3, ...

........................................................................
.............................. CYCLE   22 ..............................
........................................................................
   1    -13.2500696 -0.132501E+02  0.102E-01    9.97       0.0  T
   2    -13.2500705 -0.889437E-06  0.621E-02    9.97       1.0  T
   3    -13.2500707 -0.195821E-06  0.606E-03    9.97       6.7  T
   4    -13.2500707 -0.182572E-07  0.318E-03    9.97      12.8  T
   5    -13.2500707 -0.886795E-08  0.152E-03    9.97      26.8  T
   6    -13.2500707 -0.400627E-08  0.484E-04    9.97      84.3  T
     SCC iter.                  ...        0 min,  0.000 sec
     gradient                   ...        0 min,  0.001 sec
 * total energy  :   -13.1913574 Eh     change       -0.2209161E-03 Eh
   gradient norm :     0.0030391 Eh/α   predicted    -0.1755127E-03 ( -20.55%)
   displ. norm   :     0.0628604 α      lambda       -0.6942971E-04
   maximum displ.:     0.0533135 α      in ANC's #2, #3, #8, ...

........................................................................
.............................. CYCLE   23 ..............................
........................................................................
   1    -13.2502296 -0.132502E+02  0.816E-02    9.99       0.0  T
   2    -13.2502299 -0.317713E-06  0.500E-02    9.99       1.0  T
   3    -13.2502301 -0.135467E-06  0.329E-03    9.99      12.4  T
   4    -13.2502301 -0.433283E-08  0.163E-03    9.99      25.0  T
   5    -13.2502301 -0.127365E-08  0.551E-04    9.99      74.0  T
   6    -13.2502301 -0.357488E-09  0.244E-04    9.99     167.3  T
     SCC iter.                  ...        0 min,  0.000 sec
     gradient                   ...        0 min,  0.001 sec
 * total energy  :   -13.1914063 Eh     change       -0.4882954E-04 Eh
   gradient norm :     0.0014150 Eh/α   predicted    -0.3485136E-04 ( -28.63%)
   displ. norm   :     0.1478223 α      lambda       -0.5401431E-04
   maximum displ.:     0.1286491 α      in ANC's #2, #3, #1, ...

........................................................................
.............................. CYCLE   24 ..............................
........................................................................
   1    -13.2500430 -0.132500E+02  0.177E-01   10.02       0.0  T
   2    -13.2500441 -0.108208E-05  0.108E-01   10.02       1.0  T
   3    -13.2500447 -0.580095E-06  0.599E-03   10.02       6.8  T
   4    -13.2500447 -0.130407E-07  0.180E-03   10.02      22.7  T
   5    -13.2500447 -0.127432E-08  0.899E-04   10.02      45.4  T
   6    -13.2500447 -0.823620E-09  0.406E-04   10.02     100.6  T
     SCC iter.                  ...        0 min,  0.000 sec
     gradient                   ...        0 min,  0.001 sec
 * total energy  :   -13.1914571 Eh     change       -0.5085007E-04 Eh
   gradient norm :     0.0034757 Eh/α   predicted    -0.2726879E-04 ( -46.37%)
   displ. norm   :     0.0517582 α      lambda       -0.3154341E-04
   maximum displ.:     0.0411435 α      in ANC's #2, #3, #1, ...

........................................................................
.............................. CYCLE   25 ..............................
........................................................................
   1    -13.2500824 -0.132501E+02  0.633E-02   10.05       0.0  T
   2    -13.2500825 -0.122660E-06  0.387E-02   10.05       1.1  T
   3    -13.2500825 -0.650172E-07  0.222E-03   10.05      18.4  T
   4    -13.2500825 -0.215169E-08  0.671E-04   10.05      60.8  T
   5    -13.2500825 -0.268548E-09  0.446E-04   10.05      91.5  T
     SCC iter.                  ...        0 min,  0.000 sec
     gradient                   ...        0 min,  0.001 sec
 * total energy  :   -13.1914844 Eh     change       -0.2731536E-04 Eh
   gradient norm :     0.0024885 Eh/α   predicted    -0.1581386E-04 ( -42.11%)
   displ. norm   :     0.1115995 α      lambda       -0.5039146E-04
   maximum displ.:     0.0833742 α      in ANC's #2, #3, #1, ...

........................................................................
.............................. CYCLE   26 ..............................
........................................................................
   1    -13.2501028 -0.132501E+02  0.141E-01   10.06       0.0  T
   2    -13.2501034 -0.598941E-06  0.866E-02   10.06       1.0  T
   3    -13.2501037 -0.316397E-06  0.485E-03   10.06       8.4  T
   4    -13.2501037 -0.982239E-08  0.121E-03   10.06      33.7  T
   5    -13.2501038 -0.877112E-09  0.775E-04   10.06      52.7  T
   6    -13.2501038 -0.785265E-09  0.362E-04   10.06     112.7  T
     SCC iter.                  ...        0 min,  0.000 sec
     gradient                   ...        0 min,  0.001 sec
 * total energy  :   -13.1915174 Eh     change       -0.3298685E-04 Eh
   gradient norm :     0.0007790 Eh/α   predicted    -0.2550829E-04 ( -22.67%)
   displ. norm   :     0.1005953 α      lambda       -0.1043672E-04
   maximum displ.:     0.0718635 α      in ANC's #2, #3, #1, ...

........................................................................
.............................. CYCLE   27 ..............................
........................................................................
   1    -13.2500931 -0.132501E+02  0.127E-01   10.04       0.0  T
   2    -13.2500936 -0.492074E-06  0.781E-02   10.04       1.0  T
   3    -13.2500938 -0.257631E-06  0.421E-03   10.04       9.7  T
   4    -13.2500938 -0.633839E-08  0.160E-03   10.04      25.5  T
   5    -13.2500938 -0.117054E-08  0.720E-04   10.04      56.7  T
   6    -13.2500938 -0.601672E-09  0.317E-04   10.04     128.6  T
     SCC iter.                  ...        0 min,  0.000 sec
     gradient                   ...        0 min,  0.001 sec
 * total energy  :   -13.1915245 Eh     change       -0.7106654E-05 Eh
   gradient norm :     0.0011513 Eh/α   predicted    -0.5243074E-05 ( -26.22%)
   displ. norm   :     0.0066717 α      lambda       -0.2212236E-05
   maximum displ.:     0.0041229 α      in ANC's #3, #1, #2, ...

........................................................................
.............................. CYCLE   28 ..............................
........................................................................
   1    -13.2503486 -0.132503E+02  0.950E-03   10.05       0.0  T
   2    -13.2503487 -0.167823E-07  0.565E-03   10.06       7.2  T
   3    -13.2503487 -0.191956E-08  0.941E-04   10.05      43.4  T
   4    -13.2503487 -0.232065E-09  0.349E-04   10.05     116.8  T
     SCC iter.                  ...        0 min,  0.000 sec
     gradient                   ...        0 min,  0.001 sec
 * total energy  :   -13.1915265 Eh     change       -0.1951766E-05 Eh
   gradient norm :     0.0003706 Eh/α   predicted    -0.1106855E-05 ( -43.29%)
   displ. norm   :     0.0145298 α      lambda       -0.7190843E-06
   maximum displ.:     0.0131320 α      in ANC's #3, #1, #2, ...

   *** GEOMETRY OPTIMIZATION CONVERGED AFTER 28 ITERATIONS ***

------------------------------------------------------------------------
 total energy gain   :        -0.0892566 Eh      -56.0094 kcal/mol
 total RMSD          :         2.4746445 a0        1.3095 Å
 total power (kW/mol):        -8.3693991 (step)-4443.1178 (real)
------------------------------------------------------------------------

 ANCopt (total)                0 d,  0 h,  0 min,  0.053 sec
 optimizer setup                ...        0 min,  0.000 sec (  0.101%)
 model hessian                  ...        0 min,  0.000 sec (  0.303%)
 ANC generation                 ...        0 min,  0.000 sec (  0.290%)
 coordinate transformation      ...        0 min,  0.000 sec (  0.227%)
 single point calculation       ...        0 min,  0.050 sec ( 94.912%)
 optimization log               ...        0 min,  0.001 sec (  1.194%)
 hessian update                 ...        0 min,  0.000 sec (  0.169%)
 rational function              ...        0 min,  0.001 sec (  1.379%)

================
 final structure:
================
6
 xtb: 6.2.3 (830e466)
C        -0.04282596160694   -0.16227926602920   -0.14023197083178
F        -0.77987223608758   -1.29035638331207    0.15935415218749
H        -0.67345393254523    0.50436369289937   -0.72584973871349
H         0.24623878423946    0.30812180237173    0.79763200565750
H         0.84274216702894   -0.43606527824094   -0.71050274260114
Cl        2.59920117897134    1.07621543231107   -1.57243170569860
 
 Bond Distances (Angstroems)
 ---------------------------
C1-F2=1.3804         C1-H3=1.0886         C1-H4=1.0883         C1-H5=1.0883         F2-C1=1.3804         H3-C1=1.0886         
H4-C1=1.0883         H5-C1=1.0883         
 C  H  Rav=1.0884 sigma=0.0001  Rmin=1.0883  Rmax=1.0886     3
 F  C  Rav=1.3804 sigma=0.0000  Rmin=1.3804  Rmax=1.3804     1
 
 selected bond angles (degree)
 --------------------
H3-C1-F2=107.93                H4-C1-F2=107.94                H4-C1-H3=110.66                H5-C1-F2=110.04                
H5-C1-H3=110.09                H5-C1-H4=110.13                
 
 selected dihedral angles (degree)
 ---------------------------------

           -------------------------------------------------
          |                Final Singlepoint                |
           -------------------------------------------------

          ...................................................
          :                      SETUP                      :
          :.................................................:
          :  # basis functions                  21          :
          :  # atomic orbitals                  20          :
          :  # shells                           10          :
          :  # electrons                        22          :
          :  max. iterations                   250          :
          :  Hamiltonian                  GFN2-xTB          :
          :  restarted?                      false          :
          :  GBSA solvation                  false          :
          :  PC potential                    false          :
          :  electronic temp.          300.0000000     K    :
          :  accuracy                    1.0000000          :
          :  -> integral cutoff          0.2500000E+02      :
          :  -> integral neglect         0.1000000E-07      :
          :  -> SCF convergence          0.1000000E-05 Eh   :
          :  -> wf. convergence          0.1000000E-03 e    :
          :  Broyden damping             0.4000000          :
          ...................................................

 iter      E             dE          RMSdq      gap      omega  full diag
   1    -13.2503487 -0.132503E+02  0.149E-04   10.05       0.0  T
   2    -13.2503487 -0.125979E-10  0.119E-04   10.06     343.9  T
   3    -13.2503487 -0.241407E-10  0.399E-05   10.06    1023.2  T

   *** convergence criteria satisfied after 3 iterations ***

         #    Occupation            Energy/Eh            Energy/eV
      -------------------------------------------------------------
         1        2.0000           -0.7811777             -21.2569
       ...           ...                  ...                  ...
         5        2.0000           -0.4005314             -10.8990
         6        2.0000           -0.3934832             -10.7072
         7        2.0000           -0.3225755              -8.7777
         8        2.0000           -0.3157657              -8.5924
         9        2.0000           -0.1840839              -5.0092
        10        2.0000           -0.1833225              -4.9885
        11        2.0000           -0.1832563              -4.9867 (HOMO)
        12                          0.1862590               5.0684 (LUMO)
        13                          0.2805889               7.6352
        14                          0.3331741               9.0661
        15                          0.3402552               9.2588
        16                          0.3457855               9.4093
       ...                                ...                  ...
        20                          0.3770264              10.2594
      -------------------------------------------------------------
                  HL-Gap            0.3695153 Eh           10.0550 eV
             Fermi-level            0.0015013 Eh            0.0409 eV

 SCC (total)                   0 d,  0 h,  0 min,  0.002 sec
 SCC setup                      ...        0 min,  0.000 sec (  3.124%)
 Dispersion                     ...        0 min,  0.000 sec (  0.420%)
 integral evaluation            ...        0 min,  0.001 sec ( 38.129%)
 zeroth order Hamiltonian       ...        0 min,  0.000 sec (  1.527%)
 iterations                     ...        0 min,  0.000 sec ( 15.632%)
 molecular gradient             ...        0 min,  0.001 sec ( 37.246%)
 printout                       ...        0 min,  0.000 sec (  2.830%)

         :::::::::::::::::::::::::::::::::::::::::::::::::::::
         ::                     SUMMARY                     ::
         :::::::::::::::::::::::::::::::::::::::::::::::::::::
         :: total energy             -13.191526488864 Eh    ::
         :: gradient norm              0.000371822519 Eh/a0 ::
         :: HOMO-LUMO gap             10.055022768732 eV    ::
         ::.................................................::
         :: SCC energy               -13.250348653850 Eh    ::
         :: -> isotropic ES            0.164503738057 Eh    ::
         :: -> anisotropic ES         -0.001259265832 Eh    ::
         :: -> anisotropic XC         -0.001801459089 Eh    ::
         :: -> dispersion             -0.001784009896 Eh    ::
         :: repulsion energy           0.058822142551 Eh    ::
         :: add. restraining           0.000000000000 Eh    ::
         :::::::::::::::::::::::::::::::::::::::::::::::::::::

           -------------------------------------------------
          |                Property Printout                |
           -------------------------------------------------

    * Orbital Energies and Occupations

         #    Occupation            Energy/Eh            Energy/eV
      -------------------------------------------------------------
         1        2.0000           -0.7811777             -21.2569
         2        2.0000           -0.6767779             -18.4161
         3        2.0000           -0.4732290             -12.8772
         4        2.0000           -0.4024507             -10.9512
         5        2.0000           -0.4005314             -10.8990
         6        2.0000           -0.3934832             -10.7072
         7        2.0000           -0.3225755              -8.7777
         8        2.0000           -0.3157657              -8.5924
         9        2.0000           -0.1840839              -5.0092
        10        2.0000           -0.1833225              -4.9885
        11        2.0000           -0.1832563              -4.9867 (HOMO)
        12                          0.1862590               5.0684 (LUMO)
        13                          0.2805889               7.6352
        14                          0.3331741               9.0661
        15                          0.3402552               9.2588
        16                          0.3457855               9.4093
        17                          0.3459248               9.4131
        18                          0.3466580               9.4330
        19                          0.3467187               9.4347
        20                          0.3770264              10.2594
      -------------------------------------------------------------
                  HL-Gap            0.3695153 Eh           10.0550 eV
             Fermi-level            0.0015013 Eh            0.0409 eV

     #   Z        covCN         q      C6AA      α(0)
     1   6 C      3.557     0.067    20.347     6.583
     2   9 F      0.783    -0.284    12.143     4.116
     3   1 H      0.925     0.049     2.333     2.388
     4   1 H      0.925     0.049     2.331     2.388
     5   1 H      0.925     0.111     1.691     2.034
     6  17 Cl     0.000    -0.991   126.647    17.127

 Mol. C6AA /au·bohr⁶  :        552.191875
 Mol. C8AA /au·bohr⁸  :      15890.994769
 Mol. α(0) /au        :         34.636420


Wiberg/Mayer (AO) data.
largest (>0.10) Wiberg bond orders for each atom
          total WBO             WBO to atom ...
     1  C   3.867        H    4 0.984    H    3 0.984    H    5 0.965    F    2 0.927
     2  F   0.968        C    1 0.927
     3  H   0.998        C    1 0.984
     4  H   0.998        C    1 0.984
     5  H   0.988        C    1 0.965
     6  Cl  0.017

molecular dipole:
                 x           y           z       tot (Debye)
 q only:       -4.318      -1.359       2.700
   full:       -4.223      -1.188       2.665      13.048
molecular quadrupole (traceless):
                xx          xy          yy          xz          yz          zz
 q only:      -17.150     -16.668      10.617      21.715       9.458       6.533
  q+dip:      -16.755     -17.503       9.521      21.738       9.665       7.234
   full:      -16.832     -17.022       9.897      21.649       9.465       6.935

           -------------------------------------------------
          |                Geometry Summary                 |
           -------------------------------------------------

      molecular mass/u    :       69.4858989
   center of mass at/Å    :        1.1115557       0.1737130      -0.7922173
  moments of inertia/u·Å² :        0.6379738E+01   0.2796152E+03   0.2827641E+03
rotational constants/cm⁻¹ :        0.2642371E+01   0.6028869E-01   0.5961730E-01

 * 4 selected distances

     #   Z        #   Z                                     value/Å
     1   6 C      2   9 F                                 1.3804155 (max)
     1   6 C      3   1 H                                 1.0886012
     1   6 C      4   1 H                                 1.0883127
     1   6 C      5   1 H                                 1.0883007 (min)

 * 2 distinct bonds (by element types)

   Z      Z             #   av. dist./Å        max./Å        min./Å
   1 H    6 C           3     1.0884049     1.0886012     1.0883007
   6 C    9 F           1     1.3804155     1.3804155     1.3804155


optimized geometry written to: xtbopt.xyz


           -------------------------------------------------
          | TOTAL ENERGY              -13.191526488864 Eh   |
          | GRADIENT NORM               0.000371822519 Eh/α |
          | HOMO-LUMO GAP              10.055022768732 eV   |
           -------------------------------------------------

------------------------------------------------------------------------
 * finished run on 2020/05/29 at 13:52:11.105     
------------------------------------------------------------------------
 total:
 * wall-time:     0 d,  0 h,  0 min,  0.064 sec
 *  cpu-time:     0 d,  0 h,  0 min,  0.064 sec
 * ratio c/w:     0.999 speedup
 SCF:
 * wall-time:     0 d,  0 h,  0 min,  0.003 sec
 *  cpu-time:     0 d,  0 h,  0 min,  0.003 sec
 * ratio c/w:     1.000 speedup
 ANC optimizer:
 * wall-time:     0 d,  0 h,  0 min,  0.055 sec
 *  cpu-time:     0 d,  0 h,  0 min,  0.055 sec
 * ratio c/w:     1.000 speedup

