      -----------------------------------------------------------      
     |                   =====================                   |     
     |                           x T B                           |     
     |                   =====================                   |     
     |                         S. Grimme                         |     
     |          Mulliken Center for Theoretical Chemistry        |     
     |                    University of Bonn                     |     
      -----------------------------------------------------------      

   * xtb version 6.2.3 (830e466) compiled by 'ehlert@majestix' on 2020-03-16

   xtb is free software: you can redistribute it and/or modify it under
   the terms of the GNU Lesser General Public License as published by
   the Free Software Foundation, either version 3 of the License, or
   (at your option) any later version.
   
   xtb is distributed in the hope that it will be useful,
   but WITHOUT ANY WARRANTY; without even the implied warranty of
   MERCHANTABILITY or FITNESS FOR A PARTICULAR PURPOSE.  See the
   GNU Lesser General Public License for more details.
   
   Cite this work as:
   * S. Grimme, C. Bannwarth, P. Shushkov, J. Chem. Theory Comput., 2017,
     13, 1989-2009. DOI: 10.1021/acs.jctc.7b00118
   * C. Bannwarth, S. Ehlert and S. Grimme., J. Chem. Theory Comput., 2019,
     15, 1652-1671. DOI: 10.1021/acs.jctc.8b01176
   * P. Pracht, E. Caldeweyher, S. Ehlert, S. Grimme, ChemRxiv, 2019, preprint.
     DOI: 10.26434/chemrxiv.8326202.v1
   
   for DFT-D4:
   * E. Caldeweyher, C. Bannwarth and S. Grimme, J. Chem. Phys., 2017,
     147, 034112. DOI: 10.1063/1.4993215
   * E. Caldeweyher, S. Ehlert, A. Hansen, H. Neugebauer, S. Spicher,
     C. Bannwarth and S. Grimme, J. Chem. Phys., 2019, 150, 154122.
     DOI: 10.1063/1.5090222
   
   for sTDA-xTB:
   * S. Grimme and C. Bannwarth, J. Chem. Phys., 2016, 145, 054103.
     DOI: 10.1063/1.4959605
   
   in the mass-spec context:
   * V. Asgeirsson, C. Bauer and S. Grimme, Chem. Sci., 2017, 8, 4879.
     DOI: 10.1039/c7sc00601b
   
   for metadynamics refer to:
   * S. Grimme, J. Chem. Theory Comput., 2019, 155, 2847-2862
     DOI: 10.1021/acs.jctc.9b00143
   
   with help from (in alphabetical order)
   C. Bannwarth, F. Bohle, G. Brandenburg, E. Caldeweyher, M. Checinski,
   S. Dohm, S. Ehlert, S. Ehrlich, F. März, H. Neugebauer, J. Pisarek,
   P. Pracht, P. Shushkov, and S. Spicher.
   
 * started run on 2020/05/13 at 13:04:54.226     

           -------------------------------------------------
          |                Calculation Setup                |
           -------------------------------------------------

          program call               : /home/tom/.local/bin/xtb complex_conf0_opt_xtb.xyz --chrg -1 --opt
          coordinate file            : complex_conf0_opt_xtb.xyz
          omp threads                :                     4
          number of atoms            :                     6
          number of electrons        :                    22
          charge                     :                    -1
          spin                       :                   0.0
          first test random number   :      0.04536542056876


molecular fragmentation (1/2 indicates fragments):
122222
# atoms in fragment 1/2:     1     5
 fragment masses (1/2) :       19.00       50.49
CMA distance (Bohr)    :   6.097
constraining FC (au)   :  0.0500
########################################################################
[WARNING] Please study the warnings concerning your input carefully
-2- prog_main: XTBPATH is not set, using XTBHOME instead
-1- prog_main: XTBHOME is not set, using HOME instead
########################################################################
           ------------------------------------------------- 
          |                 G F N 2 - x T B                 |
          | Geometry, Frequencies, Noncovalent interactions |
          |            JCTC 2019 parametrisation            |
           ------------------------------------------------- 
             k(s)              :                1.8500
             k(p)              :                2.2300
             k(d)              :                2.2300
             k(f)              :                2.0000
             kEN (H0ij)        :               -2.0000
             D4 a1             :                0.5200
             D4 a2             :                5.0000
             D4 s6             :                1.0000
             D4 s8             :                2.7000
             D4 s9             :                5.0000
             alphaj            :                2.0000

  Z AO/shell   Hii/eV     exponent
  1     Wed Apr 25 08:07:45 CEST 2018   EN: 2.200 GM2: 0.406  GM3: 0.0800  RAES: 1.40
     1s    -10.707211    1.230000
  6     Wed Apr 25 08:07:45 CEST 2018   EN: 2.550 GM2: 0.538  GM3: 0.1500  RAES: 3.00
     2s    -13.970922    2.096432
     2p    -10.063292    1.800000
  9     Mon Apr 23 13:58:50 CEST 2018   EN: 3.980 GM2: 0.532  GM3: 0.1426  RAES: 2.40
     2s    -23.458179    2.416361
     2p    -15.746583    2.308399
 17     Mon Apr 23 14:09:22 CEST 2018   EN: 3.160 GM2: 0.249  GM3: 0.1495  RAES: 2.50
     3s    -29.278781    2.485265
     3p    -12.673758    2.199650
     3d     -0.240338    2.476089

           ------------------------------------------------- 
          |        Self-Consistent Charge Iterations        |
           ------------------------------------------------- 

          ...................................................
          :                      SETUP                      :
          :.................................................:
          :  # basis functions                  21          :
          :  # atomic orbitals                  20          :
          :  # shells                           10          :
          :  # electrons                        22          :
          :  max. iterations                   250          :
          :  Hamiltonian                  GFN2-xTB          :
          :  restarted?                      false          :
          :  GBSA solvation                  false          :
          :  PC potential                    false          :
          :  electronic temp.          300.0000000     K    :
          :  accuracy                    1.0000000          :
          :  -> integral cutoff          0.2500000E+02      :
          :  -> integral neglect         0.1000000E-07      :
          :  -> SCF convergence          0.1000000E-05 Eh   :
          :  -> wf. convergence          0.1000000E-03 e    :
          :  Broyden damping             0.4000000          :
          ...................................................

 iter      E             dE          RMSdq      gap      omega  full diag
   1    -13.1203368 -0.131203E+02  0.537E+00    5.37       0.0  T
   2    -13.1822354 -0.618985E-01  0.293E+00    2.86       1.0  T
   3    -13.1839377 -0.170229E-02  0.164E+00    2.25       1.0  T
   4    -13.1846772 -0.739548E-03  0.431E-01    1.31       1.0  T
   5    -13.1849339 -0.256646E-03  0.262E-01    1.44       1.0  T
   6    -13.1850721 -0.138272E-03  0.176E-01    1.34       1.0  T
   7    -13.1851689 -0.967655E-04  0.382E-02    1.33       1.1  T
   8    -13.1851705 -0.159604E-05  0.263E-02    1.32       1.6  T
   9    -13.1851722 -0.166897E-05  0.143E-02    1.32       2.9  T
  10    -13.1851727 -0.511552E-06  0.201E-03    1.32      20.3  T
  11    -13.1851727 -0.326846E-08  0.655E-04    1.32      62.3  T
  12    -13.1851727 -0.737188E-09  0.968E-05    1.32     421.8  T

   *** convergence criteria satisfied after 12 iterations ***

         #    Occupation            Energy/Eh            Energy/eV
      -------------------------------------------------------------
         1        2.0000           -0.9067932             -24.6751
       ...           ...                  ...                  ...
         5        2.0000           -0.3412443              -9.2857
         6        2.0000           -0.3159458              -8.5973
         7        2.0000           -0.2661130              -7.2413
         8        2.0000           -0.2631408              -7.1604
         9        2.0000           -0.0608485              -1.6558
        10        2.0000           -0.0601896              -1.6378
        11        2.0000           -0.0595974              -1.6217 (HOMO)
        12                         -0.0110796              -0.3015 (LUMO)
        13                          0.1720584               4.6819
        14                          0.1741461               4.7388
        15                          0.1775414               4.8311
        16                          0.1795254               4.8851
       ...                                ...                  ...
        20                          0.3742776              10.1846
      -------------------------------------------------------------
                  HL-Gap            0.0485178 Eh            1.3202 eV
             Fermi-level           -0.0350660 Eh           -0.9542 eV

 SCC (total)                   0 d,  0 h,  0 min,  0.012 sec
 SCC setup                      ...        0 min,  0.001 sec (  4.465%)
 Dispersion                     ...        0 min,  0.000 sec (  2.128%)
 integral evaluation            ...        0 min,  0.002 sec ( 17.080%)
 zeroth order Hamiltonian       ...        0 min,  0.000 sec (  0.176%)
 iterations                     ...        0 min,  0.008 sec ( 67.774%)
 molecular gradient             ...        0 min,  0.001 sec (  4.932%)
 printout                       ...        0 min,  0.000 sec (  3.141%)

         :::::::::::::::::::::::::::::::::::::::::::::::::::::
         ::                     SUMMARY                     ::
         :::::::::::::::::::::::::::::::::::::::::::::::::::::
         :: total energy             -13.133106446132 Eh    ::
         :: gradient norm              0.018929098948 Eh/a0 ::
         :: HOMO-LUMO gap              1.320237045455 eV    ::
         ::.................................................::
         :: SCC energy               -13.185172668704 Eh    ::
         :: -> isotropic ES            0.269257027937 Eh    ::
         :: -> anisotropic ES         -0.003155719206 Eh    ::
         :: -> anisotropic XC         -0.002468862351 Eh    ::
         :: -> dispersion             -0.002188605269 Eh    ::
         :: repulsion energy           0.052065922102 Eh    ::
         :: add. restraining           0.000000000000 Eh    ::
         :::::::::::::::::::::::::::::::::::::::::::::::::::::

      ----------------------------------------------------------- 
     |                   =====================                   |
     |                        A N C O P T                        |
     |                   =====================                   |
     |               Approximate Normal Coordinate               |
     |                Rational Function Optimizer                |
      ----------------------------------------------------------- 

          ...................................................
          :                      SETUP                      :
          :.................................................:
          :   optimization level            normal          :
          :   max. optcycles                   200          :
          :   ANC micro-cycles                  20          :
          :   degrees of freedom                12          :
          :.................................................:
          :   RF solver                   davidson          :
          :   write xtbopt.log                true          :
          :   linear?                        false          :
          :   energy convergence         0.5000000E-05 Eh   :
          :   grad. convergence          0.1000000E-02 Eh/α :
          :   maximium RF displ.         1.0000000          :
          :   Hlow (freq-cutoff)         0.1000000E-01      :
          :   Hmax (freq-cutoff)         5.0000000          :
          :   S6 in model hess.         20.0000000          :
          ...................................................

generating ANC from model Hessian ...
Using Lindh-Hessian (1995)
 Shifting diagonal of input Hessian by   8.677544647089383E-003
 Lowest  eigenvalues of input Hessian
   -0.000000   -0.000000    0.000000    0.000000    0.000000    0.000000
    0.010000    0.011780    0.015229    0.076717    0.077220    0.121009
    0.122919    0.130725    0.417846    1.079563    1.079933    1.099121
 Highest eigenvalues
    0.122919    0.130725    0.417846    1.079563    1.079933    1.099121
 

........................................................................
.............................. CYCLE    1 ..............................
........................................................................
   1    -13.1851727 -0.131852E+02  0.123E-05    1.32       0.0  T
   2    -13.1851727 -0.323297E-12  0.585E-06    1.32    6973.8  T
   3    -13.1851727 -0.444089E-13  0.377E-06    1.32   10840.6  T
     SCC iter.                  ...        0 min,  0.000 sec
     gradient                   ...        0 min,  0.000 sec
 * total energy  :   -13.1331064 Eh     change       -0.1706811E-08 Eh
   gradient norm :     0.0189291 Eh/α   predicted     0.0000000E+00 (-100.00%)
   displ. norm   :     0.4493280 α      lambda       -0.4453056E-02
   maximum displ.:     0.3357657 α      in ANC's #1, #2, #7, ...

........................................................................
.............................. CYCLE    2 ..............................
........................................................................
   1    -13.1900256 -0.131900E+02  0.577E-01    1.23       0.0  T
   2    -13.1900729 -0.473258E-04  0.325E-01    1.28       1.0  T
   3    -13.1900733 -0.333512E-06  0.611E-02    1.29       1.0  T
   4    -13.1900767 -0.349911E-05  0.122E-02    1.29       3.3  T
   5    -13.1900769 -0.138776E-06  0.601E-03    1.29       6.8  T
   6    -13.1900770 -0.109860E-06  0.262E-03    1.29      15.6  T
   7    -13.1900770 -0.205608E-07  0.101E-03    1.30      40.5  T
     SCC iter.                  ...        0 min,  0.000 sec
     gradient                   ...        0 min,  0.000 sec
 * total energy  :   -13.1362218 Eh     change       -0.3115382E-02 Eh
   gradient norm :     0.0084076 Eh/α   predicted    -0.2676062E-02 ( -14.10%)
   displ. norm   :     0.5579995 α      lambda       -0.3299313E-02
   maximum displ.:     0.3770904 α      in ANC's #1, #2, #3, ...

........................................................................
.............................. CYCLE    3 ..............................
........................................................................
   1    -13.1916151 -0.131916E+02  0.842E-01    1.29       0.0  T
   2    -13.1917225 -0.107397E-03  0.483E-01    1.45       1.0  T
   3    -13.1917300 -0.749876E-05  0.730E-02    1.55       1.0  T
   4    -13.1917370 -0.694117E-05  0.257E-02    1.56       1.6  T
   5    -13.1917377 -0.733049E-06  0.137E-02    1.55       3.0  T
   6    -13.1917382 -0.514678E-06  0.598E-03    1.55       6.8  T
   7    -13.1917383 -0.981217E-07  0.259E-03    1.55      15.8  T
   8    -13.1917383 -0.114315E-07  0.930E-04    1.55      43.9  T
     SCC iter.                  ...        0 min,  0.001 sec
     gradient                   ...        0 min,  0.000 sec
 * total energy  :   -13.1392338 Eh     change       -0.3012004E-02 Eh
   gradient norm :     0.0132104 Eh/α   predicted    -0.2163290E-02 ( -28.18%)
   displ. norm   :     0.8073475 α      lambda       -0.4751639E-02
   maximum displ.:     0.4737446 α      in ANC's #3, #2, #1, ...

........................................................................
.............................. CYCLE    4 ..............................
........................................................................
   1    -13.1873825 -0.131874E+02  0.117E+00    1.50       0.0  T
   2    -13.1880129 -0.630335E-03  0.663E-01    1.91       1.0  T
   3    -13.1880440 -0.311759E-04  0.171E-01    2.08       1.0  T
   4    -13.1880826 -0.385240E-04  0.544E-02    2.13       1.0  T
   5    -13.1880858 -0.323166E-05  0.307E-02    2.11       1.3  T
   6    -13.1880881 -0.230950E-05  0.171E-02    2.10       2.4  T
   7    -13.1880890 -0.924831E-06  0.659E-03    2.11       6.2  T
   8    -13.1880891 -0.778721E-07  0.165E-03    2.12      24.7  T
   9    -13.1880891 -0.430551E-08  0.938E-04    2.12      43.5  T
     SCC iter.                  ...        0 min,  0.001 sec
     gradient                   ...        0 min,  0.000 sec
 * total energy  :   -13.1423407 Eh     change       -0.3106901E-02 Eh
   gradient norm :     0.0236764 Eh/α   predicted    -0.3924393E-02 (  26.31%)
   displ. norm   :     0.2811745 α      lambda       -0.2819896E-02
   maximum displ.:     0.2501182 α      in ANC's #3, #2, #9, ...

........................................................................
.............................. CYCLE    5 ..............................
........................................................................
   1    -13.1919784 -0.131920E+02  0.413E-01    2.28       0.0  T
   2    -13.1921338 -0.155352E-03  0.229E-01    2.49       1.0  T
   3    -13.1921490 -0.152127E-04  0.715E-02    2.58       1.0  T
   4    -13.1921526 -0.362775E-05  0.226E-02    2.62       1.8  T
   5    -13.1921529 -0.281903E-06  0.607E-03    2.61       6.7  T
   6    -13.1921530 -0.470617E-07  0.347E-03    2.60      11.8  T
   7    -13.1921530 -0.214142E-07  0.204E-03    2.60      20.1  T
     SCC iter.                  ...        0 min,  0.000 sec
     gradient                   ...        0 min,  0.000 sec
 * total energy  :   -13.1441137 Eh     change       -0.1773012E-02 Eh
   gradient norm :     0.0131802 Eh/α   predicted    -0.1521417E-02 ( -14.19%)
   displ. norm   :     0.2826551 α      lambda       -0.2312489E-02
   maximum displ.:     0.2301779 α      in ANC's #2, #7, #8, ...

........................................................................
.............................. CYCLE    6 ..............................
........................................................................
   1    -13.1940603 -0.131941E+02  0.385E-01    2.63       0.0  T
   2    -13.1940860 -0.257064E-04  0.222E-01    2.54       1.0  T
   3    -13.1940896 -0.359300E-05  0.384E-02    2.46       1.1  T
   4    -13.1940908 -0.121880E-05  0.178E-02    2.46       2.3  T
   5    -13.1940911 -0.259019E-06  0.751E-03    2.47       5.4  T
   6    -13.1940912 -0.134959E-06  0.250E-03    2.47      16.3  T
   7    -13.1940912 -0.112230E-07  0.111E-03    2.47      36.8  T
     SCC iter.                  ...        0 min,  0.001 sec
     gradient                   ...        0 min,  0.000 sec
 * total energy  :   -13.1455138 Eh     change       -0.1400092E-02 Eh
   gradient norm :     0.0130950 Eh/α   predicted    -0.1248624E-02 ( -10.82%)
   displ. norm   :     0.2403980 α      lambda       -0.9101768E-03
   maximum displ.:     0.1605251 α      in ANC's #2, #3, #1, ...

........................................................................
.............................. CYCLE    7 ..............................
........................................................................
   1    -13.1938993 -0.131939E+02  0.333E-01    2.65       0.0  T
   2    -13.1939045 -0.521293E-05  0.199E-01    2.66       1.0  T
   3    -13.1939066 -0.214029E-05  0.266E-02    2.65       1.5  T
   4    -13.1939074 -0.800163E-06  0.205E-02    2.65       2.0  T
   5    -13.1939085 -0.104636E-05  0.960E-03    2.65       4.3  T
   6    -13.1939087 -0.279206E-06  0.197E-03    2.65      20.7  T
   7    -13.1939087 -0.469931E-08  0.131E-03    2.65      31.1  T
     SCC iter.                  ...        0 min,  0.000 sec
     gradient                   ...        0 min,  0.000 sec
 * total energy  :   -13.1460637 Eh     change       -0.5498932E-03 Eh
   gradient norm :     0.0148405 Eh/α   predicted    -0.4813894E-03 ( -12.46%)
   displ. norm   :     0.1742295 α      lambda       -0.6335269E-03
   maximum displ.:     0.1529790 α      in ANC's #1, #5, #9, ...

........................................................................
.............................. CYCLE    8 ..............................
........................................................................
   1    -13.1993448 -0.131993E+02  0.415E-01    2.76       0.0  T
   2    -13.1993523 -0.752054E-05  0.242E-01    2.69       1.0  T
   3    -13.1993555 -0.322064E-05  0.228E-02    2.62       1.8  T
   4    -13.1993560 -0.477308E-06  0.162E-02    2.63       2.5  T
   5    -13.1993564 -0.439754E-06  0.109E-02    2.63       3.7  T
   6    -13.1993568 -0.403770E-06  0.274E-03    2.63      14.9  T
   7    -13.1993569 -0.993566E-08  0.115E-03    2.63      35.4  T
     SCC iter.                  ...        0 min,  0.000 sec
     gradient                   ...        0 min,  0.000 sec
 * total energy  :   -13.1461859 Eh     change       -0.1221573E-03 Eh
   gradient norm :     0.0099039 Eh/α   predicted    -0.3263781E-03 ( 167.18%)
   displ. norm   :     0.1722683 α      lambda       -0.5509629E-03
   maximum displ.:     0.1549858 α      in ANC's #2, #3, #9, ...

........................................................................
.............................. CYCLE    9 ..............................
........................................................................
   1    -13.1967707 -0.131968E+02  0.156E-01    2.57       0.0  T
   2    -13.1967740 -0.325473E-05  0.932E-02    2.60       1.0  T
   3    -13.1967745 -0.540829E-06  0.132E-02    2.63       3.1  T
   4    -13.1967747 -0.215259E-06  0.765E-03    2.63       5.3  T
   5    -13.1967748 -0.777726E-07  0.444E-03    2.63       9.2  T
   6    -13.1967749 -0.648143E-07  0.139E-03    2.63      29.3  T
   7    -13.1967749 -0.348976E-08  0.457E-04    2.63      89.4  T
     SCC iter.                  ...        0 min,  0.000 sec
     gradient                   ...        0 min,  0.000 sec
 * total energy  :   -13.1464221 Eh     change       -0.2362327E-03 Eh
   gradient norm :     0.0095139 Eh/α   predicted    -0.2836596E-03 (  20.08%)
   displ. norm   :     0.0428324 α      lambda       -0.1357118E-03
   maximum displ.:     0.0299657 α      in ANC's #2, #1, #4, ...

........................................................................
.............................. CYCLE   10 ..............................
........................................................................
   1    -13.1969647 -0.131970E+02  0.831E-02    2.56       0.0  T
   2    -13.1969663 -0.155528E-05  0.506E-02    2.57       1.0  T
   3    -13.1969671 -0.766892E-06  0.155E-02    2.59       2.6  T
   4    -13.1969673 -0.218628E-06  0.115E-02    2.59       3.6  T
   5    -13.1969676 -0.266050E-06  0.697E-03    2.59       5.9  T
   6    -13.1969677 -0.172664E-06  0.867E-04    2.60      47.1  T
   7    -13.1969677 -0.467102E-09  0.327E-04    2.60     124.9  T
     SCC iter.                  ...        0 min,  0.000 sec
     gradient                   ...        0 min,  0.000 sec
 * total energy  :   -13.1465011 Eh     change       -0.7902338E-04 Eh
   gradient norm :     0.0042227 Eh/α   predicted    -0.6798030E-04 ( -13.97%)
   displ. norm   :     0.0382721 α      lambda       -0.5285783E-04
   maximum displ.:     0.0347426 α      in ANC's #1, #12, #2, ...

........................................................................
.............................. CYCLE   11 ..............................
........................................................................
   1    -13.1973291 -0.131973E+02  0.623E-02    2.55       0.0  T
   2    -13.1973294 -0.299101E-06  0.376E-02    2.56       1.1  T
   3    -13.1973296 -0.205531E-06  0.762E-03    2.56       5.4  T
   4    -13.1973296 -0.538161E-07  0.612E-03    2.56       6.7  T
   5    -13.1973297 -0.891488E-07  0.330E-03    2.56      12.4  T
   6    -13.1973298 -0.370238E-07  0.426E-04    2.56      95.8  T
   7    -13.1973298 -0.171113E-09  0.278E-04    2.56     146.9  T
     SCC iter.                  ...        0 min,  0.000 sec
     gradient                   ...        0 min,  0.000 sec
 * total energy  :   -13.1465380 Eh     change       -0.3680547E-04 Eh
   gradient norm :     0.0014267 Eh/α   predicted    -0.2646919E-04 ( -28.08%)
   displ. norm   :     0.0828083 α      lambda       -0.2710890E-04
   maximum displ.:     0.0736785 α      in ANC's #1, #2, #12, ...

........................................................................
.............................. CYCLE   12 ..............................
........................................................................
   1    -13.1972492 -0.131972E+02  0.146E-01    2.52       0.0  T
   2    -13.1972500 -0.778130E-06  0.868E-02    2.53       1.0  T
   3    -13.1972503 -0.323498E-06  0.986E-03    2.53       4.1  T
   4    -13.1972504 -0.115760E-06  0.786E-03    2.53       5.2  T
   5    -13.1972506 -0.175016E-06  0.262E-03    2.53      15.6  T
   6    -13.1972506 -0.172418E-07  0.791E-04    2.53      51.6  T
   7    -13.1972506 -0.739528E-09  0.567E-04    2.53      72.0  T
     SCC iter.                  ...        0 min,  0.000 sec
     gradient                   ...        0 min,  0.000 sec
 * total energy  :   -13.1465522 Eh     change       -0.1421261E-04 Eh
   gradient norm :     0.0015438 Eh/α   predicted    -0.1359633E-04 (  -4.34%)
   displ. norm   :     0.0181156 α      lambda       -0.4928438E-05
   maximum displ.:     0.0138093 α      in ANC's #2, #1, #3, ...

........................................................................
.............................. CYCLE   13 ..............................
........................................................................
   1    -13.1971564 -0.131972E+02  0.256E-02    2.56       0.0  T
   2    -13.1971565 -0.457839E-07  0.157E-02    2.56       2.6  T
   3    -13.1971565 -0.589239E-07  0.376E-03    2.56      10.9  T
   4    -13.1971565 -0.186717E-07  0.291E-03    2.56      14.0  T
   5    -13.1971566 -0.257670E-07  0.133E-03    2.56      30.8  T
   6    -13.1971566 -0.510494E-08  0.123E-04    2.56     332.9  T
   7    -13.1971566 -0.961009E-11  0.565E-05    2.56     722.2  T
     SCC iter.                  ...        0 min,  0.000 sec
     gradient                   ...        0 min,  0.000 sec
 * total energy  :   -13.1465561 Eh     change       -0.3983063E-05 Eh
   gradient norm :     0.0005129 Eh/α   predicted    -0.2465299E-05 ( -38.11%)
   displ. norm   :     0.0036861 α      lambda       -0.5006059E-06
   maximum displ.:     0.0022883 α      in ANC's #3, #1, #6, ...

   *** GEOMETRY OPTIMIZATION CONVERGED AFTER 13 ITERATIONS ***

------------------------------------------------------------------------
 total energy gain   :        -0.0134497 Eh       -8.4398 kcal/mol
 total RMSD          :         0.9050595 a0        0.4789 Å
 total power (kW/mol):        -2.7163216 (step)-1913.7393 (real)
------------------------------------------------------------------------

 ANCopt (total)                0 d,  0 h,  0 min,  0.018 sec
 optimizer setup                ...        0 min,  0.001 sec (  3.273%)
 model hessian                  ...        0 min,  0.001 sec (  7.460%)
 ANC generation                 ...        0 min,  0.000 sec (  0.455%)
 coordinate transformation      ...        0 min,  0.000 sec (  0.310%)
 single point calculation       ...        0 min,  0.015 sec ( 78.705%)
 optimization log               ...        0 min,  0.000 sec (  1.649%)
 hessian update                 ...        0 min,  0.000 sec (  0.266%)
 rational function              ...        0 min,  0.001 sec (  5.373%)

================
 final structure:
================
6
 xtb: 6.2.3 (830e466)
F         0.17671340979675    0.59635536247895   -0.16439113138833
Cl        1.40658836193334   -0.05059804863545    3.50388146183972
C         1.91011229212150   -0.12353111689017    1.80468110465586
H         1.08794235283530    0.20390576651005    1.09696435581113
H         2.77375321592659    0.52855716286201    1.70230120994534
H         2.19082036738650   -1.15468912632543    1.60250299913632
 
 Bond Distances (Angstroems)
 ---------------------------
Cl2-C3=1.7737        C3-Cl2=1.7737        C3-H4=1.1332         C3-H5=1.0870         C3-H6=1.0876         H4-C3=1.1332         
H5-C3=1.0870         H6-C3=1.0876         
 C  H  Rav=1.1026 sigma=0.0216  Rmin=1.0870  Rmax=1.1332     3
 Cl C  Rav=1.7737 sigma=0.0000  Rmin=1.7737  Rmax=1.7737     1
 
 selected bond angles (degree)
 --------------------
H4-C3-Cl2=112.36               H5-C3-Cl2=106.92               H5-C3-H4=110.14                H6-C3-Cl2=106.88               
H6-C3-H4=110.19                H6-C3-H5=110.25                
 
 selected dihedral angles (degree)
 ---------------------------------

 
 CMA Distance (Angstroems)
 ---------------------------
R(CMA):  3.4990
           -------------------------------------------------
          |                Final Singlepoint                |
           -------------------------------------------------

          ...................................................
          :                      SETUP                      :
          :.................................................:
          :  # basis functions                  21          :
          :  # atomic orbitals                  20          :
          :  # shells                           10          :
          :  # electrons                        22          :
          :  max. iterations                   250          :
          :  Hamiltonian                  GFN2-xTB          :
          :  restarted?                      false          :
          :  GBSA solvation                  false          :
          :  PC potential                    false          :
          :  electronic temp.          300.0000000     K    :
          :  accuracy                    1.0000000          :
          :  -> integral cutoff          0.2500000E+02      :
          :  -> integral neglect         0.1000000E-07      :
          :  -> SCF convergence          0.1000000E-05 Eh   :
          :  -> wf. convergence          0.1000000E-03 e    :
          :  Broyden damping             0.4000000          :
          ...................................................

 iter      E             dE          RMSdq      gap      omega  full diag
   1    -13.1971566 -0.131972E+02  0.323E-05    2.56       0.0  T
   2    -13.1971566 -0.701661E-12  0.268E-05    2.56    1522.0  T
   3    -13.1971566 -0.155786E-11  0.521E-06    2.56    7828.8  T

   *** convergence criteria satisfied after 3 iterations ***

         #    Occupation            Energy/Eh            Energy/eV
      -------------------------------------------------------------
         1        2.0000           -0.9074837             -24.6939
       ...           ...                  ...                  ...
         5        2.0000           -0.3410754              -9.2811
         6        2.0000           -0.3176427              -8.6435
         7        2.0000           -0.2659430              -7.2367
         8        2.0000           -0.2573144              -7.0019
         9        2.0000           -0.0978467              -2.6625
        10        2.0000           -0.0947692              -2.5788
        11        2.0000           -0.0947392              -2.5780 (HOMO)
        12                         -0.0006462              -0.0176 (LUMO)
        13                          0.1750915               4.7645
        14                          0.1754812               4.7751
        15                          0.1780554               4.8451
        16                          0.1797868               4.8922
       ...                                ...                  ...
        20                          0.4093761              11.1397
      -------------------------------------------------------------
                  HL-Gap            0.0940930 Eh            2.5604 eV
             Fermi-level           -0.0476927 Eh           -1.2978 eV

 SCC (total)                   0 d,  0 h,  0 min,  0.001 sec
 SCC setup                      ...        0 min,  0.000 sec (  5.107%)
 Dispersion                     ...        0 min,  0.000 sec (  0.860%)
 integral evaluation            ...        0 min,  0.000 sec ( 29.684%)
 zeroth order Hamiltonian       ...        0 min,  0.000 sec (  1.365%)
 iterations                     ...        0 min,  0.000 sec ( 24.071%)
 molecular gradient             ...        0 min,  0.000 sec ( 31.606%)
 printout                       ...        0 min,  0.000 sec (  5.006%)

         :::::::::::::::::::::::::::::::::::::::::::::::::::::
         ::                     SUMMARY                     ::
         :::::::::::::::::::::::::::::::::::::::::::::::::::::
         :: total energy             -13.146556145472 Eh    ::
         :: gradient norm              0.000514763547 Eh/a0 ::
         :: HOMO-LUMO gap              2.560399691105 eV    ::
         ::.................................................::
         :: SCC energy               -13.197156575025 Eh    ::
         :: -> isotropic ES            0.234126765415 Eh    ::
         :: -> anisotropic ES         -0.001616806685 Eh    ::
         :: -> anisotropic XC         -0.001648461377 Eh    ::
         :: -> dispersion             -0.002125285157 Eh    ::
         :: repulsion energy           0.050600152243 Eh    ::
         :: add. restraining           0.000000000000 Eh    ::
         :::::::::::::::::::::::::::::::::::::::::::::::::::::

           -------------------------------------------------
          |                Property Printout                |
           -------------------------------------------------

    * Orbital Energies and Occupations

         #    Occupation            Energy/Eh            Energy/eV
      -------------------------------------------------------------
         1        2.0000           -0.9074837             -24.6939
         2        2.0000           -0.4404190             -11.9844
         3        2.0000           -0.3658159              -9.9544
         4        2.0000           -0.3493868              -9.5073
         5        2.0000           -0.3410754              -9.2811
         6        2.0000           -0.3176427              -8.6435
         7        2.0000           -0.2659430              -7.2367
         8        2.0000           -0.2573144              -7.0019
         9        2.0000           -0.0978467              -2.6625
        10        2.0000           -0.0947692              -2.5788
        11        2.0000           -0.0947392              -2.5780 (HOMO)
        12                         -0.0006462              -0.0176 (LUMO)
        13                          0.1750915               4.7645
        14                          0.1754812               4.7751
        15                          0.1780554               4.8451
        16                          0.1797868               4.8922
        17                          0.2906050               7.9078
        18                          0.3272358               8.9045
        19                          0.3685767              10.0295
        20                          0.4093761              11.1397
      -------------------------------------------------------------
                  HL-Gap            0.0940930 Eh            2.5604 eV
             Fermi-level           -0.0476927 Eh           -1.2978 eV

     #   Z        covCN         q      C6AA      α(0)
     1   9 F      0.003    -0.899    22.291     5.499
     2  17 Cl     0.889    -0.290   108.401    15.928
     3   6 C      3.655    -0.021    21.260     6.620
     4   1 H      0.919     0.176     1.229     1.734
     5   1 H      0.925     0.017     2.773     2.604
     6   1 H      0.925     0.017     2.776     2.605

 Mol. C6AA /au·bohr⁶  :        577.782852
 Mol. C8AA /au·bohr⁸  :      15973.173754
 Mol. α(0) /au        :         34.990013


Wiberg/Mayer (AO) data.
largest (>0.10) Wiberg bond orders for each atom
          total WBO             WBO to atom ...
     1  F   0.192        H    4 0.107
     2  Cl  0.953        C    3 0.923
     3  C   3.839        H    6 0.994    H    5 0.994    Cl   2 0.923    H    4 0.856
     4  H   0.969        C    3 0.856    F    1 0.107
     5  H   1.000        C    3 0.994
     6  H   1.000        C    3 0.994

molecular dipole:
                 x           y           z       tot (Debye)
 q only:       -0.624      -0.933      -1.242
   full:       -0.547      -0.942      -1.534       4.782
molecular quadrupole (traceless):
                xx          xy          yy          xz          yz          zz
 q only:        5.584      -0.258       5.418      -6.025       0.897     -11.002
  q+dip:        8.804      -0.288       8.014      -6.690       1.096     -16.818
   full:        8.374      -0.264       7.554      -7.174       1.185     -15.928

           -------------------------------------------------
          |                Geometry Summary                 |
           -------------------------------------------------

      molecular mass/u    :       69.4858989
   center of mass at/Å    :        1.1839437       0.1097586       2.1185880
  moments of inertia/u·Å² :        0.1714658E+02   0.1929960E+03   0.2069343E+03
rotational constants/cm⁻¹ :        0.9831483E+00   0.8734704E-01   0.8146371E-01

 * 4 selected distances

     #   Z        #   Z                                     value/Å
     2  17 Cl     3   6 C                                 1.7737354 (max)
     3   6 C      4   1 H                                 1.1331555
     3   6 C      5   1 H                                 1.0870034 (min)
     3   6 C      6   1 H                                 1.0876396

 * 2 distinct bonds (by element types)

   Z      Z             #   av. dist./Å        max./Å        min./Å
   1 H    6 C           3     1.1025995     1.1331555     1.0870034
   6 C   17 Cl          1     1.7737354     1.7737354     1.7737354


optimized geometry written to: xtbopt.xyz


           -------------------------------------------------
          | TOTAL ENERGY              -13.146556145472 Eh   |
          | GRADIENT NORM               0.000514763547 Eh/α |
          | HOMO-LUMO GAP               2.560399691105 eV   |
           -------------------------------------------------

------------------------------------------------------------------------
 * finished run on 2020/05/13 at 13:04:54.305     
------------------------------------------------------------------------
 total:
 * wall-time:     0 d,  0 h,  0 min,  0.076 sec
 *  cpu-time:     0 d,  0 h,  0 min,  0.230 sec
 * ratio c/w:     3.006 speedup
 SCF:
 * wall-time:     0 d,  0 h,  0 min,  0.013 sec
 *  cpu-time:     0 d,  0 h,  0 min,  0.039 sec
 * ratio c/w:     2.945 speedup
 ANC optimizer:
 * wall-time:     0 d,  0 h,  0 min,  0.020 sec
 *  cpu-time:     0 d,  0 h,  0 min,  0.077 sec
 * ratio c/w:     3.809 speedup

