 Entering Gaussian System, Link 0=/usr/local/gaussian/g09/g09
 Input=const_cart_opt_g09.com
 Output=const_cart_opt_g09.log
 Initial command:
 /usr/local/gaussian/g09/l1.exe "/tmp/tmpwyri29ub/Gau-82142.inp" -scrdir="/tmp/tmpwyri29ub/"
 Entering Link 1 = /usr/local/gaussian/g09/l1.exe PID=     82143.
  
 Copyright (c) 1988,1990,1992,1993,1995,1998,2003,2009,2013,
            Gaussian, Inc.  All Rights Reserved.
  
 This is part of the Gaussian(R) 09 program.  It is based on
 the Gaussian(R) 03 system (copyright 2003, Gaussian, Inc.),
 the Gaussian(R) 98 system (copyright 1998, Gaussian, Inc.),
 the Gaussian(R) 94 system (copyright 1995, Gaussian, Inc.),
 the Gaussian 92(TM) system (copyright 1992, Gaussian, Inc.),
 the Gaussian 90(TM) system (copyright 1990, Gaussian, Inc.),
 the Gaussian 88(TM) system (copyright 1988, Gaussian, Inc.),
 the Gaussian 86(TM) system (copyright 1986, Carnegie Mellon
 University), and the Gaussian 82(TM) system (copyright 1983,
 Carnegie Mellon University). Gaussian is a federally registered
 trademark of Gaussian, Inc.
  
 This software contains proprietary and confidential information,
 including trade secrets, belonging to Gaussian, Inc.
  
 This software is provided under written license and may be
 used, copied, transmitted, or stored only in accord with that
 written license.
  
 The following legend is applicable only to US Government
 contracts under FAR:
  
                    RESTRICTED RIGHTS LEGEND
  
 Use, reproduction and disclosure by the US Government is
 subject to restrictions as set forth in subparagraphs (a)
 and (c) of the Commercial Computer Software - Restricted
 Rights clause in FAR 52.227-19.
  
 Gaussian, Inc.
 340 Quinnipiac St., Bldg. 40, Wallingford CT 06492
  
  
 ---------------------------------------------------------------
 Warning -- This program may not be used in any manner that
 competes with the business of Gaussian, Inc. or will provide
 assistance to any competitor of Gaussian, Inc.  The licensee
 of this program is prohibited from giving any competitor of
 Gaussian, Inc. access to this program.  By using this program,
 the user acknowledges that Gaussian, Inc. is engaged in the
 business of creating and licensing software in the field of
 computational chemistry and represents and warrants to the
 licensee that it is not a competitor of Gaussian, Inc. and that
 it will not use this program in any manner prohibited above.
 ---------------------------------------------------------------
  

 Cite this work as:
 Gaussian 09, Revision D.01,
 M. J. Frisch, G. W. Trucks, H. B. Schlegel, G. E. Scuseria, 
 M. A. Robb, J. R. Cheeseman, G. Scalmani, V. Barone, B. Mennucci, 
 G. A. Petersson, H. Nakatsuji, M. Caricato, X. Li, H. P. Hratchian, 
 A. F. Izmaylov, J. Bloino, G. Zheng, J. L. Sonnenberg, M. Hada, 
 M. Ehara, K. Toyota, R. Fukuda, J. Hasegawa, M. Ishida, T. Nakajima, 
 Y. Honda, O. Kitao, H. Nakai, T. Vreven, J. A. Montgomery, Jr., 
 J. E. Peralta, F. Ogliaro, M. Bearpark, J. J. Heyd, E. Brothers, 
 K. N. Kudin, V. N. Staroverov, T. Keith, R. Kobayashi, J. Normand, 
 K. Raghavachari, A. Rendell, J. C. Burant, S. S. Iyengar, J. Tomasi, 
 M. Cossi, N. Rega, J. M. Millam, M. Klene, J. E. Knox, J. B. Cross, 
 V. Bakken, C. Adamo, J. Jaramillo, R. Gomperts, R. E. Stratmann, 
 O. Yazyev, A. J. Austin, R. Cammi, C. Pomelli, J. W. Ochterski, 
 R. L. Martin, K. Morokuma, V. G. Zakrzewski, G. A. Voth, 
 P. Salvador, J. J. Dannenberg, S. Dapprich, A. D. Daniels, 
 O. Farkas, J. B. Foresman, J. V. Ortiz, J. Cioslowski, 
 and D. J. Fox, Gaussian, Inc., Wallingford CT, 2013.
 
 ******************************************
 Gaussian 09:  EM64L-G09RevD.01 24-Apr-2013
                29-Apr-2020 
 ******************************************
 %mem=4000MB
 ------------------------------------------
 # PBE1PBE/Def2SVP Opt Geom=ModRedun NoSymm
 ------------------------------------------
 1/14=-1,18=120,19=15,26=3,38=1/1,3;
 2/9=110,12=2,15=1,17=6,18=5,40=1/2;
 3/5=43,7=101,11=2,16=1,25=1,30=1,71=1,74=-13/1,2,3;
 4//1;
 5/5=2,38=5/2;
 6/7=2,8=2,9=2,10=2,28=1/1;
 7/30=1/1,2,3,16;
 1/14=-1,18=20,19=15,26=3/3(2);
 2/9=110,15=1/2;
 99//99;
 2/9=110,15=1/2;
 3/5=43,7=101,11=2,16=1,25=1,30=1,71=1,74=-13/1,2,3;
 4/5=5,16=3,69=1/1;
 5/5=2,38=5/2;
 7/30=1/1,2,3,16;
 1/14=-1,18=20,19=15,26=3/3(-5);
 2/9=110,15=1/2;
 6/7=2,8=2,9=2,10=2,19=2,28=1/1;
 99/9=1/99;
 --------------
 const_cart_opt
 --------------
 Symbolic Z-matrix:
 Charge =  0 Multiplicity = 1
 C                     0.0009    0.0041   -0.0202 
 H                    -0.6577   -0.8481   -0.3214 
 H                    -0.4585    0.9752   -0.3061 
 H                     0.0853   -0.0253    1.0804 
 H                     1.03     -0.1058   -0.4327 
 
 The following ModRedundant input section has been read:
 X       1 F                                                                   
 

 GradGradGradGradGradGradGradGradGradGradGradGradGradGradGradGradGradGrad
 Berny optimization.
 Initialization pass.
                           ----------------------------
                           !    Initial Parameters    !
                           ! (Angstroms and Degrees)  !
 --------------------------                            --------------------------
 ! Name  Definition              Value          Derivative Info.                !
 --------------------------------------------------------------------------------
 ! X1    R(1,-1)                 0.0009         Frozen                          !
 ! Y1    R(1,-2)                 0.0041         Frozen                          !
 ! Z1    R(1,-3)                -0.0202         Frozen                          !
 ! R1    R(1,2)                  1.1184         estimate D2E/DX2                !
 ! R2    R(1,3)                  1.1117         estimate D2E/DX2                !
 ! R3    R(1,4)                  1.1042         estimate D2E/DX2                !
 ! R4    R(1,5)                  1.1141         estimate D2E/DX2                !
 ! A1    A(2,1,3)              110.6724         estimate D2E/DX2                !
 ! A2    A(2,1,4)              107.0474         estimate D2E/DX2                !
 ! A3    A(2,1,5)              111.6585         estimate D2E/DX2                !
 ! A4    A(3,1,4)              108.1304         estimate D2E/DX2                !
 ! A5    A(3,1,5)              111.8798         estimate D2E/DX2                !
 ! A6    A(4,1,5)              107.2057         estimate D2E/DX2                !
 ! D1    D(2,1,4,3)           -119.2712         estimate D2E/DX2                !
 ! D2    D(2,1,5,3)            124.6667         estimate D2E/DX2                !
 ! D3    D(2,1,5,4)           -116.9479         estimate D2E/DX2                !
 ! D4    D(3,1,5,4)            118.3855         estimate D2E/DX2                !
 --------------------------------------------------------------------------------
 Trust Radius=3.00D-01 FncErr=1.00D-07 GrdErr=1.00D-06
 Number of steps in this run=     27 maximum allowed number of steps=    100.
 GradGradGradGradGradGradGradGradGradGradGradGradGradGradGradGradGradGrad

                          Input orientation:                          
 ---------------------------------------------------------------------
 Center     Atomic      Atomic             Coordinates (Angstroms)
 Number     Number       Type             X           Y           Z
 ---------------------------------------------------------------------
      1          6           0        0.000900    0.004100   -0.020200
      2          1           0       -0.657700   -0.848100   -0.321400
      3          1           0       -0.458500    0.975200   -0.306100
      4          1           0        0.085300   -0.025300    1.080400
      5          1           0        1.030000   -0.105800   -0.432700
 ---------------------------------------------------------------------
                    Distance matrix (angstroms):
                    1          2          3          4          5
     1  C    0.000000
     2  H    1.118356   0.000000
     3  H    1.111675   1.834213   0.000000
     4  H    1.104223   1.787202   1.794185   0.000000
     5  H    1.114128   1.847086   1.843969   1.785612   0.000000
 Symmetry turned off by external request.
 Stoichiometry    CH4
 Framework group  C1[X(CH4)]
 Deg. of freedom     9
 Full point group                 C1      NOp   1
 Rotational constants (GHZ):    154.9870204    153.6417483    147.7620489
 Standard basis: def2SVP (5D, 7F)
    34 basis functions,    53 primitive gaussians,    35 cartesian basis functions
     5 alpha electrons        5 beta electrons
       nuclear repulsion energy        13.1697160231 Hartrees.
 NAtoms=    5 NActive=    5 NUniq=    5 SFac= 1.00D+00 NAtFMM=   60 NAOKFM=F Big=F
 Integral buffers will be    131072 words long.
 Raffenetti 2 integral format.
 Two-electron integral symmetry is turned off.
 One-electron integrals computed using PRISM.
   1 Symmetry operations used in ECPInt.
 ECPInt:  NShTT=     171 NPrTT=     553 LenC2=     172 LenP2D=     539.
 LDataN:  DoStor=T MaxTD1= 4 Len=   56
 NBasis=    34 RedAO= T EigKep=  1.48D-02  NBF=    34
 NBsUse=    34 1.00D-06 EigRej= -1.00D+00 NBFU=    34
 ExpMin= 1.22D-01 ExpMax= 1.24D+03 ExpMxC= 1.86D+02 IAcc=1 IRadAn=         1 AccDes= 0.00D+00
 Harris functional with IExCor= 1009 and IRadAn=       1 diagonalized for initial guess.
 HarFok:  IExCor= 1009 AccDes= 0.00D+00 IRadAn=         1 IDoV= 1 UseB2=F ITyADJ=14
 ICtDFT=  3500011 ScaDFX=  1.000000  1.000000  1.000000  1.000000
 FoFCou: FMM=F IPFlag=           0 FMFlag=      100000 FMFlg1=           0
         NFxFlg=           0 DoJE=T BraDBF=F KetDBF=T FulRan=T
         wScrn=  0.000000 ICntrl=     500 IOpCl=  0 I1Cent=   200000004 NGrid=           0
         NMat0=    1 NMatS0=      1 NMatT0=    0 NMatD0=    1 NMtDS0=    0 NMtDT0=    0
 Symmetry not used in FoFCou.
 Keep R1 ints in memory in canonical form, NReq=1060299.
 Requested convergence on RMS density matrix=1.00D-08 within 128 cycles.
 Requested convergence on MAX density matrix=1.00D-06.
 Requested convergence on             energy=1.00D-06.
 No special actions if energy rises.
 Integral accuracy reduced to 1.0D-05 until final iterations.
 Initial convergence to 1.0D-05 achieved.  Increase integral accuracy.
 SCF Done:  E(RPBE1PBE) =  -40.4275187914     A.U. after    9 cycles
            NFock=  9  Conv=0.82D-08     -V/T= 2.0167

 **********************************************************************

            Population analysis using the SCF density.

 **********************************************************************

 Alpha  occ. eigenvalues --  -10.22466  -0.69832  -0.40136  -0.39872  -0.39175
 Alpha virt. eigenvalues --    0.08350   0.15231   0.15312   0.15391   0.42870
 Alpha virt. eigenvalues --    0.43777   0.44055   0.65711   0.69136   0.69334
 Alpha virt. eigenvalues --    0.69480   0.78783   1.10049   1.10512   1.51838
 Alpha virt. eigenvalues --    1.53735   1.53910   1.74544   1.74610   1.77696
 Alpha virt. eigenvalues --    2.08071   2.13685   2.14550   2.50272   2.50806
 Alpha virt. eigenvalues --    2.57132   2.88476   2.89300   2.92742
          Condensed to atoms (all electrons):
               1          2          3          4          5
     1  C    4.624515   0.403571   0.405104   0.401681   0.404713
     2  H    0.403571   0.597617  -0.020692  -0.022333  -0.019813
     3  H    0.405104  -0.020692   0.594843  -0.021545  -0.019927
     4  H    0.401681  -0.022333  -0.021545   0.611486  -0.022481
     5  H    0.404713  -0.019813  -0.019927  -0.022481   0.594984
 Mulliken charges:
               1
     1  C   -0.239584
     2  H    0.061651
     3  H    0.062217
     4  H    0.053193
     5  H    0.062524
 Sum of Mulliken charges =   0.00000
 Mulliken charges with hydrogens summed into heavy atoms:
               1
     1  C    0.000000
 Electronic spatial extent (au):  <R**2>=             36.2139
 Charge=              0.0000 electrons
 Dipole moment (field-independent basis, Debye):
    X=              0.0007    Y=             -0.0027    Z=              0.0476  Tot=              0.0477
 Quadrupole moment (field-independent basis, Debye-Ang):
   XX=             -8.2212   YY=             -8.2632   ZZ=             -8.4625
   XY=             -0.0101   XZ=             -0.0059   YZ=             -0.0159
 Traceless Quadrupole moment (field-independent basis, Debye-Ang):
   XX=              0.0945   YY=              0.0524   ZZ=             -0.1469
   XY=             -0.0101   XZ=             -0.0059   YZ=             -0.0159
 Octapole moment (field-independent basis, Debye-Ang**2):
  XXX=              0.5103  YYY=              0.1790  ZZZ=              1.0903  XYY=             -0.6379
  XXY=             -0.2100  XXZ=             -0.3129  XZZ=              0.1157  YZZ=             -0.0466
  YYZ=             -0.2185  XYZ=              0.0055
 Hexadecapole moment (field-independent basis, Debye-Ang**3):
 XXXX=            -15.8100 YYYY=            -15.6644 ZZZZ=            -15.3242 XXXY=              0.0150
 XXXZ=             -0.3992 YYYX=             -0.0465 YYYZ=             -0.0955 ZZZX=              0.0684
 ZZZY=             -0.0297 XXYY=             -5.1746 XXZZ=             -5.4241 YYZZ=             -5.5277
 XXYZ=              0.1170 YYXZ=              0.3129 ZZXY=             -0.0157
 N-N= 1.316971602314D+01 E-N=-1.190361961797D+02  KE= 3.976327365090D+01
   1 Symmetry operations used in ECPInt.
 ECPInt:  NShTT=     171 NPrTT=     553 LenC2=     172 LenP2D=     539.
 LDataN:  DoStor=T MaxTD1= 5 Len=  102
 Calling FoFJK, ICntrl=      2127 FMM=F ISym2X=0 I1Cent= 0 IOpClX= 0 NMat=1 NMatS=1 NMatT=0.
 -------------------------------------------------------------------
 Center     Atomic                   Forces (Hartrees/Bohr)
 Number     Number              X              Y              Z
 -------------------------------------------------------------------
      1        6          -0.001507203   -0.004259822    0.003694446
      2        1           0.008849730    0.010488248   -0.000448484
      3        1           0.004911500   -0.008600394   -0.000649097
      4        1          -0.000539997    0.001004424   -0.002376180
      5        1          -0.011714030    0.001367545   -0.000220685
 -------------------------------------------------------------------
 Cartesian Forces:  Max     0.011714030 RMS     0.005580824

 GradGradGradGradGradGradGradGradGradGradGradGradGradGradGradGradGradGrad
 Berny optimization.
 FormGI is forming the generalized inverse of G from B-inverse, IUseBI=4.
 Internal  Forces:  Max     0.013082983 RMS     0.005064908
 Search for a local minimum.
 Step number   1 out of a maximum of   27
 All quantities printed in internal units (Hartrees-Bohrs-Radians)
 Mixed Optimization -- RFO/linear search
 Second derivative matrix not updated -- first step.
 The second derivative matrix:
                          X1        Y1        Z1        R1        R2
           X1           0.50000
           Y1           0.00000   0.50000
           Z1           0.00000   0.00000   0.50000
           R1           0.00000   0.00000   0.00000   0.31731
           R2           0.00000   0.00000   0.00000   0.00000   0.32423
           R3           0.00000   0.00000   0.00000   0.00000   0.00000
           R4           0.00000   0.00000   0.00000   0.00000   0.00000
           A1           0.00000   0.00000   0.00000   0.00000   0.00000
           A2           0.00000   0.00000   0.00000   0.00000   0.00000
           A3           0.00000   0.00000   0.00000   0.00000   0.00000
           A4           0.00000   0.00000   0.00000   0.00000   0.00000
           A5           0.00000   0.00000   0.00000   0.00000   0.00000
           A6           0.00000   0.00000   0.00000   0.00000   0.00000
           D1           0.00000   0.00000   0.00000   0.00000   0.00000
           D2           0.00000   0.00000   0.00000   0.00000   0.00000
           D3           0.00000   0.00000   0.00000   0.00000   0.00000
           D4           0.00000   0.00000   0.00000   0.00000   0.00000
                          R3        R4        A1        A2        A3
           R3           0.33219
           R4           0.00000   0.32167
           A1           0.00000   0.00000   0.16000
           A2           0.00000   0.00000   0.00000   0.16000
           A3           0.00000   0.00000   0.00000   0.00000   0.16000
           A4           0.00000   0.00000   0.00000   0.00000   0.00000
           A5           0.00000   0.00000   0.00000   0.00000   0.00000
           A6           0.00000   0.00000   0.00000   0.00000   0.00000
           D1           0.00000   0.00000   0.00000   0.00000   0.00000
           D2           0.00000   0.00000   0.00000   0.00000   0.00000
           D3           0.00000   0.00000   0.00000   0.00000   0.00000
           D4           0.00000   0.00000   0.00000   0.00000   0.00000
                          A4        A5        A6        D1        D2
           A4           0.16000
           A5           0.00000   0.16000
           A6           0.00000   0.00000   0.16000
           D1           0.00000   0.00000   0.00000   0.00230
           D2           0.00000   0.00000   0.00000   0.00000   0.00230
           D3           0.00000   0.00000   0.00000   0.00000   0.00000
           D4           0.00000   0.00000   0.00000   0.00000   0.00000
                          D3        D4
           D3           0.00230
           D4           0.00000   0.00230
 ITU=  0
     Eigenvalues ---    0.04865   0.05895   0.08551   0.16000   0.16000
     Eigenvalues ---    0.31731   0.32167   0.32423   0.332191000.00000
     Eigenvalues --- 1000.000001000.000001000.000001000.000001000.00000
     Eigenvalues --- 1000.000001000.00000
 RFO step:  Lambda=-1.88113059D-03 EMin= 4.86517344D-02
 Linear search not attempted -- first point.
 Iteration  1 RMS(Cart)=  0.02805488 RMS(Int)=  0.00069914
 Iteration  2 RMS(Cart)=  0.00042485 RMS(Int)=  0.00056605
 Iteration  3 RMS(Cart)=  0.00000039 RMS(Int)=  0.00056605
 Variable       Old X    -DE/DX   Delta X   Delta X   Delta X     New X
                                 (Linear)    (Quad)   (Total)
    X1        0.00170   0.00000   0.00000   0.00000   0.00000   0.00170
    Y1        0.00775   0.00000   0.00000   0.00000   0.00000   0.00775
    Z1       -0.03817   0.00000   0.00000   0.00000   0.00000  -0.03817
    R1        2.11339  -0.01308   0.00000  -0.04099  -0.04099   2.07240
    R2        2.10076  -0.00938   0.00000  -0.02875  -0.02875   2.07201
    R3        2.08668  -0.00244   0.00000  -0.00729  -0.00729   2.07939
    R4        2.10540  -0.01087   0.00000  -0.03361  -0.03361   2.07179
    A1        1.93160   0.00041   0.00000  -0.01443  -0.01584   1.91575
    A2        1.86833   0.00169   0.00000   0.03063   0.03093   1.89926
    A3        1.94881  -0.00295   0.00000  -0.02897  -0.02985   1.91896
    A4        1.88723   0.00072   0.00000   0.01795   0.01830   1.90553
    A5        1.95267  -0.00259   0.00000  -0.02955  -0.03040   1.92228
    A6        1.87109   0.00315   0.00000   0.03054   0.03068   1.90177
    D1       -2.08167  -0.00179   0.00000  -0.00933  -0.00902  -2.09070
    D2        2.17584  -0.00368   0.00000  -0.06361  -0.06257   2.11328
    D3       -2.04113  -0.00232   0.00000  -0.03950  -0.03900  -2.08013
    D4        2.06622   0.00136   0.00000   0.02411   0.02357   2.08978
         Item               Value     Threshold  Converged?
 Maximum Force            0.013083     0.000450     NO 
 RMS     Force            0.005581     0.000300     NO 
 Maximum Displacement     0.054333     0.001800     NO 
 RMS     Displacement     0.028065     0.001200     NO 
 Predicted change in Energy=-9.383398D-04
 GradGradGradGradGradGradGradGradGradGradGradGradGradGradGradGradGradGrad

                          Input orientation:                          
 ---------------------------------------------------------------------
 Center     Atomic      Atomic             Coordinates (Angstroms)
 Number     Number       Type             X           Y           Z
 ---------------------------------------------------------------------
      1          6           0        0.000900    0.004100   -0.020200
      2          1           0       -0.637269   -0.826535   -0.344950
      3          1           0       -0.446933    0.957154   -0.325755
      4          1           0        0.084925   -0.020639    1.076672
      5          1           0        1.001248   -0.100007   -0.456590
 ---------------------------------------------------------------------
                    Distance matrix (angstroms):
                    1          2          3          4          5
     1  C    0.000000
     2  H    1.096666   0.000000
     3  H    1.096462   1.793918   0.000000
     4  H    1.100364   1.786628   1.790461   0.000000
     5  H    1.096344   1.795841   1.797758   1.787971   0.000000
 Symmetry turned off by external request.
 Stoichiometry    CH4
 Framework group  C1[X(CH4)]
 Deg. of freedom     9
 Full point group                 C1      NOp   1
 Rotational constants (GHZ):    156.6663759    156.2854483    155.4482483
 Standard basis: def2SVP (5D, 7F)
    34 basis functions,    53 primitive gaussians,    35 cartesian basis functions
     5 alpha electrons        5 beta electrons
       nuclear repulsion energy        13.3441563191 Hartrees.
 NAtoms=    5 NActive=    5 NUniq=    5 SFac= 1.00D+00 NAtFMM=   60 NAOKFM=F Big=F
 Integral buffers will be    131072 words long.
 Raffenetti 2 integral format.
 Two-electron integral symmetry is turned off.
 One-electron integrals computed using PRISM.
   1 Symmetry operations used in ECPInt.
 ECPInt:  NShTT=     171 NPrTT=     553 LenC2=     172 LenP2D=     539.
 LDataN:  DoStor=T MaxTD1= 4 Len=   56
 NBasis=    34 RedAO= T EigKep=  1.42D-02  NBF=    34
 NBsUse=    34 1.00D-06 EigRej= -1.00D+00 NBFU=    34
 Initial guess from the checkpoint file:  "/tmp/tmpwyri29ub/Gau-82143.chk"
 B after Tr=     0.000560    0.002626   -0.013386
         Rot=    1.000000   -0.000359   -0.000362   -0.000521 Ang=  -0.08 deg.
 ExpMin= 1.22D-01 ExpMax= 1.24D+03 ExpMxC= 1.86D+02 IAcc=1 IRadAn=         1 AccDes= 0.00D+00
 Harris functional with IExCor= 1009 and IRadAn=       1 diagonalized for initial guess.
 HarFok:  IExCor= 1009 AccDes= 0.00D+00 IRadAn=         1 IDoV= 1 UseB2=F ITyADJ=14
 ICtDFT=  3500011 ScaDFX=  1.000000  1.000000  1.000000  1.000000
 FoFCou: FMM=F IPFlag=           0 FMFlag=      100000 FMFlg1=           0
         NFxFlg=           0 DoJE=T BraDBF=F KetDBF=T FulRan=T
         wScrn=  0.000000 ICntrl=     500 IOpCl=  0 I1Cent=   200000004 NGrid=           0
         NMat0=    1 NMatS0=      1 NMatT0=    0 NMatD0=    1 NMtDS0=    0 NMtDT0=    0
 Symmetry not used in FoFCou.
 Keep R1 ints in memory in canonical form, NReq=1060299.
 Requested convergence on RMS density matrix=1.00D-08 within 128 cycles.
 Requested convergence on MAX density matrix=1.00D-06.
 Requested convergence on             energy=1.00D-06.
 No special actions if energy rises.
 Integral accuracy reduced to 1.0D-05 until final iterations.
 Initial convergence to 1.0D-05 achieved.  Increase integral accuracy.
 SCF Done:  E(RPBE1PBE) =  -40.4285121262     A.U. after    9 cycles
            NFock=  9  Conv=0.98D-09     -V/T= 2.0149
   1 Symmetry operations used in ECPInt.
 ECPInt:  NShTT=     171 NPrTT=     553 LenC2=     172 LenP2D=     539.
 LDataN:  DoStor=T MaxTD1= 5 Len=  102
 Calling FoFJK, ICntrl=      2127 FMM=F ISym2X=0 I1Cent= 0 IOpClX= 0 NMat=1 NMatS=1 NMatT=0.
 -------------------------------------------------------------------
 Center     Atomic                   Forces (Hartrees/Bohr)
 Number     Number              X              Y              Z
 -------------------------------------------------------------------
      1        6          -0.000097879   -0.000660548    0.004595959
      2        1          -0.000272703   -0.000511919   -0.001204544
      3        1          -0.000033391    0.000715246   -0.000932377
      4        1          -0.000105026    0.000341339   -0.001127206
      5        1           0.000509000    0.000115883   -0.001331831
 -------------------------------------------------------------------
 Cartesian Forces:  Max     0.004595959 RMS     0.001370706

 GradGradGradGradGradGradGradGradGradGradGradGradGradGradGradGradGradGrad
 Berny optimization.
 Using GEDIIS/GDIIS optimizer.
 FormGI is forming the generalized inverse of G from B-inverse, IUseBI=4.
 Internal  Forces:  Max     0.001139323 RMS     0.000631512
 Search for a local minimum.
 Step number   2 out of a maximum of   27
 All quantities printed in internal units (Hartrees-Bohrs-Radians)
 Mixed Optimization -- En-DIIS/RFO-DIIS
 Update second derivatives using D2CorX and points    1    2
 DE= -9.93D-04 DEPred=-9.38D-04 R= 1.06D+00
 TightC=F SS=  1.41D+00  RLast= 1.19D-01 DXNew= 5.0454D-01 3.5574D-01
 Trust test= 1.06D+00 RLast= 1.19D-01 DXMaxT set to 3.56D-01
 The second derivative matrix:
                          X1        Y1        Z1        R1        R2
           X1           0.50000
           Y1           0.00000   0.50000
           Z1           0.00000   0.00000   0.50000
           R1           0.00000   0.00000   0.00000   0.33575
           R2           0.00000   0.00000   0.00000   0.01513   0.33648
           R3           0.00000   0.00000   0.00000  -0.00669  -0.00462
           R4           0.00000   0.00000   0.00000   0.01713   0.01389
           A1           0.00000   0.00000   0.00000  -0.02016  -0.01450
           A2           0.00000   0.00000   0.00000   0.02455   0.01743
           A3           0.00000   0.00000   0.00000  -0.01490  -0.01036
           A4           0.00000   0.00000   0.00000   0.01607   0.01144
           A5           0.00000   0.00000   0.00000  -0.01931  -0.01359
           A6           0.00000   0.00000   0.00000   0.01490   0.01034
           D1           0.00000   0.00000   0.00000   0.01021   0.00750
           D2           0.00000   0.00000   0.00000   0.02132   0.01567
           D3           0.00000   0.00000   0.00000   0.01268   0.00932
           D4           0.00000   0.00000   0.00000  -0.00864  -0.00635
                          R3        R4        A1        A2        A3
           R3           0.33001
           R4          -0.00539   0.33742
           A1          -0.00351  -0.01680   0.15665
           A2           0.00547   0.02025   0.00690   0.14785
           A3          -0.00447  -0.01208  -0.00687   0.01094   0.15091
           A4           0.00338   0.01329   0.00404  -0.00732   0.00673
           A5          -0.00493  -0.01581  -0.00690   0.01151  -0.00995
           A6           0.00455   0.01207   0.00707  -0.01121   0.00927
           D1           0.00093   0.00866  -0.00028  -0.00087   0.00168
           D2           0.00188   0.01809  -0.00074  -0.00160   0.00336
           D3           0.00112   0.01076  -0.00045  -0.00095   0.00199
           D4          -0.00077  -0.00733   0.00029   0.00066  -0.00137
                          A4        A5        A6        D1        D2
           A4           0.15561
           A5           0.00701   0.14933
           A6          -0.00690   0.01017   0.15054
           D1          -0.00036   0.00131  -0.00176   0.00329
           D2          -0.00063   0.00257  -0.00354   0.00213   0.00689
           D3          -0.00037   0.00152  -0.00210   0.00127   0.00274
           D4           0.00026  -0.00105   0.00144  -0.00086  -0.00185
                          D3        D4
           D3           0.00393
           D4          -0.00111   0.00305
 ITU=  1  0
 Use linear search instead of GDIIS.
     Eigenvalues ---    0.04669   0.05729   0.07907   0.15720   0.16001
     Eigenvalues ---    0.31897   0.32317   0.32814   0.370141000.00000
     Eigenvalues --- 1000.000001000.000001000.000001000.000001000.00000
     Eigenvalues --- 1000.000001000.00000
 RFO step:  Lambda=-4.81810129D-05 EMin= 4.66873564D-02
 Quartic linear search produced a step of  0.03816.
 Iteration  1 RMS(Cart)=  0.00625350 RMS(Int)=  0.00006804
 Iteration  2 RMS(Cart)=  0.00003263 RMS(Int)=  0.00005780
 Iteration  3 RMS(Cart)=  0.00000000 RMS(Int)=  0.00005780
 Variable       Old X    -DE/DX   Delta X   Delta X   Delta X     New X
                                 (Linear)    (Quad)   (Total)
    X1        0.00170   0.00000   0.00000   0.00000   0.00000   0.00170
    Y1        0.00775   0.00000   0.00000   0.00000   0.00000   0.00775
    Z1       -0.03817   0.00000   0.00000   0.00000   0.00000  -0.03817
    R1        2.07240   0.00090  -0.00156   0.00337   0.00180   2.07420
    R2        2.07201   0.00090  -0.00110   0.00315   0.00206   2.07407
    R3        2.07939  -0.00114  -0.00028  -0.00348  -0.00376   2.07563
    R4        2.07179   0.00098  -0.00128   0.00351   0.00223   2.07402
    A1        1.91575   0.00007  -0.00060  -0.00300  -0.00375   1.91200
    A2        1.89926   0.00045   0.00118   0.00772   0.00893   1.90819
    A3        1.91896  -0.00062  -0.00114  -0.00575  -0.00697   1.91199
    A4        1.90553   0.00018   0.00070   0.00317   0.00391   1.90944
    A5        1.92228  -0.00075  -0.00116  -0.00799  -0.00923   1.91305
    A6        1.90177   0.00070   0.00117   0.00616   0.00734   1.90912
    D1       -2.09070  -0.00045  -0.00034  -0.00284  -0.00316  -2.09385
    D2        2.11328  -0.00080  -0.00239  -0.01260  -0.01488   2.09840
    D3       -2.08013  -0.00060  -0.00149  -0.00974  -0.01118  -2.09130
    D4        2.08978   0.00020   0.00090   0.00286   0.00370   2.09348
         Item               Value     Threshold  Converged?
 Maximum Force            0.001139     0.000450     NO 
 RMS     Force            0.000696     0.000300     NO 
 Maximum Displacement     0.015985     0.001800     NO 
 RMS     Displacement     0.006269     0.001200     NO 
 Predicted change in Energy=-2.583204D-05
 GradGradGradGradGradGradGradGradGradGradGradGradGradGradGradGradGradGrad

                          Input orientation:                          
 ---------------------------------------------------------------------
 Center     Atomic      Atomic             Coordinates (Angstroms)
 Number     Number       Type             X           Y           Z
 ---------------------------------------------------------------------
      1          6           0        0.000900    0.004100   -0.020200
      2          1           0       -0.636044   -0.825687   -0.352654
      3          1           0       -0.445379    0.957241   -0.331605
      4          1           0        0.085673   -0.018675    1.074661
      5          1           0        0.999015   -0.098048   -0.465049
 ---------------------------------------------------------------------
                    Distance matrix (angstroms):
                    1          2          3          4          5
     1  C    0.000000
     2  H    1.097620   0.000000
     3  H    1.097550   1.793217   0.000000
     4  H    1.098374   1.791472   1.792210   0.000000
     5  H    1.097524   1.793184   1.793799   1.791982   0.000000
 Symmetry turned off by external request.
 Stoichiometry    CH4
 Framework group  C1[X(CH4)]
 Deg. of freedom     9
 Full point group                 C1      NOp   1
 Rotational constants (GHZ):    156.1437644    156.0774961    155.9066396
 Standard basis: def2SVP (5D, 7F)
    34 basis functions,    53 primitive gaussians,    35 cartesian basis functions
     5 alpha electrons        5 beta electrons
       nuclear repulsion energy        13.3403325998 Hartrees.
 NAtoms=    5 NActive=    5 NUniq=    5 SFac= 1.00D+00 NAtFMM=   60 NAOKFM=F Big=F
 Integral buffers will be    131072 words long.
 Raffenetti 2 integral format.
 Two-electron integral symmetry is turned off.
 One-electron integrals computed using PRISM.
   1 Symmetry operations used in ECPInt.
 ECPInt:  NShTT=     171 NPrTT=     553 LenC2=     172 LenP2D=     539.
 LDataN:  DoStor=T MaxTD1= 4 Len=   56
 NBasis=    34 RedAO= T EigKep=  1.42D-02  NBF=    34
 NBsUse=    34 1.00D-06 EigRej= -1.00D+00 NBFU=    34
 Initial guess from the checkpoint file:  "/tmp/tmpwyri29ub/Gau-82143.chk"
 B after Tr=     0.000267    0.000910   -0.004541
         Rot=    1.000000   -0.000118   -0.000314   -0.000134 Ang=  -0.04 deg.
 Keep R1 ints in memory in canonical form, NReq=1060299.
 Requested convergence on RMS density matrix=1.00D-08 within 128 cycles.
 Requested convergence on MAX density matrix=1.00D-06.
 Requested convergence on             energy=1.00D-06.
 No special actions if energy rises.
 SCF Done:  E(RPBE1PBE) =  -40.4285432266     A.U. after    6 cycles
            NFock=  6  Conv=0.63D-08     -V/T= 2.0150
   1 Symmetry operations used in ECPInt.
 ECPInt:  NShTT=     171 NPrTT=     553 LenC2=     172 LenP2D=     539.
 LDataN:  DoStor=T MaxTD1= 5 Len=  102
 Calling FoFJK, ICntrl=      2127 FMM=F ISym2X=0 I1Cent= 0 IOpClX= 0 NMat=1 NMatS=1 NMatT=0.
 -------------------------------------------------------------------
 Center     Atomic                   Forces (Hartrees/Bohr)
 Number     Number              X              Y              Z
 -------------------------------------------------------------------
      1        6          -0.000025925   -0.000170218    0.000953986
      2        1          -0.000143618   -0.000160385   -0.000282616
      3        1          -0.000070362    0.000236272   -0.000241766
      4        1           0.000012067    0.000060250   -0.000131475
      5        1           0.000227839    0.000034082   -0.000298130
 -------------------------------------------------------------------
 Cartesian Forces:  Max     0.000953986 RMS     0.000299800

 GradGradGradGradGradGradGradGradGradGradGradGradGradGradGradGradGradGrad
 Berny optimization.
 Using GEDIIS/GDIIS optimizer.
 FormGI is forming the generalized inverse of G from B-inverse, IUseBI=4.
 Internal  Forces:  Max     0.000324868 RMS     0.000154844
 Search for a local minimum.
 Step number   3 out of a maximum of   27
 All quantities printed in internal units (Hartrees-Bohrs-Radians)
 Mixed Optimization -- En-DIIS/RFO-DIIS
 Swapping is turned off.
 Update second derivatives using D2CorX and points    1    2    3
 DE= -3.11D-05 DEPred=-2.58D-05 R= 1.20D+00
 TightC=F SS=  1.41D+00  RLast= 2.63D-02 DXNew= 5.9827D-01 7.8993D-02
 Trust test= 1.20D+00 RLast= 2.63D-02 DXMaxT set to 3.56D-01
 The second derivative matrix:
                          X1        Y1        Z1        R1        R2
           X1           0.50000
           Y1           0.00000   0.50000
           Z1           0.00000   0.00000   0.50000
           R1           0.00000   0.00000   0.00000   0.33032
           R2           0.00000   0.00000   0.00000   0.00944   0.33052
           R3           0.00000   0.00000   0.00000  -0.00051   0.00154
           R4           0.00000   0.00000   0.00000   0.01096   0.00744
           A1           0.00000   0.00000   0.00000  -0.01466  -0.00837
           A2           0.00000   0.00000   0.00000   0.01346   0.00541
           A3           0.00000   0.00000   0.00000  -0.00814  -0.00326
           A4           0.00000   0.00000   0.00000   0.01158   0.00656
           A5           0.00000   0.00000   0.00000  -0.00903  -0.00264
           A6           0.00000   0.00000   0.00000   0.00796   0.00309
           D1           0.00000   0.00000   0.00000   0.00825   0.00509
           D2           0.00000   0.00000   0.00000   0.01850   0.01213
           D3           0.00000   0.00000   0.00000   0.01038   0.00647
           D4           0.00000   0.00000   0.00000  -0.00812  -0.00566
                          R3        R4        A1        A2        A3
           R3           0.32974
           R4           0.00124   0.33044
           A1          -0.01483  -0.01016   0.15383
           A2           0.02232   0.00725   0.01656   0.12543
           A3          -0.01089  -0.00441  -0.01531   0.02650   0.14235
           A4           0.01042   0.00801   0.00781  -0.01630   0.01309
           A5          -0.01744  -0.00398  -0.01787   0.03378  -0.02361
           A6           0.01056   0.00424   0.01611  -0.02746   0.01792
           D1           0.00899   0.00603  -0.00194  -0.00232   0.00565
           D2           0.01470   0.01423  -0.00396  -0.00306   0.00936
           D3           0.01096   0.00765  -0.00265  -0.00247   0.00675
           D4          -0.00374  -0.00658   0.00131   0.00060  -0.00261
                          A4        A5        A6        D1        D2
           A4           0.15202
           A5           0.01603   0.12865
           A6          -0.01356   0.02419   0.14187
           D1          -0.00078   0.00513  -0.00630   0.00711
           D2          -0.00093   0.00801  -0.01046   0.00862   0.01787
           D3          -0.00077   0.00600  -0.00755   0.00606   0.01085
           D4           0.00016  -0.00202   0.00291  -0.00256  -0.00471
                          D3        D4
           D3           0.00993
           D4          -0.00323   0.00378
 ITU=  1  1  0
     Eigenvalues ---    0.04235   0.05667   0.07461   0.15701   0.16004
     Eigenvalues ---    0.31887   0.32318   0.33023   0.349201000.00000
     Eigenvalues --- 1000.000001000.000001000.000001000.000001000.00000
     Eigenvalues --- 1000.000001000.00000
 En-DIIS/RFO-DIIS IScMMF=        0 using points:     3    2
 RFO step:  Lambda=-1.00007471D-06.
 DidBck=F Rises=F RFO-DIIS coefs:    1.26189   -0.26189
 Iteration  1 RMS(Cart)=  0.00163188 RMS(Int)=  0.00001195
 Iteration  2 RMS(Cart)=  0.00000221 RMS(Int)=  0.00001170
 Iteration  3 RMS(Cart)=  0.00000000 RMS(Int)=  0.00001170
 Variable       Old X    -DE/DX   Delta X   Delta X   Delta X     New X
                                 (Linear)    (Quad)   (Total)
    X1        0.00170   0.00000   0.00000   0.00000   0.00000   0.00170
    Y1        0.00775   0.00000   0.00000   0.00000   0.00000   0.00775
    Z1       -0.03817   0.00000   0.00000   0.00000   0.00000  -0.03817
    R1        2.07420   0.00029   0.00047   0.00037   0.00084   2.07504
    R2        2.07407   0.00030   0.00054   0.00042   0.00096   2.07503
    R3        2.07563  -0.00013  -0.00098   0.00040  -0.00058   2.07505
    R4        2.07402   0.00032   0.00058   0.00044   0.00102   2.07504
    A1        1.91200  -0.00001  -0.00098  -0.00030  -0.00131   1.91070
    A2        1.90819   0.00010   0.00234   0.00007   0.00241   1.91060
    A3        1.91199  -0.00009  -0.00183   0.00039  -0.00146   1.91053
    A4        1.90944   0.00006   0.00102   0.00014   0.00117   1.91061
    A5        1.91305  -0.00016  -0.00242   0.00002  -0.00241   1.91064
    A6        1.90912   0.00010   0.00192  -0.00032   0.00161   1.91073
    D1       -2.09385  -0.00008  -0.00083   0.00024  -0.00058  -2.09444
    D2        2.09840  -0.00017  -0.00390  -0.00011  -0.00399   2.09441
    D3       -2.09130  -0.00013  -0.00293  -0.00012  -0.00304  -2.09435
    D4        2.09348   0.00004   0.00097  -0.00001   0.00095   2.09443
         Item               Value     Threshold  Converged?
 Maximum Force            0.000325     0.000450     YES
 RMS     Force            0.000171     0.000300     YES
 Maximum Displacement     0.004070     0.001800     NO 
 RMS     Displacement     0.001633     0.001200     NO 
 Predicted change in Energy=-1.539160D-06
 GradGradGradGradGradGradGradGradGradGradGradGradGradGradGradGradGradGrad

                          Input orientation:                          
 ---------------------------------------------------------------------
 Center     Atomic      Atomic             Coordinates (Angstroms)
 Number     Number       Type             X           Y           Z
 ---------------------------------------------------------------------
      1          6           0        0.000900    0.004100   -0.020200
      2          1           0       -0.636017   -0.825473   -0.354701
      3          1           0       -0.445173    0.957379   -0.333264
      4          1           0        0.086062   -0.018185    1.074333
      5          1           0        0.998712   -0.097404   -0.467203
 ---------------------------------------------------------------------
                    Distance matrix (angstroms):
                    1          2          3          4          5
     1  C    0.000000
     2  H    1.098065   0.000000
     3  H    1.098058   1.793166   0.000000
     4  H    1.098067   1.793112   1.793116   0.000000
     5  H    1.098063   1.793065   1.793129   1.793192   0.000000
 Symmetry turned off by external request.
 Stoichiometry    CH4
 Framework group  C1[X(CH4)]
 Deg. of freedom     9
 Full point group                 C1      NOp   1
 Rotational constants (GHZ):    155.9654825    155.9602582    155.9492881
 Standard basis: def2SVP (5D, 7F)
    34 basis functions,    53 primitive gaussians,    35 cartesian basis functions
     5 alpha electrons        5 beta electrons
       nuclear repulsion energy        13.3367311021 Hartrees.
 NAtoms=    5 NActive=    5 NUniq=    5 SFac= 1.00D+00 NAtFMM=   60 NAOKFM=F Big=F
 Integral buffers will be    131072 words long.
 Raffenetti 2 integral format.
 Two-electron integral symmetry is turned off.
 One-electron integrals computed using PRISM.
   1 Symmetry operations used in ECPInt.
 ECPInt:  NShTT=     171 NPrTT=     553 LenC2=     172 LenP2D=     539.
 LDataN:  DoStor=T MaxTD1= 4 Len=   56
 NBasis=    34 RedAO= T EigKep=  1.42D-02  NBF=    34
 NBsUse=    34 1.00D-06 EigRej= -1.00D+00 NBFU=    34
 Initial guess from the checkpoint file:  "/tmp/tmpwyri29ub/Gau-82143.chk"
 B after Tr=     0.000068    0.000278   -0.001169
         Rot=    1.000000   -0.000032   -0.000097   -0.000045 Ang=  -0.01 deg.
 Keep R1 ints in memory in canonical form, NReq=1060299.
 Requested convergence on RMS density matrix=1.00D-08 within 128 cycles.
 Requested convergence on MAX density matrix=1.00D-06.
 Requested convergence on             energy=1.00D-06.
 No special actions if energy rises.
 SCF Done:  E(RPBE1PBE) =  -40.4285447642     A.U. after    6 cycles
            NFock=  6  Conv=0.26D-08     -V/T= 2.0150
   1 Symmetry operations used in ECPInt.
 ECPInt:  NShTT=     171 NPrTT=     553 LenC2=     172 LenP2D=     539.
 LDataN:  DoStor=T MaxTD1= 5 Len=  102
 Calling FoFJK, ICntrl=      2127 FMM=F ISym2X=0 I1Cent= 0 IOpClX= 0 NMat=1 NMatS=1 NMatT=0.
 -------------------------------------------------------------------
 Center     Atomic                   Forces (Hartrees/Bohr)
 Number     Number              X              Y              Z
 -------------------------------------------------------------------
      1        6           0.000002485   -0.000012891   -0.000000833
      2        1          -0.000005377    0.000007058   -0.000000620
      3        1          -0.000006234   -0.000001845   -0.000000796
      4        1           0.000007133   -0.000001718   -0.000005826
      5        1           0.000001993    0.000009397    0.000008075
 -------------------------------------------------------------------
 Cartesian Forces:  Max     0.000012891 RMS     0.000006002

 GradGradGradGradGradGradGradGradGradGradGradGradGradGradGradGradGradGrad
 Berny optimization.
 Using GEDIIS/GDIIS optimizer.
 FormGI is forming the generalized inverse of G from B-inverse, IUseBI=4.
 Internal  Forces:  Max     0.000012516 RMS     0.000005072
 Search for a local minimum.
 Step number   4 out of a maximum of   27
 All quantities printed in internal units (Hartrees-Bohrs-Radians)
 Mixed Optimization -- En-DIIS/RFO-DIIS
 Swapping is turned off.
 Update second derivatives using D2CorX and points    1    2    3    4
 DE= -1.54D-06 DEPred=-1.54D-06 R= 9.99D-01
 TightC=F SS=  1.41D+00  RLast= 6.98D-03 DXNew= 5.9827D-01 2.0952D-02
 Trust test= 9.99D-01 RLast= 6.98D-03 DXMaxT set to 3.56D-01
 The second derivative matrix:
                          X1        Y1        Z1        R1        R2
           X1           0.50000
           Y1           0.00000   0.50000
           Z1           0.00000   0.00000   0.50000
           R1           0.00000   0.00000   0.00000   0.32849
           R2           0.00000   0.00000   0.00000   0.00729   0.32822
           R3           0.00000   0.00000   0.00000  -0.00233   0.00041
           R4           0.00000   0.00000   0.00000   0.00898   0.00527
           A1           0.00000   0.00000   0.00000  -0.00349   0.00114
           A2           0.00000   0.00000   0.00000   0.00135  -0.00432
           A3           0.00000   0.00000   0.00000  -0.00591  -0.00180
           A4           0.00000   0.00000   0.00000   0.00613   0.00210
           A5           0.00000   0.00000   0.00000  -0.00152   0.00332
           A6           0.00000   0.00000   0.00000   0.00499   0.00070
           D1           0.00000   0.00000   0.00000   0.00216   0.00054
           D2           0.00000   0.00000   0.00000   0.00651   0.00250
           D3           0.00000   0.00000   0.00000   0.00147  -0.00061
           D4           0.00000   0.00000   0.00000  -0.00504  -0.00311
                          R3        R4        A1        A2        A3
           R3           0.32909
           R4          -0.00027   0.32845
           A1          -0.01684   0.00048   0.15251
           A2           0.02356  -0.00368   0.01879   0.12378
           A3          -0.01082  -0.00278  -0.01626   0.02605   0.14356
           A4           0.01118   0.00302   0.00894  -0.01721   0.01299
           A5          -0.01821   0.00264  -0.02037   0.03499  -0.02270
           A6           0.01127   0.00164   0.01733  -0.02760   0.01719
           D1           0.00847   0.00072  -0.00222  -0.00251   0.00556
           D2           0.01509   0.00316  -0.00418  -0.00465   0.01038
           D3           0.01116  -0.00050  -0.00304  -0.00325   0.00731
           D4          -0.00393  -0.00367   0.00114   0.00139  -0.00307
                          A4        A5        A6        D1        D2
           A4           0.15152
           A5           0.01678   0.12814
           A6          -0.01380   0.02411   0.14193
           D1          -0.00072   0.00517  -0.00571   0.00594
           D2          -0.00146   0.00979  -0.01072   0.00725   0.01684
           D3          -0.00099   0.00697  -0.00753   0.00510   0.01017
           D4           0.00048  -0.00282   0.00319  -0.00215  -0.00436
                          D3        D4
           D3           0.00949
           D4          -0.00298   0.00368
 ITU=  1  1  1  0
     Eigenvalues ---    0.04190   0.05657   0.07506   0.15764   0.15988
     Eigenvalues ---    0.31885   0.32314   0.32966   0.343191000.00000
     Eigenvalues --- 1000.000001000.000001000.000001000.000001000.00000
     Eigenvalues --- 1000.000001000.00000
 En-DIIS/RFO-DIIS IScMMF=        0 using points:     4    3    2
 RFO step:  Lambda= 0.00000000D+00.
 DidBck=F Rises=F RFO-DIIS coefs:    1.02436   -0.03272    0.00836
 Iteration  1 RMS(Cart)=  0.00004298 RMS(Int)=  0.00000040
 Iteration  2 RMS(Cart)=  0.00000000 RMS(Int)=  0.00000040
 Variable       Old X    -DE/DX   Delta X   Delta X   Delta X     New X
                                 (Linear)    (Quad)   (Total)
    X1        0.00170   0.00000   0.00000   0.00000   0.00000   0.00170
    Y1        0.00775   0.00000   0.00000   0.00000   0.00000   0.00775
    Z1       -0.03817   0.00000   0.00000   0.00000   0.00000  -0.03817
    R1        2.07504   0.00000   0.00001  -0.00001  -0.00001   2.07504
    R2        2.07503   0.00000   0.00001   0.00000   0.00000   2.07503
    R3        2.07505  -0.00001   0.00002  -0.00003  -0.00002   2.07503
    R4        2.07504   0.00000   0.00001  -0.00001  -0.00001   2.07503
    A1        1.91070  -0.00001   0.00000  -0.00006  -0.00006   1.91064
    A2        1.91060   0.00000  -0.00002   0.00004   0.00002   1.91062
    A3        1.91053   0.00001   0.00002   0.00008   0.00010   1.91063
    A4        1.91061   0.00000   0.00000   0.00001   0.00001   1.91062
    A5        1.91064   0.00000   0.00002  -0.00002   0.00000   1.91064
    A6        1.91073  -0.00001  -0.00002  -0.00005  -0.00007   1.91065
    D1       -2.09444   0.00000   0.00001   0.00004   0.00005  -2.09438
    D2        2.09441   0.00000   0.00003  -0.00004  -0.00001   2.09440
    D3       -2.09435   0.00000   0.00002  -0.00006  -0.00004  -2.09439
    D4        2.09443   0.00000  -0.00001  -0.00003  -0.00003   2.09440
         Item               Value     Threshold  Converged?
 Maximum Force            0.000013     0.000450     YES
 RMS     Force            0.000006     0.000300     YES
 Maximum Displacement     0.000086     0.001800     YES
 RMS     Displacement     0.000043     0.001200     YES
 Predicted change in Energy=-1.488784D-09
 Optimization completed.
    -- Stationary point found.
                           ----------------------------
                           !   Optimized Parameters   !
                           ! (Angstroms and Degrees)  !
 --------------------------                            --------------------------
 ! Name  Definition              Value          Derivative Info.                !
 --------------------------------------------------------------------------------
 ! X1    R(1,-1)                 0.0009         -DE/DX =    0.0                 !
 ! Y1    R(1,-2)                 0.0041         -DE/DX =    0.0                 !
 ! Z1    R(1,-3)                -0.0202         -DE/DX =    0.0                 !
 ! R1    R(1,2)                  1.0981         -DE/DX =    0.0                 !
 ! R2    R(1,3)                  1.0981         -DE/DX =    0.0                 !
 ! R3    R(1,4)                  1.0981         -DE/DX =    0.0                 !
 ! R4    R(1,5)                  1.0981         -DE/DX =    0.0                 !
 ! A1    A(2,1,3)              109.4748         -DE/DX =    0.0                 !
 ! A2    A(2,1,4)              109.4692         -DE/DX =    0.0                 !
 ! A3    A(2,1,5)              109.4652         -DE/DX =    0.0                 !
 ! A4    A(3,1,4)              109.4701         -DE/DX =    0.0                 !
 ! A5    A(3,1,5)              109.4715         -DE/DX =    0.0                 !
 ! A6    A(4,1,5)              109.4765         -DE/DX =    0.0                 !
 ! D1    D(2,1,4,3)           -120.0024         -DE/DX =    0.0                 !
 ! D2    D(2,1,5,3)            120.0008         -DE/DX =    0.0                 !
 ! D3    D(2,1,5,4)           -119.9971         -DE/DX =    0.0                 !
 ! D4    D(3,1,5,4)            120.002          -DE/DX =    0.0                 !
 --------------------------------------------------------------------------------
 GradGradGradGradGradGradGradGradGradGradGradGradGradGradGradGradGradGrad

                          Input orientation:                          
 ---------------------------------------------------------------------
 Center     Atomic      Atomic             Coordinates (Angstroms)
 Number     Number       Type             X           Y           Z
 ---------------------------------------------------------------------
      1          6           0        0.000900    0.004100   -0.020200
      2          1           0       -0.636017   -0.825473   -0.354701
      3          1           0       -0.445173    0.957379   -0.333264
      4          1           0        0.086062   -0.018185    1.074333
      5          1           0        0.998712   -0.097404   -0.467203
 ---------------------------------------------------------------------
                    Distance matrix (angstroms):
                    1          2          3          4          5
     1  C    0.000000
     2  H    1.098065   0.000000
     3  H    1.098058   1.793166   0.000000
     4  H    1.098067   1.793112   1.793116   0.000000
     5  H    1.098063   1.793065   1.793129   1.793192   0.000000
 Symmetry turned off by external request.
 Stoichiometry    CH4
 Framework group  C1[X(CH4)]
 Deg. of freedom     9
 Full point group                 C1      NOp   1
 Rotational constants (GHZ):    155.9654825    155.9602582    155.9492881

 **********************************************************************

            Population analysis using the SCF density.

 **********************************************************************

 Alpha  occ. eigenvalues --  -10.21905  -0.70242  -0.39975  -0.39974  -0.39972
 Alpha virt. eigenvalues --    0.08597   0.15653   0.15654   0.15654   0.43469
 Alpha virt. eigenvalues --    0.43471   0.43472   0.66844   0.70036   0.70036
 Alpha virt. eigenvalues --    0.70037   0.79441   1.10125   1.10129   1.54096
 Alpha virt. eigenvalues --    1.54097   1.54099   1.76943   1.76944   1.76945
 Alpha virt. eigenvalues --    2.14155   2.14158   2.14162   2.53153   2.53157
 Alpha virt. eigenvalues --    2.61018   2.92314   2.92317   2.92323
          Condensed to atoms (all electrons):
               1          2          3          4          5
     1  C    4.596588   0.406584   0.406589   0.406587   0.406585
     2  H    0.406584   0.600171  -0.020824  -0.020829  -0.020832
     3  H    0.406589  -0.020824   0.600158  -0.020830  -0.020828
     4  H    0.406587  -0.020829  -0.020830   0.600158  -0.020823
     5  H    0.406585  -0.020832  -0.020828  -0.020823   0.600165
 Mulliken charges:
               1
     1  C   -0.222932
     2  H    0.055729
     3  H    0.055735
     4  H    0.055736
     5  H    0.055732
 Sum of Mulliken charges =   0.00000
 Mulliken charges with hydrogens summed into heavy atoms:
               1
     1  C    0.000000
 Electronic spatial extent (au):  <R**2>=             35.6963
 Charge=              0.0000 electrons
 Dipole moment (field-independent basis, Debye):
    X=              0.0000    Y=              0.0000    Z=              0.0000  Tot=              0.0000
 Quadrupole moment (field-independent basis, Debye-Ang):
   XX=             -8.2757   YY=             -8.2754   ZZ=             -8.2755
   XY=             -0.0001   XZ=             -0.0002   YZ=              0.0000
 Traceless Quadrupole moment (field-independent basis, Debye-Ang):
   XX=             -0.0002   YY=              0.0001   ZZ=              0.0001
   XY=             -0.0001   XZ=             -0.0002   YZ=              0.0000
 Octapole moment (field-independent basis, Debye-Ang**2):
  XXX=              0.4096  YYY=              0.0950  ZZZ=              1.2720  XYY=             -0.5639
  XXY=             -0.1995  XXZ=             -0.2569  XZZ=              0.1170  YZZ=             -0.0648
  YYZ=             -0.1792  XYZ=             -0.0003
 Hexadecapole moment (field-independent basis, Debye-Ang**3):
 XXXX=            -15.4442 YYYY=            -15.3254 ZZZZ=            -15.1852 XXXY=              0.0341
 XXXZ=             -0.3839 YYYX=             -0.0339 YYYZ=             -0.0970 ZZZX=              0.0621
 ZZZY=             -0.0139 XXYY=             -5.0695 XXZZ=             -5.2780 YYZZ=             -5.4000
 XXYZ=              0.1140 YYXZ=              0.3172 ZZXY=             -0.0053
 N-N= 1.333673110211D+01 E-N=-1.194177957457D+02  KE= 3.983074777906D+01
 1\1\GINC-COMP0805\FOpt\RPBE1PBE\def2SVP\C1H4\SHUG5449\29-Apr-2020\0\\#
  PBE1PBE/Def2SVP Opt Geom=ModRedun NoSymm\\const_cart_opt\\0,1\C,0.000
 9,0.0041,-0.0202\H,-0.6360169021,-0.8254734067,-0.3547011451\H,-0.4451
 732637,0.95737915,-0.3332637115\H,0.0860620097,-0.0181847572,1.0743326
 641\H,0.9987119603,-0.0974036627,-0.467202626\\Version=EM64L-G09RevD.0
 1\HF=-40.4285448\RMSD=2.584e-09\RMSF=6.002e-06\Dipole=-0.0000039,-0.00
 00109,-0.0000062\Quadrupole=-0.0001477,0.0000848,0.0000629,-0.0000592,
 -0.0001233,0.0000323\PG=C01 [X(C1H4)]\\@


 IF NO USE IS MADE OF THE LABOR OF PAST AGES,
 THE WORLD MUST REMAIN ALWAYS IN THE INFANCY OF KNOWLEDGE.

                          -- CICERO
 Job cpu time:       0 days  0 hours  0 minutes  9.6 seconds.
 File lengths (MBytes):  RWF=      5 Int=      0 D2E=      0 Chk=      1 Scr=      1
 Normal termination of Gaussian 09 at Wed Apr 29 12:32:21 2020.
