 Entering Gaussian System, Link 0=/usr/local/gaussian/g09/g09
 Input=const_dist_opt_g09.com
 Output=const_dist_opt_g09.log
 Initial command:
 /usr/local/gaussian/g09/l1.exe "/tmp/tmp11q64dvc/Gau-118111.inp" -scrdir="/tmp/tmp11q64dvc/"
 Entering Link 1 = /usr/local/gaussian/g09/l1.exe PID=    118112.
  
 Copyright (c) 1988,1990,1992,1993,1995,1998,2003,2009,2013,
            Gaussian, Inc.  All Rights Reserved.
  
 This is part of the Gaussian(R) 09 program.  It is based on
 the Gaussian(R) 03 system (copyright 2003, Gaussian, Inc.),
 the Gaussian(R) 98 system (copyright 1998, Gaussian, Inc.),
 the Gaussian(R) 94 system (copyright 1995, Gaussian, Inc.),
 the Gaussian 92(TM) system (copyright 1992, Gaussian, Inc.),
 the Gaussian 90(TM) system (copyright 1990, Gaussian, Inc.),
 the Gaussian 88(TM) system (copyright 1988, Gaussian, Inc.),
 the Gaussian 86(TM) system (copyright 1986, Carnegie Mellon
 University), and the Gaussian 82(TM) system (copyright 1983,
 Carnegie Mellon University). Gaussian is a federally registered
 trademark of Gaussian, Inc.
  
 This software contains proprietary and confidential information,
 including trade secrets, belonging to Gaussian, Inc.
  
 This software is provided under written license and may be
 used, copied, transmitted, or stored only in accord with that
 written license.
  
 The following legend is applicable only to US Government
 contracts under FAR:
  
                    RESTRICTED RIGHTS LEGEND
  
 Use, reproduction and disclosure by the US Government is
 subject to restrictions as set forth in subparagraphs (a)
 and (c) of the Commercial Computer Software - Restricted
 Rights clause in FAR 52.227-19.
  
 Gaussian, Inc.
 340 Quinnipiac St., Bldg. 40, Wallingford CT 06492
  
  
 ---------------------------------------------------------------
 Warning -- This program may not be used in any manner that
 competes with the business of Gaussian, Inc. or will provide
 assistance to any competitor of Gaussian, Inc.  The licensee
 of this program is prohibited from giving any competitor of
 Gaussian, Inc. access to this program.  By using this program,
 the user acknowledges that Gaussian, Inc. is engaged in the
 business of creating and licensing software in the field of
 computational chemistry and represents and warrants to the
 licensee that it is not a competitor of Gaussian, Inc. and that
 it will not use this program in any manner prohibited above.
 ---------------------------------------------------------------
  

 Cite this work as:
 Gaussian 09, Revision D.01,
 M. J. Frisch, G. W. Trucks, H. B. Schlegel, G. E. Scuseria, 
 M. A. Robb, J. R. Cheeseman, G. Scalmani, V. Barone, B. Mennucci, 
 G. A. Petersson, H. Nakatsuji, M. Caricato, X. Li, H. P. Hratchian, 
 A. F. Izmaylov, J. Bloino, G. Zheng, J. L. Sonnenberg, M. Hada, 
 M. Ehara, K. Toyota, R. Fukuda, J. Hasegawa, M. Ishida, T. Nakajima, 
 Y. Honda, O. Kitao, H. Nakai, T. Vreven, J. A. Montgomery, Jr., 
 J. E. Peralta, F. Ogliaro, M. Bearpark, J. J. Heyd, E. Brothers, 
 K. N. Kudin, V. N. Staroverov, T. Keith, R. Kobayashi, J. Normand, 
 K. Raghavachari, A. Rendell, J. C. Burant, S. S. Iyengar, J. Tomasi, 
 M. Cossi, N. Rega, J. M. Millam, M. Klene, J. E. Knox, J. B. Cross, 
 V. Bakken, C. Adamo, J. Jaramillo, R. Gomperts, R. E. Stratmann, 
 O. Yazyev, A. J. Austin, R. Cammi, C. Pomelli, J. W. Ochterski, 
 R. L. Martin, K. Morokuma, V. G. Zakrzewski, G. A. Voth, 
 P. Salvador, J. J. Dannenberg, S. Dapprich, A. D. Daniels, 
 O. Farkas, J. B. Foresman, J. V. Ortiz, J. Cioslowski, 
 and D. J. Fox, Gaussian, Inc., Wallingford CT, 2013.
 
 ******************************************
 Gaussian 09:  EM64L-G09RevD.01 24-Apr-2013
                21-Apr-2020 
 ******************************************
 %mem=4000MB
 ------------------------------------------
 # PBE1PBE/Def2SVP Opt Geom=ModRedun NoSymm
 ------------------------------------------
 1/14=-1,18=120,19=15,26=3,38=1/1,3;
 2/9=110,12=2,15=1,17=6,18=5,40=1/2;
 3/5=43,7=101,11=2,16=1,25=1,30=1,71=1,74=-13/1,2,3;
 4//1;
 5/5=2,38=5/2;
 6/7=2,8=2,9=2,10=2,28=1/1;
 7/30=1/1,2,3,16;
 1/14=-1,18=20,19=15,26=3/3(2);
 2/9=110,15=1/2;
 99//99;
 2/9=110,15=1/2;
 3/5=43,7=101,11=2,16=1,25=1,30=1,71=1,74=-13/1,2,3;
 4/5=5,16=3,69=1/1;
 5/5=2,38=5/2;
 7/30=1/1,2,3,16;
 1/14=-1,18=20,19=15,26=3/3(-5);
 2/9=110,15=1/2;
 6/7=2,8=2,9=2,10=2,19=2,28=1/1;
 99/9=1/99;
 --------------
 const_dist_opt
 --------------
 Symbolic Z-matrix:
 Charge =  0 Multiplicity = 1
 C                    -0.0221    0.0032    0.0165 
 H                    -0.669     0.8894   -0.1009 
 H                    -0.3778   -0.8578   -0.5883 
 H                     0.0964   -0.3151    1.0638 
 H                     0.9725    0.2803   -0.3911 
 
 The following ModRedundant input section has been read:
 B       1       2 1.2000 B                                                    
 B       1       2 F                                                           
 
 Iteration  1 RMS(Cart)=  0.04360745 RMS(Int)=  0.00002284
 Iteration  2 RMS(Cart)=  0.00002164 RMS(Int)=  0.00000000
 Iteration  3 RMS(Cart)=  0.00000000 RMS(Int)=  0.00000000
 Iteration  1 RMS(Cart)=  0.00000000 RMS(Int)=  0.00000000

 GradGradGradGradGradGradGradGradGradGradGradGradGradGradGradGradGradGrad
 Berny optimization.
 Initialization pass.
                           ----------------------------
                           !    Initial Parameters    !
                           ! (Angstroms and Degrees)  !
 --------------------------                            --------------------------
 ! Name  Definition              Value          Derivative Info.                !
 --------------------------------------------------------------------------------
 ! R1    R(1,2)                  1.2            Frozen                          !
 ! R2    R(1,3)                  1.1107         estimate D2E/DX2                !
 ! R3    R(1,4)                  1.101          estimate D2E/DX2                !
 ! R4    R(1,5)                  1.11           estimate D2E/DX2                !
 ! A1    A(2,1,3)              112.1411         estimate D2E/DX2                !
 ! A2    A(2,1,4)              113.3585         estimate D2E/DX2                !
 ! A3    A(2,1,5)              106.6029         estimate D2E/DX2                !
 ! A4    A(3,1,4)              109.1674         estimate D2E/DX2                !
 ! A5    A(3,1,5)              106.291          estimate D2E/DX2                !
 ! A6    A(4,1,5)              108.9669         estimate D2E/DX2                !
 ! D1    D(2,1,4,3)            125.7854         estimate D2E/DX2                !
 ! D2    D(2,1,5,3)           -119.7936         estimate D2E/DX2                !
 ! D3    D(2,1,5,4)            122.681          estimate D2E/DX2                !
 ! D4    D(3,1,5,4)           -117.5254         estimate D2E/DX2                !
 --------------------------------------------------------------------------------
 Trust Radius=3.00D-01 FncErr=1.00D-07 GrdErr=1.00D-06
 Number of steps in this run=     24 maximum allowed number of steps=    100.
 GradGradGradGradGradGradGradGradGradGradGradGradGradGradGradGradGradGrad

                          Input orientation:                          
 ---------------------------------------------------------------------
 Center     Atomic      Atomic             Coordinates (Angstroms)
 Number     Number       Type             X           Y           Z
 ---------------------------------------------------------------------
      1          6           0       -0.010768   -0.012319    0.018553
      2          1           0       -0.714749    0.951146   -0.108511
      3          1           0       -0.366286   -0.873252   -0.586449
      4          1           0        0.108237   -0.330961    1.065692
      5          1           0        0.983565    0.265386   -0.389285
 ---------------------------------------------------------------------
                    Distance matrix (angstroms):
                    1          2          3          4          5
     1  C    0.000000
     2  H    1.200000   0.000000
     3  H    1.110687   1.917884   0.000000
     4  H    1.100997   1.923502   1.802449   0.000000
     5  H    1.110023   1.852936   1.776927   1.799663   0.000000
 Symmetry turned off by external request.
 Stoichiometry    CH4
 Framework group  C1[X(CH4)]
 Deg. of freedom     9
 Full point group                 C1      NOp   1
 Rotational constants (GHZ):    156.9119866    143.9739735    141.0447259
 Standard basis: def2SVP (5D, 7F)
    34 basis functions,    53 primitive gaussians,    35 cartesian basis functions
     5 alpha electrons        5 beta electrons
       nuclear repulsion energy        12.9707501277 Hartrees.
 NAtoms=    5 NActive=    5 NUniq=    5 SFac= 1.00D+00 NAtFMM=   60 NAOKFM=F Big=F
 Integral buffers will be    131072 words long.
 Raffenetti 2 integral format.
 Two-electron integral symmetry is turned off.
 One-electron integrals computed using PRISM.
   1 Symmetry operations used in ECPInt.
 ECPInt:  NShTT=     171 NPrTT=     553 LenC2=     172 LenP2D=     539.
 LDataN:  DoStor=T MaxTD1= 4 Len=   56
 NBasis=    34 RedAO= T EigKep=  1.53D-02  NBF=    34
 NBsUse=    34 1.00D-06 EigRej= -1.00D+00 NBFU=    34
 ExpMin= 1.22D-01 ExpMax= 1.24D+03 ExpMxC= 1.86D+02 IAcc=1 IRadAn=         1 AccDes= 0.00D+00
 Harris functional with IExCor= 1009 and IRadAn=       1 diagonalized for initial guess.
 HarFok:  IExCor= 1009 AccDes= 0.00D+00 IRadAn=         1 IDoV= 1 UseB2=F ITyADJ=14
 ICtDFT=  3500011 ScaDFX=  1.000000  1.000000  1.000000  1.000000
 FoFCou: FMM=F IPFlag=           0 FMFlag=      100000 FMFlg1=           0
         NFxFlg=           0 DoJE=T BraDBF=F KetDBF=T FulRan=T
         wScrn=  0.000000 ICntrl=     500 IOpCl=  0 I1Cent=   200000004 NGrid=           0
         NMat0=    1 NMatS0=      1 NMatT0=    0 NMatD0=    1 NMtDS0=    0 NMtDT0=    0
 Symmetry not used in FoFCou.
 Keep R1 ints in memory in canonical form, NReq=1060299.
 Requested convergence on RMS density matrix=1.00D-08 within 128 cycles.
 Requested convergence on MAX density matrix=1.00D-06.
 Requested convergence on             energy=1.00D-06.
 No special actions if energy rises.
 Integral accuracy reduced to 1.0D-05 until final iterations.
 Initial convergence to 1.0D-05 achieved.  Increase integral accuracy.
 SCF Done:  E(RPBE1PBE) =  -40.4220143374     A.U. after    9 cycles
            NFock=  9  Conv=0.82D-08     -V/T= 2.0185

 **********************************************************************

            Population analysis using the SCF density.

 **********************************************************************

 Alpha  occ. eigenvalues --  -10.23167  -0.69400  -0.40205  -0.39601  -0.38459
 Alpha virt. eigenvalues --    0.07882   0.13801   0.15289   0.15504   0.42820
 Alpha virt. eigenvalues --    0.43308   0.45071   0.63037   0.67787   0.69231
 Alpha virt. eigenvalues --    0.69720   0.77936   1.10124   1.11266   1.50198
 Alpha virt. eigenvalues --    1.51763   1.54223   1.67525   1.76000   1.77586
 Alpha virt. eigenvalues --    2.05026   2.10109   2.12899   2.47259   2.47776
 Alpha virt. eigenvalues --    2.52989   2.81895   2.90895   2.91865
          Condensed to atoms (all electrons):
               1          2          3          4          5
     1  C    4.656207   0.391923   0.402502   0.405682   0.399710
     2  H    0.391923   0.597116  -0.019240  -0.019030  -0.023485
     3  H    0.402502  -0.019240   0.599944  -0.022161  -0.022941
     4  H    0.405682  -0.019030  -0.022161   0.592211  -0.021146
     5  H    0.399710  -0.023485  -0.022941  -0.021146   0.610897
 Mulliken charges:
               1
     1  C   -0.256023
     2  H    0.072717
     3  H    0.061897
     4  H    0.064444
     5  H    0.056965
 Sum of Mulliken charges =   0.00000
 Mulliken charges with hydrogens summed into heavy atoms:
               1
     1  C    0.000000
 Electronic spatial extent (au):  <R**2>=             36.9300
 Charge=              0.0000 electrons
 Dipole moment (field-independent basis, Debye):
    X=              0.0729    Y=             -0.0416    Z=             -0.0200  Tot=              0.0863
 Quadrupole moment (field-independent basis, Debye-Ang):
   XX=             -8.5116   YY=             -8.2210   ZZ=             -8.3568
   XY=             -0.1054   XZ=              0.0355   YZ=             -0.0633
 Traceless Quadrupole moment (field-independent basis, Debye-Ang):
   XX=             -0.1485   YY=              0.1421   ZZ=              0.0063
   XY=             -0.1054   XZ=              0.0355   YZ=             -0.0633
 Octapole moment (field-independent basis, Debye-Ang**2):
  XXX=              0.7493  YYY=              0.0800  ZZZ=              0.4206  XYY=             -0.4670
  XXY=              0.3989  XXZ=             -0.4069  XZZ=              0.2532  YZZ=             -0.4860
  YYZ=             -0.4112  XYZ=             -0.1565
 Hexadecapole moment (field-independent basis, Debye-Ang**3):
 XXXX=            -16.2901 YYYY=            -16.8229 ZZZZ=            -15.5250 XXXY=              0.3635
 XXXZ=             -0.3855 YYYX=             -0.0205 YYYZ=              0.3583 ZZZX=              0.1334
 ZZZY=             -0.1805 XXYY=             -5.2943 XXZZ=             -5.5511 YYZZ=             -5.4651
 XXYZ=             -0.0848 YYXZ=              0.2432 ZZXY=              0.2537
 N-N= 1.297075012771D+01 E-N=-1.185787541651D+02  KE= 3.968956304064D+01
   1 Symmetry operations used in ECPInt.
 ECPInt:  NShTT=     171 NPrTT=     553 LenC2=     172 LenP2D=     539.
 LDataN:  DoStor=T MaxTD1= 5 Len=  102
 Calling FoFJK, ICntrl=      2127 FMM=F ISym2X=0 I1Cent= 0 IOpClX= 0 NMat=1 NMatS=1 NMatT=0.
 -------------------------------------------------------------------
 Center     Atomic                   Forces (Hartrees/Bohr)
 Number     Number              X              Y              Z
 -------------------------------------------------------------------
      1        6          -0.015141671    0.032213662   -0.016041526
      2        1           0.026818138   -0.044571706    0.008313005
      3        1          -0.003132198    0.008376637    0.004443317
      4        1          -0.003606928    0.004623938   -0.001008814
      5        1          -0.004937340   -0.000642531    0.004294018
 -------------------------------------------------------------------
 Cartesian Forces:  Max     0.044571706 RMS     0.017277414

 GradGradGradGradGradGradGradGradGradGradGradGradGradGradGradGradGradGrad
 Berny optimization.
 FormGI is forming the generalized inverse of G from B-inverse, IUseBI=4.
 Internal  Forces:  Max     0.052399195 RMS     0.014518911
 Search for a local minimum.
 Step number   1 out of a maximum of   24
 All quantities printed in internal units (Hartrees-Bohrs-Radians)
 Mixed Optimization -- RFO/linear search
 Second derivative matrix not updated -- first step.
 The second derivative matrix:
                          R1        R2        R3        R4        A1
           R1           0.24665
           R2           0.00000   0.32527
           R3           0.00000   0.00000   0.33572
           R4           0.00000   0.00000   0.00000   0.32598
           A1           0.00000   0.00000   0.00000   0.00000   0.16000
           A2           0.00000   0.00000   0.00000   0.00000   0.00000
           A3           0.00000   0.00000   0.00000   0.00000   0.00000
           A4           0.00000   0.00000   0.00000   0.00000   0.00000
           A5           0.00000   0.00000   0.00000   0.00000   0.00000
           A6           0.00000   0.00000   0.00000   0.00000   0.00000
           D1           0.00000   0.00000   0.00000   0.00000   0.00000
           D2           0.00000   0.00000   0.00000   0.00000   0.00000
           D3           0.00000   0.00000   0.00000   0.00000   0.00000
           D4           0.00000   0.00000   0.00000   0.00000   0.00000
                          A2        A3        A4        A5        A6
           A2           0.16000
           A3           0.00000   0.16000
           A4           0.00000   0.00000   0.16000
           A5           0.00000   0.00000   0.00000   0.16000
           A6           0.00000   0.00000   0.00000   0.00000   0.16000
           D1           0.00000   0.00000   0.00000   0.00000   0.00000
           D2           0.00000   0.00000   0.00000   0.00000   0.00000
           D3           0.00000   0.00000   0.00000   0.00000   0.00000
           D4           0.00000   0.00000   0.00000   0.00000   0.00000
                          D1        D2        D3        D4
           D1           0.00230
           D2           0.00000   0.00230
           D3           0.00000   0.00000   0.00230
           D4           0.00000   0.00000   0.00000   0.00230
 ITU=  0
     Eigenvalues ---    0.05261   0.06033   0.08289   0.16000   0.16000
     Eigenvalues ---    0.32527   0.32598   0.335721000.000001000.00000
     Eigenvalues --- 1000.000001000.000001000.000001000.00000
 RFO step:  Lambda=-1.63802371D-03 EMin= 5.26103389D-02
 Linear search not attempted -- first point.
 Iteration  1 RMS(Cart)=  0.02458126 RMS(Int)=  0.00091727
 Iteration  2 RMS(Cart)=  0.00068804 RMS(Int)=  0.00058922
 Iteration  3 RMS(Cart)=  0.00000026 RMS(Int)=  0.00058922
 Iteration  1 RMS(Cart)=  0.00000000 RMS(Int)=  0.00000000
 Variable       Old X    -DE/DX   Delta X   Delta X   Delta X     New X
                                 (Linear)    (Quad)   (Total)
    R1        2.26767  -0.05240   0.00000   0.00000   0.00000   2.26767
    R2        2.09890  -0.00791   0.00000  -0.02420  -0.02420   2.07470
    R3        2.08058  -0.00269   0.00000  -0.00797  -0.00797   2.07262
    R4        2.09764  -0.00616   0.00000  -0.01881  -0.01881   2.07883
    A1        1.95723  -0.00264   0.00000  -0.04098  -0.04217   1.91506
    A2        1.97848  -0.00403   0.00000  -0.05245  -0.05266   1.92582
    A3        1.86057   0.00337   0.00000   0.02949   0.02952   1.89010
    A4        1.90533   0.00060   0.00000   0.01167   0.01028   1.91561
    A5        1.85513   0.00345   0.00000   0.04710   0.04655   1.90168
    A6        1.90183  -0.00014   0.00000   0.01370   0.01341   1.91524
    D1        2.19537  -0.00599   0.00000  -0.08362  -0.08285   2.11252
    D2       -2.09079  -0.00041   0.00000   0.00853   0.00857  -2.08223
    D3        2.14119  -0.00291   0.00000  -0.03757  -0.03803   2.10316
    D4       -2.05121  -0.00250   0.00000  -0.04610  -0.04660  -2.09780
         Item               Value     Threshold  Converged?
 Maximum Force            0.007911     0.000450     NO 
 RMS     Force            0.003976     0.000300     NO 
 Maximum Displacement     0.046088     0.001800     NO 
 RMS     Displacement     0.024769     0.001200     NO 
 Predicted change in Energy=-8.316657D-04
 GradGradGradGradGradGradGradGradGradGradGradGradGradGradGradGradGradGrad

                          Input orientation:                          
 ---------------------------------------------------------------------
 Center     Atomic      Atomic             Coordinates (Angstroms)
 Number     Number       Type             X           Y           Z
 ---------------------------------------------------------------------
      1          6           0        0.008923   -0.018419    0.007160
      2          1           0       -0.722862    0.926758   -0.098347
      3          1           0       -0.382081   -0.857474   -0.583135
      4          1           0        0.098929   -0.315349    1.059139
      5          1           0        0.997091    0.264484   -0.384817
 ---------------------------------------------------------------------
                    Distance matrix (angstroms):
                    1          2          3          4          5
     1  C    0.000000
     2  H    1.200000   0.000000
     3  H    1.097882   1.880062   0.000000
     4  H    1.096781   1.886251   1.795086   0.000000
     5  H    1.100071   1.865184   1.788920   1.796640   0.000000
 Symmetry turned off by external request.
 Stoichiometry    CH4
 Framework group  C1[X(CH4)]
 Deg. of freedom     9
 Full point group                 C1      NOp   1
 Rotational constants (GHZ):    155.9921016    145.6912948    144.9767920
 Standard basis: def2SVP (5D, 7F)
    34 basis functions,    53 primitive gaussians,    35 cartesian basis functions
     5 alpha electrons        5 beta electrons
       nuclear repulsion energy        13.0498640933 Hartrees.
 NAtoms=    5 NActive=    5 NUniq=    5 SFac= 1.00D+00 NAtFMM=   60 NAOKFM=F Big=F
 Integral buffers will be    131072 words long.
 Raffenetti 2 integral format.
 Two-electron integral symmetry is turned off.
 One-electron integrals computed using PRISM.
   1 Symmetry operations used in ECPInt.
 ECPInt:  NShTT=     171 NPrTT=     553 LenC2=     172 LenP2D=     539.
 LDataN:  DoStor=T MaxTD1= 4 Len=   56
 NBasis=    34 RedAO= T EigKep=  1.51D-02  NBF=    34
 NBsUse=    34 1.00D-06 EigRej= -1.00D+00 NBFU=    34
 Initial guess from the checkpoint file:  "/tmp/tmp11q64dvc/Gau-118112.chk"
 B after Tr=     0.018600   -0.005758   -0.010765
         Rot=    1.000000   -0.000090   -0.000087   -0.000114 Ang=  -0.02 deg.
 ExpMin= 1.22D-01 ExpMax= 1.24D+03 ExpMxC= 1.86D+02 IAcc=1 IRadAn=         1 AccDes= 0.00D+00
 Harris functional with IExCor= 1009 and IRadAn=       1 diagonalized for initial guess.
 HarFok:  IExCor= 1009 AccDes= 0.00D+00 IRadAn=         1 IDoV= 1 UseB2=F ITyADJ=14
 ICtDFT=  3500011 ScaDFX=  1.000000  1.000000  1.000000  1.000000
 FoFCou: FMM=F IPFlag=           0 FMFlag=      100000 FMFlg1=           0
         NFxFlg=           0 DoJE=T BraDBF=F KetDBF=T FulRan=T
         wScrn=  0.000000 ICntrl=     500 IOpCl=  0 I1Cent=   200000004 NGrid=           0
         NMat0=    1 NMatS0=      1 NMatT0=    0 NMatD0=    1 NMtDS0=    0 NMtDT0=    0
 Symmetry not used in FoFCou.
 Keep R1 ints in memory in canonical form, NReq=1060299.
 Requested convergence on RMS density matrix=1.00D-08 within 128 cycles.
 Requested convergence on MAX density matrix=1.00D-06.
 Requested convergence on             energy=1.00D-06.
 No special actions if energy rises.
 Integral accuracy reduced to 1.0D-05 until final iterations.
 Initial convergence to 1.0D-05 achieved.  Increase integral accuracy.
 SCF Done:  E(RPBE1PBE) =  -40.4230564883     A.U. after    9 cycles
            NFock=  9  Conv=0.10D-08     -V/T= 2.0176
   1 Symmetry operations used in ECPInt.
 ECPInt:  NShTT=     171 NPrTT=     553 LenC2=     172 LenP2D=     539.
 LDataN:  DoStor=T MaxTD1= 5 Len=  102
 Calling FoFJK, ICntrl=      2127 FMM=F ISym2X=0 I1Cent= 0 IOpClX= 0 NMat=1 NMatS=1 NMatT=0.
 -------------------------------------------------------------------
 Center     Atomic                   Forces (Hartrees/Bohr)
 Number     Number              X              Y              Z
 -------------------------------------------------------------------
      1        6          -0.026366758    0.038607888   -0.007351172
      2        1           0.030290475   -0.041131978    0.005528370
      3        1          -0.001785775    0.000799298   -0.000057256
      4        1          -0.001200675    0.001417245    0.000978112
      5        1          -0.000937267    0.000307546    0.000901946
 -------------------------------------------------------------------
 Cartesian Forces:  Max     0.041131978 RMS     0.018055017

 GradGradGradGradGradGradGradGradGradGradGradGradGradGradGradGradGradGrad
 Berny optimization.
 Using GEDIIS/GDIIS optimizer.
 FormGI is forming the generalized inverse of G from B-inverse, IUseBI=4.
 Internal  Forces:  Max     0.051355313 RMS     0.013755103
 Search for a local minimum.
 Step number   2 out of a maximum of   24
 All quantities printed in internal units (Hartrees-Bohrs-Radians)
 Mixed Optimization -- En-DIIS/RFO-DIIS
 Update second derivatives using D2CorX and points    1    2
 DE= -1.04D-03 DEPred=-8.32D-04 R= 1.25D+00
 TightC=F SS=  1.41D+00  RLast= 1.39D-01 DXNew= 5.0454D-01 4.1820D-01
 Trust test= 1.25D+00 RLast= 1.39D-01 DXMaxT set to 4.18D-01
 The second derivative matrix:
                          R1        R2        R3        R4        A1
           R1           0.24756
           R2           0.00695   0.33983
           R3           0.00274   0.00785   0.33953
           R4           0.00443   0.00383   0.00315   0.32418
           A1           0.00163  -0.02051  -0.00629  -0.01773   0.13467
           A2           0.00225  -0.02397  -0.00720  -0.02110  -0.03124
           A3          -0.00229   0.00559   0.00094   0.00683   0.01567
           A4          -0.00037   0.00522   0.00162   0.00446   0.00623
           A5          -0.00207   0.02055   0.00611   0.01824   0.02747
           A6           0.00035   0.01313   0.00461   0.00985   0.00961
           D1           0.00368   0.02712   0.01075   0.01715   0.00579
           D2           0.00025   0.00203   0.00079   0.00130   0.00054
           D3           0.00153   0.01125   0.00446   0.00711   0.00238
           D4           0.00128   0.00922   0.00367   0.00580   0.00184
                          A2        A3        A4        A5        A6
           A2           0.12152
           A3           0.01903   0.15192
           A4           0.00769  -0.00389   0.15847
           A5           0.03381  -0.01661  -0.00676   0.13031
           A6           0.01207  -0.00716  -0.00233  -0.01071   0.15728
           D1           0.00810  -0.00869  -0.00130  -0.00750   0.00166
           D2           0.00073  -0.00069  -0.00012  -0.00067   0.00007
           D3           0.00333  -0.00359  -0.00053  -0.00308   0.00070
           D4           0.00260  -0.00290  -0.00041  -0.00242   0.00063
                          D1        D2        D3        D4
           D1           0.01712
           D2           0.00102   0.00237
           D3           0.00617   0.00043   0.00487
           D4           0.00515   0.00036   0.00214   0.00409
 ITU=  1  0
 Use linear search instead of GDIIS.
     Eigenvalues ---    0.04370   0.05410   0.07547   0.15975   0.16040
     Eigenvalues ---    0.32340   0.33190   0.348621000.000001000.00000
     Eigenvalues --- 1000.000001000.000001000.000001000.00000
 RFO step:  Lambda=-5.07545512D-05 EMin= 4.36997402D-02
 Quartic linear search produced a step of  0.35885.
 Iteration  1 RMS(Cart)=  0.01125458 RMS(Int)=  0.00036611
 Iteration  2 RMS(Cart)=  0.00013922 RMS(Int)=  0.00033784
 Iteration  3 RMS(Cart)=  0.00000002 RMS(Int)=  0.00033784
 Iteration  1 RMS(Cart)=  0.00000000 RMS(Int)=  0.00000000
 Variable       Old X    -DE/DX   Delta X   Delta X   Delta X     New X
                                 (Linear)    (Quad)   (Total)
    R1        2.26767  -0.05136   0.00000   0.00000   0.00000   2.26767
    R2        2.07470   0.00006  -0.00868   0.00831  -0.00037   2.07432
    R3        2.07262   0.00046  -0.00286   0.00450   0.00165   2.07426
    R4        2.07883  -0.00108  -0.00675   0.00176  -0.00499   2.07384
    A1        1.91506  -0.00077  -0.01513  -0.00244  -0.01814   1.89692
    A2        1.92582  -0.00145  -0.01890  -0.00844  -0.02741   1.89841
    A3        1.89010   0.00075   0.01059  -0.00155   0.00908   1.89918
    A4        1.91561   0.00018   0.00369   0.00388   0.00672   1.92233
    A5        1.90168   0.00107   0.01670   0.00513   0.02146   1.92314
    A6        1.91524   0.00026   0.00481   0.00351   0.00808   1.92331
    D1        2.11252  -0.00177  -0.02973  -0.00594  -0.03529   2.07724
    D2       -2.08223  -0.00012   0.00307   0.00090   0.00405  -2.07818
    D3        2.10316  -0.00116  -0.01365  -0.00913  -0.02306   2.08010
    D4       -2.09780  -0.00104  -0.01672  -0.01003  -0.02710  -2.12490
         Item               Value     Threshold  Converged?
 Maximum Force            0.001775     0.000450     NO 
 RMS     Force            0.000939     0.000300     NO 
 Maximum Displacement     0.019745     0.001800     NO 
 RMS     Displacement     0.011275     0.001200     NO 
 Predicted change in Energy=-1.078164D-04
 GradGradGradGradGradGradGradGradGradGradGradGradGradGradGradGradGradGrad

                          Input orientation:                          
 ---------------------------------------------------------------------
 Center     Atomic      Atomic             Coordinates (Angstroms)
 Number     Number       Type             X           Y           Z
 ---------------------------------------------------------------------
      1          6           0        0.017809   -0.021799    0.002266
      2          1           0       -0.724471    0.916309   -0.092457
      3          1           0       -0.390710   -0.854206   -0.585206
      4          1           0        0.093706   -0.306806    1.059551
      5          1           0        1.003665    0.266503   -0.384154
 ---------------------------------------------------------------------
                    Distance matrix (angstroms):
                    1          2          3          4          5
     1  C    0.000000
     2  H    1.200000   0.000000
     3  H    1.097685   1.867865   0.000000
     4  H    1.097652   1.868836   1.799869   0.000000
     5  H    1.097429   1.869168   1.800191   1.800276   0.000000
 Symmetry turned off by external request.
 Stoichiometry    CH4
 Framework group  C1[X(CH4)]
 Deg. of freedom     9
 Full point group                 C1      NOp   1
 Rotational constants (GHZ):    154.7513010    146.1029360    146.0648377
 Standard basis: def2SVP (5D, 7F)
    34 basis functions,    53 primitive gaussians,    35 cartesian basis functions
     5 alpha electrons        5 beta electrons
       nuclear repulsion energy        13.0556544372 Hartrees.
 NAtoms=    5 NActive=    5 NUniq=    5 SFac= 1.00D+00 NAtFMM=   60 NAOKFM=F Big=F
 Integral buffers will be    131072 words long.
 Raffenetti 2 integral format.
 Two-electron integral symmetry is turned off.
 One-electron integrals computed using PRISM.
   1 Symmetry operations used in ECPInt.
 ECPInt:  NShTT=     171 NPrTT=     553 LenC2=     172 LenP2D=     539.
 LDataN:  DoStor=T MaxTD1= 4 Len=   56
 NBasis=    34 RedAO= T EigKep=  1.51D-02  NBF=    34
 NBsUse=    34 1.00D-06 EigRej= -1.00D+00 NBFU=    34
 Initial guess from the checkpoint file:  "/tmp/tmp11q64dvc/Gau-118112.chk"
 B after Tr=     0.008394   -0.003195   -0.004622
         Rot=    1.000000   -0.000041   -0.000039   -0.000049 Ang=  -0.01 deg.
 Keep R1 ints in memory in canonical form, NReq=1060299.
 Requested convergence on RMS density matrix=1.00D-08 within 128 cycles.
 Requested convergence on MAX density matrix=1.00D-06.
 Requested convergence on             energy=1.00D-06.
 No special actions if energy rises.
 SCF Done:  E(RPBE1PBE) =  -40.4231640470     A.U. after    7 cycles
            NFock=  7  Conv=0.10D-08     -V/T= 2.0176
   1 Symmetry operations used in ECPInt.
 ECPInt:  NShTT=     171 NPrTT=     553 LenC2=     172 LenP2D=     539.
 LDataN:  DoStor=T MaxTD1= 5 Len=  102
 Calling FoFJK, ICntrl=      2127 FMM=F ISym2X=0 I1Cent= 0 IOpClX= 0 NMat=1 NMatS=1 NMatT=0.
 -------------------------------------------------------------------
 Center     Atomic                   Forces (Hartrees/Bohr)
 Number     Number              X              Y              Z
 -------------------------------------------------------------------
      1        6          -0.031432244    0.039242336   -0.003954958
      2        1           0.031464011   -0.039611192    0.004037550
      3        1          -0.000025524    0.000054950   -0.000039274
      4        1          -0.000056682    0.000133071    0.000029482
      5        1           0.000050440    0.000180835   -0.000072800
 -------------------------------------------------------------------
 Cartesian Forces:  Max     0.039611192 RMS     0.018473384

 GradGradGradGradGradGradGradGradGradGradGradGradGradGradGradGradGradGrad
 Berny optimization.
 Using GEDIIS/GDIIS optimizer.
 FormGI is forming the generalized inverse of G from B-inverse, IUseBI=4.
 Internal  Forces:  Max     0.050747633 RMS     0.013563077
 Search for a local minimum.
 Step number   3 out of a maximum of   24
 All quantities printed in internal units (Hartrees-Bohrs-Radians)
 Mixed Optimization -- En-DIIS/RFO-DIIS
 Swapping is turned off.
 Update second derivatives using D2CorX and points    1    2    3
 DE= -1.08D-04 DEPred=-1.08D-04 R= 9.98D-01
 TightC=F SS=  1.41D+00  RLast= 6.55D-02 DXNew= 7.0332D-01 1.9647D-01
 Trust test= 9.98D-01 RLast= 6.55D-02 DXMaxT set to 4.18D-01
 The second derivative matrix:
                          R1        R2        R3        R4        A1
           R1           0.24873
           R2           0.00771   0.33980
           R3           0.00262   0.00781   0.33953
           R4           0.00633   0.00425   0.00305   0.32592
           A1           0.00222  -0.02100  -0.00624  -0.01826   0.13335
           A2           0.00242  -0.02601  -0.00695  -0.02446  -0.03514
           A3          -0.00411   0.00450   0.00112   0.00401   0.01492
           A4           0.00041   0.00664   0.00143   0.00727   0.00831
           A5          -0.00244   0.02175   0.00597   0.02008   0.02994
           A6           0.00053   0.01358   0.00454   0.01071   0.01031
           D1           0.00637   0.02805   0.01058   0.02015   0.00563
           D2           0.00052   0.00217   0.00077   0.00169   0.00062
           D3           0.00357   0.01259   0.00426   0.01046   0.00343
           D4           0.00306   0.01042   0.00348   0.00876   0.00280
                          A2        A3        A4        A5        A6
           A2           0.11174
           A3           0.01916   0.15474
           A4           0.01197  -0.00527   0.15721
           A5           0.04030  -0.01630  -0.00979   0.12605
           A6           0.01362  -0.00751  -0.00285  -0.01178   0.15707
           D1           0.00476  -0.01274   0.00207  -0.00585   0.00266
           D2           0.00066  -0.00110   0.00010  -0.00068   0.00013
           D3           0.00368  -0.00678   0.00080  -0.00376   0.00101
           D4           0.00302  -0.00568   0.00070  -0.00308   0.00089
                          D1        D2        D3        D4
           D1           0.02191
           D2           0.00159   0.00243
           D3           0.01090   0.00089   0.00844
           D4           0.00931   0.00076   0.00525   0.00679
 ITU=  1  1  0
     Eigenvalues ---    0.04230   0.05346   0.07723   0.15994   0.16090
     Eigenvalues ---    0.32479   0.33200   0.348761000.000001000.00000
     Eigenvalues --- 1000.000001000.000001000.000001000.00000
 En-DIIS/RFO-DIIS IScMMF=        0 using points:     3    2
 RFO step:  Lambda=-8.16921974D-05.
 DidBck=F Rises=F RFO-DIIS coefs:    1.02672   -0.02672
 Iteration  1 RMS(Cart)=  0.00066516 RMS(Int)=  0.00000404
 Iteration  2 RMS(Cart)=  0.00000062 RMS(Int)=  0.00000399
 Iteration  1 RMS(Cart)=  0.00000000 RMS(Int)=  0.00000000
 Variable       Old X    -DE/DX   Delta X   Delta X   Delta X     New X
                                 (Linear)    (Quad)   (Total)
    R1        2.26767  -0.05075   0.00000   0.00000   0.00000   2.26767
    R2        2.07432  -0.00001  -0.00001  -0.00005  -0.00006   2.07426
    R3        2.07426  -0.00001   0.00004  -0.00007  -0.00003   2.07423
    R4        2.07384   0.00012  -0.00013   0.00046   0.00032   2.07416
    A1        1.89692   0.00003  -0.00048   0.00044  -0.00005   1.89687
    A2        1.89841  -0.00004  -0.00073  -0.00045  -0.00118   1.89723
    A3        1.89918  -0.00015   0.00024  -0.00167  -0.00143   1.89775
    A4        1.92233   0.00003   0.00018   0.00100   0.00117   1.92350
    A5        1.92314   0.00005   0.00057   0.00022   0.00078   1.92392
    A6        1.92331   0.00008   0.00022   0.00042   0.00063   1.92395
    D1        2.07724   0.00003  -0.00094   0.00086  -0.00009   2.07715
    D2       -2.07818   0.00003   0.00011   0.00036   0.00047  -2.07771
    D3        2.08010  -0.00010  -0.00062  -0.00132  -0.00194   2.07816
    D4       -2.12490  -0.00012  -0.00072  -0.00168  -0.00241  -2.12731
         Item               Value     Threshold  Converged?
 Maximum Force            0.000152     0.000450     YES
 RMS     Force            0.000077     0.000300     YES
 Maximum Displacement     0.001141     0.001800     YES
 RMS     Displacement     0.000665     0.001200     YES
 Predicted change in Energy=-4.677329D-07
 Optimization completed.
    -- Stationary point found.
                           ----------------------------
                           !   Optimized Parameters   !
                           ! (Angstroms and Degrees)  !
 --------------------------                            --------------------------
 ! Name  Definition              Value          Derivative Info.                !
 --------------------------------------------------------------------------------
 ! R1    R(1,2)                  1.2            -DE/DX =   -0.0507              !
 ! R2    R(1,3)                  1.0977         -DE/DX =    0.0                 !
 ! R3    R(1,4)                  1.0977         -DE/DX =    0.0                 !
 ! R4    R(1,5)                  1.0974         -DE/DX =    0.0001              !
 ! A1    A(2,1,3)              108.6856         -DE/DX =    0.0                 !
 ! A2    A(2,1,4)              108.7711         -DE/DX =    0.0                 !
 ! A3    A(2,1,5)              108.8149         -DE/DX =   -0.0002              !
 ! A4    A(3,1,4)              110.1416         -DE/DX =    0.0                 !
 ! A5    A(3,1,5)              110.1877         -DE/DX =    0.0                 !
 ! A6    A(4,1,5)              110.1978         -DE/DX =    0.0001              !
 ! D1    D(2,1,4,3)            119.0168         -DE/DX =    0.0                 !
 ! D2    D(2,1,5,3)           -119.0708         -DE/DX =    0.0                 !
 ! D3    D(2,1,5,4)            119.1812         -DE/DX =   -0.0001              !
 ! D4    D(3,1,5,4)           -121.748          -DE/DX =   -0.0001              !
 --------------------------------------------------------------------------------
 GradGradGradGradGradGradGradGradGradGradGradGradGradGradGradGradGradGrad

                          Input orientation:                          
 ---------------------------------------------------------------------
 Center     Atomic      Atomic             Coordinates (Angstroms)
 Number     Number       Type             X           Y           Z
 ---------------------------------------------------------------------
      1          6           0        0.017809   -0.021799    0.002266
      2          1           0       -0.724471    0.916309   -0.092457
      3          1           0       -0.390710   -0.854206   -0.585206
      4          1           0        0.093706   -0.306806    1.059551
      5          1           0        1.003665    0.266503   -0.384154
 ---------------------------------------------------------------------
                    Distance matrix (angstroms):
                    1          2          3          4          5
     1  C    0.000000
     2  H    1.200000   0.000000
     3  H    1.097685   1.867865   0.000000
     4  H    1.097652   1.868836   1.799869   0.000000
     5  H    1.097429   1.869168   1.800191   1.800276   0.000000
 Symmetry turned off by external request.
 Stoichiometry    CH4
 Framework group  C1[X(CH4)]
 Deg. of freedom     9
 Full point group                 C1      NOp   1
 Rotational constants (GHZ):    154.7513010    146.1029360    146.0648377

 **********************************************************************

            Population analysis using the SCF density.

 **********************************************************************

 Alpha  occ. eigenvalues --  -10.22891  -0.69591  -0.40231  -0.40216  -0.38274
 Alpha virt. eigenvalues --    0.08050   0.13818   0.15656   0.15660   0.43397
 Alpha virt. eigenvalues --    0.43405   0.44180   0.63361   0.68080   0.70057
 Alpha virt. eigenvalues --    0.70069   0.78115   1.10664   1.10683   1.51911
 Alpha virt. eigenvalues --    1.51944   1.53558   1.68825   1.76735   1.76760
 Alpha virt. eigenvalues --    2.09515   2.11304   2.11409   2.49430   2.49444
 Alpha virt. eigenvalues --    2.52880   2.85355   2.91804   2.91819
          Condensed to atoms (all electrons):
               1          2          3          4          5
     1  C    4.641636   0.390290   0.405467   0.405515   0.405587
     2  H    0.390290   0.608694  -0.021412  -0.021347  -0.021323
     3  H    0.405467  -0.021412   0.596866  -0.021003  -0.020981
     4  H    0.405515  -0.021347  -0.021003   0.596688  -0.020992
     5  H    0.405587  -0.021323  -0.020981  -0.020992   0.596516
 Mulliken charges:
               1
     1  C   -0.248494
     2  H    0.065099
     3  H    0.061063
     4  H    0.061139
     5  H    0.061193
 Sum of Mulliken charges =   0.00000
 Mulliken charges with hydrogens summed into heavy atoms:
               1
     1  C    0.000000
 Electronic spatial extent (au):  <R**2>=             36.6589
 Charge=              0.0000 electrons
 Dipole moment (field-independent basis, Debye):
    X=              0.0306    Y=             -0.0398    Z=              0.0038  Tot=              0.0504
 Quadrupole moment (field-independent basis, Debye-Ang):
   XX=             -8.3414   YY=             -8.3464   ZZ=             -8.3438
   XY=              0.0005   XZ=             -0.0002   YZ=             -0.0012
 Traceless Quadrupole moment (field-independent basis, Debye-Ang):
   XX=              0.0024   YY=             -0.0025   ZZ=              0.0001
   XY=              0.0005   XZ=             -0.0002   YZ=             -0.0012
 Octapole moment (field-independent basis, Debye-Ang**2):
  XXX=              0.3637  YYY=              0.1230  ZZZ=              0.6415  XYY=             -0.5710
  XXY=              0.4355  XXZ=             -0.3594  XZZ=              0.0664  YZZ=             -0.3973
  YYZ=             -0.3003  XYZ=             -0.1858
 Hexadecapole moment (field-independent basis, Debye-Ang**3):
 XXXX=            -16.1543 YYYY=            -16.6259 ZZZZ=            -15.3471 XXXY=              0.4067
 XXXZ=             -0.3988 YYYX=              0.0843 YYYZ=              0.3383 ZZZX=              0.0996
 ZZZY=             -0.1727 XXYY=             -5.2134 XXZZ=             -5.5187 YYZZ=             -5.4171
 XXYZ=             -0.0670 YYXZ=              0.2184 ZZXY=              0.2874
 N-N= 1.305565443725D+01 E-N=-1.187734915368D+02  KE= 3.972494458245D+01
 1\1\GINC-ALEPH\FOpt\RPBE1PBE\def2SVP\C1H4\BALL4935\21-Apr-2020\0\\# PB
 E1PBE/Def2SVP Opt Geom=ModRedun NoSymm\\const_dist_opt\\0,1\C,0.017809
 4016,-0.0217993474,0.0022662047\H,-0.7244711025,0.9163089374,-0.092457
 0728\H,-0.3907095512,-0.8542056835,-0.5852060167\H,0.0937061848,-0.306
 8064155,1.0595509057\H,1.0036650673,0.266502509,-0.3841540208\\Version
 =EM64L-G09RevD.01\HF=-40.423164\RMSD=1.037e-09\RMSF=1.847e-02\Dipole=0
 .0120411,-0.0156708,0.0015043\Quadrupole=0.0018155,-0.0018599,0.000044
 4,0.0003992,-0.0001719,-0.0008603\PG=C01 [X(C1H4)]\\@


 DEFINE YOUR TERMS, YOU WILL PERMIT ME AGAIN TO SAY, 
 OR WE SHALL NEVER UNDERSTAND ONE ANOTHER.

                                    -- VOLTAIRE
 Job cpu time:       0 days  0 hours  0 minutes  8.3 seconds.
 File lengths (MBytes):  RWF=      5 Int=      0 D2E=      0 Chk=      1 Scr=      1
 Normal termination of Gaussian 09 at Tue Apr 21 18:11:43 2020.
