 Entering Gaussian System, Link 0=/usr/local/gaussian/g09/g09
 Input=const_opt_g09.com
 Output=const_opt_g09.log
 Initial command:
 /usr/local/gaussian/g09/l1.exe "/tmp/tmpypqf3vkv/Gau-210688.inp" -scrdir="/tmp/tmpypqf3vkv/"
 Entering Link 1 = /usr/local/gaussian/g09/l1.exe PID=    210689.
  
 Copyright (c) 1988,1990,1992,1993,1995,1998,2003,2009,2013,
            Gaussian, Inc.  All Rights Reserved.
  
 This is part of the Gaussian(R) 09 program.  It is based on
 the Gaussian(R) 03 system (copyright 2003, Gaussian, Inc.),
 the Gaussian(R) 98 system (copyright 1998, Gaussian, Inc.),
 the Gaussian(R) 94 system (copyright 1995, Gaussian, Inc.),
 the Gaussian 92(TM) system (copyright 1992, Gaussian, Inc.),
 the Gaussian 90(TM) system (copyright 1990, Gaussian, Inc.),
 the Gaussian 88(TM) system (copyright 1988, Gaussian, Inc.),
 the Gaussian 86(TM) system (copyright 1986, Carnegie Mellon
 University), and the Gaussian 82(TM) system (copyright 1983,
 Carnegie Mellon University). Gaussian is a federally registered
 trademark of Gaussian, Inc.
  
 This software contains proprietary and confidential information,
 including trade secrets, belonging to Gaussian, Inc.
  
 This software is provided under written license and may be
 used, copied, transmitted, or stored only in accord with that
 written license.
  
 The following legend is applicable only to US Government
 contracts under FAR:
  
                    RESTRICTED RIGHTS LEGEND
  
 Use, reproduction and disclosure by the US Government is
 subject to restrictions as set forth in subparagraphs (a)
 and (c) of the Commercial Computer Software - Restricted
 Rights clause in FAR 52.227-19.
  
 Gaussian, Inc.
 340 Quinnipiac St., Bldg. 40, Wallingford CT 06492
  
  
 ---------------------------------------------------------------
 Warning -- This program may not be used in any manner that
 competes with the business of Gaussian, Inc. or will provide
 assistance to any competitor of Gaussian, Inc.  The licensee
 of this program is prohibited from giving any competitor of
 Gaussian, Inc. access to this program.  By using this program,
 the user acknowledges that Gaussian, Inc. is engaged in the
 business of creating and licensing software in the field of
 computational chemistry and represents and warrants to the
 licensee that it is not a competitor of Gaussian, Inc. and that
 it will not use this program in any manner prohibited above.
 ---------------------------------------------------------------
  

 Cite this work as:
 Gaussian 09, Revision D.01,
 M. J. Frisch, G. W. Trucks, H. B. Schlegel, G. E. Scuseria, 
 M. A. Robb, J. R. Cheeseman, G. Scalmani, V. Barone, B. Mennucci, 
 G. A. Petersson, H. Nakatsuji, M. Caricato, X. Li, H. P. Hratchian, 
 A. F. Izmaylov, J. Bloino, G. Zheng, J. L. Sonnenberg, M. Hada, 
 M. Ehara, K. Toyota, R. Fukuda, J. Hasegawa, M. Ishida, T. Nakajima, 
 Y. Honda, O. Kitao, H. Nakai, T. Vreven, J. A. Montgomery, Jr., 
 J. E. Peralta, F. Ogliaro, M. Bearpark, J. J. Heyd, E. Brothers, 
 K. N. Kudin, V. N. Staroverov, T. Keith, R. Kobayashi, J. Normand, 
 K. Raghavachari, A. Rendell, J. C. Burant, S. S. Iyengar, J. Tomasi, 
 M. Cossi, N. Rega, J. M. Millam, M. Klene, J. E. Knox, J. B. Cross, 
 V. Bakken, C. Adamo, J. Jaramillo, R. Gomperts, R. E. Stratmann, 
 O. Yazyev, A. J. Austin, R. Cammi, C. Pomelli, J. W. Ochterski, 
 R. L. Martin, K. Morokuma, V. G. Zakrzewski, G. A. Voth, 
 P. Salvador, J. J. Dannenberg, S. Dapprich, A. D. Daniels, 
 O. Farkas, J. B. Foresman, J. V. Ortiz, J. Cioslowski, 
 and D. J. Fox, Gaussian, Inc., Wallingford CT, 2013.
 
 ******************************************
 Gaussian 09:  EM64L-G09RevD.01 24-Apr-2013
                21-Apr-2020 
 ******************************************
 %mem=4000MB
 -----------------------------------
 # PBE1PBE/Def2SVP Opt Geom=ModRedun
 -----------------------------------
 1/14=-1,18=120,19=15,26=3,38=1/1,3;
 2/9=110,12=2,17=6,18=5,40=1/2;
 3/5=43,7=101,11=2,16=1,25=1,30=1,71=1,74=-13/1,2,3;
 4//1;
 5/5=2,38=5/2;
 6/7=2,8=2,9=2,10=2,28=1/1;
 7//1,2,3,16;
 1/14=-1,18=20,19=15,26=3/3(2);
 2/9=110/2;
 99//99;
 2/9=110/2;
 3/5=43,7=101,11=2,16=1,25=1,30=1,71=1,74=-13/1,2,3;
 4/5=5,16=3,69=1/1;
 5/5=2,38=5/2;
 7//1,2,3,16;
 1/14=-1,18=20,19=15,26=3/3(-5);
 2/9=110/2;
 6/7=2,8=2,9=2,10=2,19=2,28=1/1;
 99/9=1/99;
 ---------
 const_opt
 ---------
 Symbolic Z-matrix:
 Charge =  0 Multiplicity = 1
 C                    -0.0221    0.0032    0.0165 
 H                    -0.669     0.8894   -0.1009 
 H                    -0.3778   -0.8578   -0.5883 
 H                     0.0964   -0.3151    1.0638 
 H                     0.9725    0.2803   -0.3911 
 
 The following ModRedundant input section has been read:
 B       1       2 1.2000 B                                                    
 B       1       2 F                                                           
 
 Iteration  1 RMS(Cart)=  0.04360745 RMS(Int)=  0.00002284
 Iteration  2 RMS(Cart)=  0.00002164 RMS(Int)=  0.00000000
 Iteration  3 RMS(Cart)=  0.00000000 RMS(Int)=  0.00000000
 Iteration  1 RMS(Cart)=  0.00000000 RMS(Int)=  0.00000000

 GradGradGradGradGradGradGradGradGradGradGradGradGradGradGradGradGradGrad
 Berny optimization.
 Initialization pass.
                           ----------------------------
                           !    Initial Parameters    !
                           ! (Angstroms and Degrees)  !
 --------------------------                            --------------------------
 ! Name  Definition              Value          Derivative Info.                !
 --------------------------------------------------------------------------------
 ! R1    R(1,2)                  1.2            Frozen                          !
 ! R2    R(1,3)                  1.1107         estimate D2E/DX2                !
 ! R3    R(1,4)                  1.101          estimate D2E/DX2                !
 ! R4    R(1,5)                  1.11           estimate D2E/DX2                !
 ! A1    A(2,1,3)              112.1411         estimate D2E/DX2                !
 ! A2    A(2,1,4)              113.3585         estimate D2E/DX2                !
 ! A3    A(2,1,5)              106.6029         estimate D2E/DX2                !
 ! A4    A(3,1,4)              109.1674         estimate D2E/DX2                !
 ! A5    A(3,1,5)              106.291          estimate D2E/DX2                !
 ! A6    A(4,1,5)              108.9669         estimate D2E/DX2                !
 ! D1    D(2,1,4,3)            125.7854         estimate D2E/DX2                !
 ! D2    D(2,1,5,3)           -119.7936         estimate D2E/DX2                !
 ! D3    D(2,1,5,4)            122.681          estimate D2E/DX2                !
 ! D4    D(3,1,5,4)           -117.5254         estimate D2E/DX2                !
 --------------------------------------------------------------------------------
 Trust Radius=3.00D-01 FncErr=1.00D-07 GrdErr=1.00D-06
 Number of steps in this run=     24 maximum allowed number of steps=    100.
 GradGradGradGradGradGradGradGradGradGradGradGradGradGradGradGradGradGrad

                          Input orientation:                          
 ---------------------------------------------------------------------
 Center     Atomic      Atomic             Coordinates (Angstroms)
 Number     Number       Type             X           Y           Z
 ---------------------------------------------------------------------
      1          6           0       -0.010768   -0.012319    0.018553
      2          1           0       -0.714749    0.951146   -0.108511
      3          1           0       -0.366286   -0.873252   -0.586449
      4          1           0        0.108237   -0.330961    1.065692
      5          1           0        0.983565    0.265386   -0.389285
 ---------------------------------------------------------------------
                    Distance matrix (angstroms):
                    1          2          3          4          5
     1  C    0.000000
     2  H    1.200000   0.000000
     3  H    1.110687   1.917884   0.000000
     4  H    1.100997   1.923502   1.802449   0.000000
     5  H    1.110023   1.852936   1.776927   1.799663   0.000000
 Stoichiometry    CH4
 Framework group  C1[X(CH4)]
 Deg. of freedom     9
 Full point group                 C1      NOp   1
 Largest Abelian subgroup         C1      NOp   1
 Largest concise Abelian subgroup C1      NOp   1
                         Standard orientation:                         
 ---------------------------------------------------------------------
 Center     Atomic      Atomic             Coordinates (Angstroms)
 Number     Number       Type             X           Y           Z
 ---------------------------------------------------------------------
      1          6           0       -0.004986    0.008329   -0.007665
      2          1           0        1.169260    0.101546   -0.236698
      3          1           0       -0.506381   -0.718867   -0.681027
      4          1           0       -0.536804    0.971190   -0.055242
      5          1           0       -0.096158   -0.403843    1.018957
 ---------------------------------------------------------------------
 Rotational constants (GHZ):    156.9119866    143.9739735    141.0447259
 Standard basis: def2SVP (5D, 7F)
 There are    35 symmetry adapted cartesian basis functions of A   symmetry.
 There are    34 symmetry adapted basis functions of A   symmetry.
    34 basis functions,    53 primitive gaussians,    35 cartesian basis functions
     5 alpha electrons        5 beta electrons
       nuclear repulsion energy        12.9707501277 Hartrees.
 NAtoms=    5 NActive=    5 NUniq=    5 SFac= 1.00D+00 NAtFMM=   60 NAOKFM=F Big=F
 Integral buffers will be    131072 words long.
 Raffenetti 2 integral format.
 Two-electron integral symmetry is turned on.
 One-electron integrals computed using PRISM.
   1 Symmetry operations used in ECPInt.
 ECPInt:  NShTT=     171 NPrTT=     553 LenC2=     172 LenP2D=     539.
 LDataN:  DoStor=T MaxTD1= 4 Len=   56
 NBasis=    34 RedAO= T EigKep=  1.53D-02  NBF=    34
 NBsUse=    34 1.00D-06 EigRej= -1.00D+00 NBFU=    34
 ExpMin= 1.22D-01 ExpMax= 1.24D+03 ExpMxC= 1.86D+02 IAcc=1 IRadAn=         1 AccDes= 0.00D+00
 Harris functional with IExCor= 1009 and IRadAn=       1 diagonalized for initial guess.
 HarFok:  IExCor= 1009 AccDes= 0.00D+00 IRadAn=         1 IDoV= 1 UseB2=F ITyADJ=14
 ICtDFT=  3500011 ScaDFX=  1.000000  1.000000  1.000000  1.000000
 FoFCou: FMM=F IPFlag=           0 FMFlag=      100000 FMFlg1=           0
         NFxFlg=           0 DoJE=T BraDBF=F KetDBF=T FulRan=T
         wScrn=  0.000000 ICntrl=     500 IOpCl=  0 I1Cent=   200000004 NGrid=           0
         NMat0=    1 NMatS0=      1 NMatT0=    0 NMatD0=    1 NMtDS0=    0 NMtDT0=    0
 Petite list used in FoFCou.
 Keep R1 ints in memory in canonical form, NReq=1060351.
 Requested convergence on RMS density matrix=1.00D-08 within 128 cycles.
 Requested convergence on MAX density matrix=1.00D-06.
 Requested convergence on             energy=1.00D-06.
 No special actions if energy rises.
 Integral accuracy reduced to 1.0D-05 until final iterations.
 Initial convergence to 1.0D-05 achieved.  Increase integral accuracy.
 SCF Done:  E(RPBE1PBE) =  -40.4220138861     A.U. after   10 cycles
            NFock= 10  Conv=0.17D-08     -V/T= 2.0185

 **********************************************************************

            Population analysis using the SCF density.

 **********************************************************************

 Orbital symmetries:
       Occupied  (A) (A) (A) (A) (A)
       Virtual   (A) (A) (A) (A) (A) (A) (A) (A) (A) (A) (A) (A)
                 (A) (A) (A) (A) (A) (A) (A) (A) (A) (A) (A) (A)
                 (A) (A) (A) (A) (A)
 The electronic state is 1-A.
 Alpha  occ. eigenvalues --  -10.23167  -0.69400  -0.40205  -0.39601  -0.38459
 Alpha virt. eigenvalues --    0.07882   0.13801   0.15289   0.15504   0.42820
 Alpha virt. eigenvalues --    0.43308   0.45071   0.63037   0.67787   0.69231
 Alpha virt. eigenvalues --    0.69720   0.77936   1.10124   1.11266   1.50198
 Alpha virt. eigenvalues --    1.51763   1.54223   1.67525   1.76000   1.77586
 Alpha virt. eigenvalues --    2.05026   2.10109   2.12899   2.47259   2.47776
 Alpha virt. eigenvalues --    2.52989   2.81895   2.90895   2.91865
          Condensed to atoms (all electrons):
               1          2          3          4          5
     1  C    4.656203   0.391923   0.402501   0.405683   0.399709
     2  H    0.391923   0.597117  -0.019241  -0.019030  -0.023486
     3  H    0.402501  -0.019241   0.599945  -0.022161  -0.022940
     4  H    0.405683  -0.019030  -0.022161   0.592211  -0.021145
     5  H    0.399709  -0.023486  -0.022940  -0.021145   0.610898
 Mulliken charges:
               1
     1  C   -0.256019
     2  H    0.072717
     3  H    0.061896
     4  H    0.064443
     5  H    0.056964
 Sum of Mulliken charges =   0.00000
 Mulliken charges with hydrogens summed into heavy atoms:
               1
     1  C    0.000000
 Electronic spatial extent (au):  <R**2>=             36.9241
 Charge=              0.0000 electrons
 Dipole moment (field-independent basis, Debye):
    X=             -0.0636    Y=             -0.0317    Z=              0.0489  Tot=              0.0863
 Quadrupole moment (field-independent basis, Debye-Ang):
   XX=             -8.1721   YY=             -8.3769   ZZ=             -8.5399
   XY=             -0.0353   XZ=              0.0434   YZ=              0.0097
 Traceless Quadrupole moment (field-independent basis, Debye-Ang):
   XX=              0.1909   YY=             -0.0140   ZZ=             -0.1769
   XY=             -0.0353   XZ=              0.0434   YZ=              0.0097
 Octapole moment (field-independent basis, Debye-Ang**2):
  XXX=              0.6250  YYY=              0.2779  ZZZ=              0.5881  XYY=             -0.6835
  XXY=              0.1464  XXZ=             -0.3044  XZZ=             -0.3013  YZZ=             -0.5009
  YYZ=             -0.1163  XYZ=             -0.1452
 Hexadecapole moment (field-independent basis, Debye-Ang**3):
 XXXX=            -16.6103 YYYY=            -15.7812 ZZZZ=            -15.6969 XXXY=              0.0348
 XXXZ=             -0.2136 YYYX=             -0.4166 YYYZ=              0.1751 ZZZX=              0.1607
 ZZZY=             -0.2150 XXYY=             -5.5376 XXZZ=             -5.7964 YYZZ=             -5.2447
 XXYZ=              0.0935 YYXZ=              0.2504 ZZXY=              0.2134
 N-N= 1.297075012771D+01 E-N=-1.185787548275D+02  KE= 3.968956386338D+01
   1 Symmetry operations used in ECPInt.
 ECPInt:  NShTT=     171 NPrTT=     553 LenC2=     172 LenP2D=     539.
 LDataN:  DoStor=T MaxTD1= 5 Len=  102
 Calling FoFJK, ICntrl=      2127 FMM=F ISym2X=0 I1Cent= 0 IOpClX= 0 NMat=1 NMatS=1 NMatT=0.
 ***** Axes restored to original set *****
 -------------------------------------------------------------------
 Center     Atomic                   Forces (Hartrees/Bohr)
 Number     Number              X              Y              Z
 -------------------------------------------------------------------
      1        6          -0.015143094    0.032210512   -0.016048672
      2        1           0.026818641   -0.044571502    0.008311356
      3        1          -0.003130185    0.008378554    0.004443345
      4        1          -0.003610981    0.004625194   -0.001005567
      5        1          -0.004934381   -0.000642757    0.004299538
 -------------------------------------------------------------------
 Cartesian Forces:  Max     0.044571502 RMS     0.017277652

 GradGradGradGradGradGradGradGradGradGradGradGradGradGradGradGradGradGrad
 Berny optimization.
 FormGI is forming the generalized inverse of G from B-inverse, IUseBI=4.
 Internal  Forces:  Max     0.052399213 RMS     0.014519063
 Search for a local minimum.
 Step number   1 out of a maximum of   24
 All quantities printed in internal units (Hartrees-Bohrs-Radians)
 Mixed Optimization -- RFO/linear search
 Second derivative matrix not updated -- first step.
 The second derivative matrix:
                          R1        R2        R3        R4        A1
           R1           0.24665
           R2           0.00000   0.32527
           R3           0.00000   0.00000   0.33572
           R4           0.00000   0.00000   0.00000   0.32598
           A1           0.00000   0.00000   0.00000   0.00000   0.16000
           A2           0.00000   0.00000   0.00000   0.00000   0.00000
           A3           0.00000   0.00000   0.00000   0.00000   0.00000
           A4           0.00000   0.00000   0.00000   0.00000   0.00000
           A5           0.00000   0.00000   0.00000   0.00000   0.00000
           A6           0.00000   0.00000   0.00000   0.00000   0.00000
           D1           0.00000   0.00000   0.00000   0.00000   0.00000
           D2           0.00000   0.00000   0.00000   0.00000   0.00000
           D3           0.00000   0.00000   0.00000   0.00000   0.00000
           D4           0.00000   0.00000   0.00000   0.00000   0.00000
                          A2        A3        A4        A5        A6
           A2           0.16000
           A3           0.00000   0.16000
           A4           0.00000   0.00000   0.16000
           A5           0.00000   0.00000   0.00000   0.16000
           A6           0.00000   0.00000   0.00000   0.00000   0.16000
           D1           0.00000   0.00000   0.00000   0.00000   0.00000
           D2           0.00000   0.00000   0.00000   0.00000   0.00000
           D3           0.00000   0.00000   0.00000   0.00000   0.00000
           D4           0.00000   0.00000   0.00000   0.00000   0.00000
                          D1        D2        D3        D4
           D1           0.00230
           D2           0.00000   0.00230
           D3           0.00000   0.00000   0.00230
           D4           0.00000   0.00000   0.00000   0.00230
 ITU=  0
     Eigenvalues ---    0.05261   0.06033   0.08289   0.16000   0.16000
     Eigenvalues ---    0.32527   0.32598   0.335721000.000001000.00000
     Eigenvalues --- 1000.000001000.000001000.000001000.00000
 RFO step:  Lambda=-1.63857059D-03 EMin= 5.26103389D-02
 Linear search not attempted -- first point.
 Iteration  1 RMS(Cart)=  0.02458570 RMS(Int)=  0.00091753
 Iteration  2 RMS(Cart)=  0.00068830 RMS(Int)=  0.00058932
 Iteration  3 RMS(Cart)=  0.00000026 RMS(Int)=  0.00058932
 Iteration  1 RMS(Cart)=  0.00000000 RMS(Int)=  0.00000000
 Variable       Old X    -DE/DX   Delta X   Delta X   Delta X     New X
                                 (Linear)    (Quad)   (Total)
    R1        2.26767  -0.05240   0.00000   0.00000   0.00000   2.26767
    R2        2.09890  -0.00791   0.00000  -0.02421  -0.02421   2.07469
    R3        2.08058  -0.00269   0.00000  -0.00796  -0.00796   2.07262
    R4        2.09764  -0.00616   0.00000  -0.01880  -0.01880   2.07884
    A1        1.95723  -0.00264   0.00000  -0.04098  -0.04217   1.91506
    A2        1.97848  -0.00403   0.00000  -0.05247  -0.05268   1.92580
    A3        1.86057   0.00338   0.00000   0.02949   0.02953   1.89010
    A4        1.90533   0.00060   0.00000   0.01168   0.01029   1.91562
    A5        1.85513   0.00345   0.00000   0.04711   0.04656   1.90169
    A6        1.90183  -0.00014   0.00000   0.01369   0.01339   1.91523
    D1        2.19537  -0.00599   0.00000  -0.08363  -0.08285   2.11252
    D2       -2.09079  -0.00041   0.00000   0.00852   0.00855  -2.08224
    D3        2.14119  -0.00291   0.00000  -0.03759  -0.03805   2.10314
    D4       -2.05121  -0.00250   0.00000  -0.04610  -0.04660  -2.09781
         Item               Value     Threshold  Converged?
 Maximum Force            0.007913     0.000450     NO 
 RMS     Force            0.003977     0.000300     NO 
 Maximum Displacement     0.046093     0.001800     NO 
 RMS     Displacement     0.024773     0.001200     NO 
 Predicted change in Energy=-8.319538D-04
 GradGradGradGradGradGradGradGradGradGradGradGradGradGradGradGradGradGrad

                          Input orientation:                          
 ---------------------------------------------------------------------
 Center     Atomic      Atomic             Coordinates (Angstroms)
 Number     Number       Type             X           Y           Z
 ---------------------------------------------------------------------
      1          6           0        0.008923   -0.018422    0.007153
      2          1           0       -0.722864    0.926755   -0.098342
      3          1           0       -0.382084   -0.857474   -0.583137
      4          1           0        0.098930   -0.315343    1.059139
      5          1           0        0.997096    0.264484   -0.384813
 ---------------------------------------------------------------------
                    Distance matrix (angstroms):
                    1          2          3          4          5
     1  C    0.000000
     2  H    1.200000   0.000000
     3  H    1.097879   1.880061   0.000000
     4  H    1.096785   1.886243   1.795091   0.000000
     5  H    1.100072   1.865189   1.788926   1.796636   0.000000
 Stoichiometry    CH4
 Framework group  C1[X(CH4)]
 Deg. of freedom     9
 Full point group                 C1      NOp   1
 Largest Abelian subgroup         C1      NOp   1
 Largest concise Abelian subgroup C1      NOp   1
                         Standard orientation:                         
 ---------------------------------------------------------------------
 Center     Atomic      Atomic             Coordinates (Angstroms)
 Number     Number       Type             X           Y           Z
 ---------------------------------------------------------------------
      1          6           0       -0.010538    0.002319   -0.001048
      2          1           0        1.184815    0.075249   -0.077278
      3          1           0       -0.406433   -0.523898   -0.879513
      4          1           0       -0.450555    1.005119    0.059907
      5          1           0       -0.264597   -0.570387    0.903176
 ---------------------------------------------------------------------
 Rotational constants (GHZ):    155.9915571    145.6910975    144.9772428
 Standard basis: def2SVP (5D, 7F)
 There are    35 symmetry adapted cartesian basis functions of A   symmetry.
 There are    34 symmetry adapted basis functions of A   symmetry.
    34 basis functions,    53 primitive gaussians,    35 cartesian basis functions
     5 alpha electrons        5 beta electrons
       nuclear repulsion energy        13.0498603916 Hartrees.
 NAtoms=    5 NActive=    5 NUniq=    5 SFac= 1.00D+00 NAtFMM=   60 NAOKFM=F Big=F
 Integral buffers will be    131072 words long.
 Raffenetti 2 integral format.
 Two-electron integral symmetry is turned on.
 One-electron integrals computed using PRISM.
   1 Symmetry operations used in ECPInt.
 ECPInt:  NShTT=     171 NPrTT=     553 LenC2=     172 LenP2D=     539.
 LDataN:  DoStor=T MaxTD1= 4 Len=   56
 NBasis=    34 RedAO= T EigKep=  1.51D-02  NBF=    34
 NBsUse=    34 1.00D-06 EigRej= -1.00D+00 NBFU=    34
 Initial guess from the checkpoint file:  "/tmp/tmpypqf3vkv/Gau-210689.chk"
 B after Tr=     0.000000    0.000000    0.000000
         Rot=    0.992333   -0.096803    0.070521    0.030521 Ang= -14.20 deg.
 ExpMin= 1.22D-01 ExpMax= 1.24D+03 ExpMxC= 1.86D+02 IAcc=1 IRadAn=         1 AccDes= 0.00D+00
 Harris functional with IExCor= 1009 and IRadAn=       1 diagonalized for initial guess.
 HarFok:  IExCor= 1009 AccDes= 0.00D+00 IRadAn=         1 IDoV= 1 UseB2=F ITyADJ=14
 ICtDFT=  3500011 ScaDFX=  1.000000  1.000000  1.000000  1.000000
 FoFCou: FMM=F IPFlag=           0 FMFlag=      100000 FMFlg1=           0
         NFxFlg=           0 DoJE=T BraDBF=F KetDBF=T FulRan=T
         wScrn=  0.000000 ICntrl=     500 IOpCl=  0 I1Cent=   200000004 NGrid=           0
         NMat0=    1 NMatS0=      1 NMatT0=    0 NMatD0=    1 NMtDS0=    0 NMtDT0=    0
 Petite list used in FoFCou.
 Keep R1 ints in memory in canonical form, NReq=1060351.
 Requested convergence on RMS density matrix=1.00D-08 within 128 cycles.
 Requested convergence on MAX density matrix=1.00D-06.
 Requested convergence on             energy=1.00D-06.
 No special actions if energy rises.
 Integral accuracy reduced to 1.0D-05 until final iterations.
 Initial convergence to 1.0D-05 achieved.  Increase integral accuracy.
 SCF Done:  E(RPBE1PBE) =  -40.4230562595     A.U. after    9 cycles
            NFock=  9  Conv=0.10D-08     -V/T= 2.0176
   1 Symmetry operations used in ECPInt.
 ECPInt:  NShTT=     171 NPrTT=     553 LenC2=     172 LenP2D=     539.
 LDataN:  DoStor=T MaxTD1= 5 Len=  102
 Calling FoFJK, ICntrl=      2127 FMM=F ISym2X=0 I1Cent= 0 IOpClX= 0 NMat=1 NMatS=1 NMatT=0.
 ***** Axes restored to original set *****
 -------------------------------------------------------------------
 Center     Atomic                   Forces (Hartrees/Bohr)
 Number     Number              X              Y              Z
 -------------------------------------------------------------------
      1        6          -0.026367669    0.038608148   -0.007349241
      2        1           0.030290340   -0.041131612    0.005526516
      3        1          -0.001784696    0.000799422   -0.000059336
      4        1          -0.001204216    0.001415337    0.000978199
      5        1          -0.000933758    0.000308706    0.000903862
 -------------------------------------------------------------------
 Cartesian Forces:  Max     0.041131612 RMS     0.018054977

 GradGradGradGradGradGradGradGradGradGradGradGradGradGradGradGradGradGrad
 Berny optimization.
 Using GEDIIS/GDIIS optimizer.
 FormGI is forming the generalized inverse of G from B-inverse, IUseBI=4.
 Internal  Forces:  Max     0.051354776 RMS     0.013754947
 Search for a local minimum.
 Step number   2 out of a maximum of   24
 All quantities printed in internal units (Hartrees-Bohrs-Radians)
 Mixed Optimization -- En-DIIS/RFO-DIIS
 Update second derivatives using D2CorX and points    1    2
 DE= -1.04D-03 DEPred=-8.32D-04 R= 1.25D+00
 TightC=F SS=  1.41D+00  RLast= 1.39D-01 DXNew= 5.0454D-01 4.1826D-01
 Trust test= 1.25D+00 RLast= 1.39D-01 DXMaxT set to 4.18D-01
 The second derivative matrix:
                          R1        R2        R3        R4        A1
           R1           0.24756
           R2           0.00695   0.33984
           R3           0.00274   0.00785   0.33953
           R4           0.00443   0.00385   0.00316   0.32420
           A1           0.00163  -0.02050  -0.00628  -0.01772   0.13468
           A2           0.00225  -0.02398  -0.00720  -0.02110  -0.03124
           A3          -0.00229   0.00559   0.00094   0.00682   0.01567
           A4          -0.00037   0.00521   0.00161   0.00446   0.00623
           A5          -0.00208   0.02055   0.00611   0.01823   0.02746
           A6           0.00035   0.01313   0.00460   0.00985   0.00960
           D1           0.00368   0.02712   0.01074   0.01715   0.00579
           D2           0.00025   0.00203   0.00080   0.00131   0.00054
           D3           0.00153   0.01126   0.00446   0.00712   0.00238
           D4           0.00128   0.00923   0.00367   0.00581   0.00184
                          A2        A3        A4        A5        A6
           A2           0.12151
           A3           0.01903   0.15192
           A4           0.00769  -0.00389   0.15847
           A5           0.03382  -0.01661  -0.00677   0.13030
           A6           0.01207  -0.00716  -0.00233  -0.01070   0.15728
           D1           0.00810  -0.00869  -0.00130  -0.00750   0.00166
           D2           0.00073  -0.00070  -0.00012  -0.00067   0.00007
           D3           0.00333  -0.00360  -0.00053  -0.00309   0.00070
           D4           0.00260  -0.00290  -0.00041  -0.00242   0.00063
                          D1        D2        D3        D4
           D1           0.01712
           D2           0.00103   0.00237
           D3           0.00617   0.00043   0.00487
           D4           0.00515   0.00036   0.00214   0.00409
 ITU=  1  0
 Use linear search instead of GDIIS.
     Eigenvalues ---    0.04370   0.05410   0.07547   0.15975   0.16040
     Eigenvalues ---    0.32341   0.33191   0.348631000.000001000.00000
     Eigenvalues --- 1000.000001000.000001000.000001000.00000
 RFO step:  Lambda=-5.08052240D-05 EMin= 4.37008665D-02
 Quartic linear search produced a step of  0.35891.
 Iteration  1 RMS(Cart)=  0.01126011 RMS(Int)=  0.00036636
 Iteration  2 RMS(Cart)=  0.00013933 RMS(Int)=  0.00033806
 Iteration  3 RMS(Cart)=  0.00000002 RMS(Int)=  0.00033806
 Iteration  1 RMS(Cart)=  0.00000000 RMS(Int)=  0.00000000
 Variable       Old X    -DE/DX   Delta X   Delta X   Delta X     New X
                                 (Linear)    (Quad)   (Total)
    R1        2.26767  -0.05135   0.00000   0.00000   0.00000   2.26767
    R2        2.07469   0.00006  -0.00869   0.00832  -0.00037   2.07432
    R3        2.07262   0.00046  -0.00286   0.00450   0.00165   2.07427
    R4        2.07884  -0.00108  -0.00675   0.00177  -0.00498   2.07385
    A1        1.91506  -0.00077  -0.01514  -0.00246  -0.01815   1.89691
    A2        1.92580  -0.00145  -0.01891  -0.00844  -0.02741   1.89839
    A3        1.89010   0.00075   0.01060  -0.00155   0.00909   1.89919
    A4        1.91562   0.00018   0.00369   0.00387   0.00671   1.92234
    A5        1.90169   0.00107   0.01671   0.00513   0.02147   1.92316
    A6        1.91523   0.00026   0.00481   0.00353   0.00809   1.92331
    D1        2.11252  -0.00178  -0.02973  -0.00596  -0.03531   2.07721
    D2       -2.08224  -0.00012   0.00307   0.00091   0.00406  -2.07818
    D3        2.10314  -0.00116  -0.01366  -0.00912  -0.02305   2.08008
    D4       -2.09781  -0.00104  -0.01673  -0.01003  -0.02711  -2.12492
         Item               Value     Threshold  Converged?
 Maximum Force            0.001775     0.000450     NO 
 RMS     Force            0.000939     0.000300     NO 
 Maximum Displacement     0.019756     0.001800     NO 
 RMS     Displacement     0.011280     0.001200     NO 
 Predicted change in Energy=-1.078036D-04
 GradGradGradGradGradGradGradGradGradGradGradGradGradGradGradGradGradGrad

                          Input orientation:                          
 ---------------------------------------------------------------------
 Center     Atomic      Atomic             Coordinates (Angstroms)
 Number     Number       Type             X           Y           Z
 ---------------------------------------------------------------------
      1          6           0        0.017814   -0.021802    0.002260
      2          1           0       -0.724475    0.916300   -0.092452
      3          1           0       -0.390719   -0.854203   -0.585205
      4          1           0        0.093702   -0.306801    1.059552
      5          1           0        1.003678    0.266505   -0.384154
 ---------------------------------------------------------------------
                    Distance matrix (angstroms):
                    1          2          3          4          5
     1  C    0.000000
     2  H    1.200000   0.000000
     3  H    1.097682   1.867855   0.000000
     4  H    1.097656   1.868824   1.799872   0.000000
     5  H    1.097435   1.869181   1.800209   1.800284   0.000000
 Stoichiometry    CH4
 Framework group  C1[X(CH4)]
 Deg. of freedom     9
 Full point group                 C1      NOp   1
 Largest Abelian subgroup         C1      NOp   1
 Largest concise Abelian subgroup C1      NOp   1
                         Standard orientation:                         
 ---------------------------------------------------------------------
 Center     Atomic      Atomic             Coordinates (Angstroms)
 Number     Number       Type             X           Y           Z
 ---------------------------------------------------------------------
      1          6           0       -0.014122   -0.000129    0.000040
      2          1           0        1.185850   -0.004962    0.006783
      3          1           0       -0.358710    0.437429   -0.945849
      4          1           0       -0.369653    0.601503    0.846495
      5          1           0       -0.372756   -1.033197    0.092329
 ---------------------------------------------------------------------
 Rotational constants (GHZ):    154.7496993    146.1033236    146.0643732
 Standard basis: def2SVP (5D, 7F)
 There are    35 symmetry adapted cartesian basis functions of A   symmetry.
 There are    34 symmetry adapted basis functions of A   symmetry.
    34 basis functions,    53 primitive gaussians,    35 cartesian basis functions
     5 alpha electrons        5 beta electrons
       nuclear repulsion energy        13.0556295685 Hartrees.
 NAtoms=    5 NActive=    5 NUniq=    5 SFac= 1.00D+00 NAtFMM=   60 NAOKFM=F Big=F
 Integral buffers will be    131072 words long.
 Raffenetti 2 integral format.
 Two-electron integral symmetry is turned on.
 One-electron integrals computed using PRISM.
   1 Symmetry operations used in ECPInt.
 ECPInt:  NShTT=     171 NPrTT=     553 LenC2=     172 LenP2D=     539.
 LDataN:  DoStor=T MaxTD1= 4 Len=   56
 NBasis=    34 RedAO= T EigKep=  1.51D-02  NBF=    34
 NBsUse=    34 1.00D-06 EigRej= -1.00D+00 NBFU=    34
 Initial guess from the checkpoint file:  "/tmp/tmpypqf3vkv/Gau-210689.chk"
 B after Tr=     0.000000    0.000000    0.000000
         Rot=    0.893086   -0.446807    0.019993    0.048588 Ang= -53.47 deg.
 Keep R1 ints in memory in canonical form, NReq=1060351.
 Requested convergence on RMS density matrix=1.00D-08 within 128 cycles.
 Requested convergence on MAX density matrix=1.00D-06.
 Requested convergence on             energy=1.00D-06.
 No special actions if energy rises.
 SCF Done:  E(RPBE1PBE) =  -40.4231635274     A.U. after    7 cycles
            NFock=  7  Conv=0.10D-08     -V/T= 2.0176
   1 Symmetry operations used in ECPInt.
 ECPInt:  NShTT=     171 NPrTT=     553 LenC2=     172 LenP2D=     539.
 LDataN:  DoStor=T MaxTD1= 5 Len=  102
 Calling FoFJK, ICntrl=      2127 FMM=F ISym2X=0 I1Cent= 0 IOpClX= 0 NMat=1 NMatS=1 NMatT=0.
 ***** Axes restored to original set *****
 -------------------------------------------------------------------
 Center     Atomic                   Forces (Hartrees/Bohr)
 Number     Number              X              Y              Z
 -------------------------------------------------------------------
      1        6          -0.031428255    0.039244784   -0.003954286
      2        1           0.031465472   -0.039609342    0.004034922
      3        1          -0.000027599    0.000051217   -0.000040904
      4        1          -0.000056488    0.000132508    0.000028257
      5        1           0.000046871    0.000180832   -0.000067989
 -------------------------------------------------------------------
 Cartesian Forces:  Max     0.039609342 RMS     0.018473129

 GradGradGradGradGradGradGradGradGradGradGradGradGradGradGradGradGradGrad
 Berny optimization.
 Using GEDIIS/GDIIS optimizer.
 FormGI is forming the generalized inverse of G from B-inverse, IUseBI=4.
 Internal  Forces:  Max     0.050746883 RMS     0.013562875
 Search for a local minimum.
 Step number   3 out of a maximum of   24
 All quantities printed in internal units (Hartrees-Bohrs-Radians)
 Mixed Optimization -- En-DIIS/RFO-DIIS
 Swapping is turned off.
 Update second derivatives using D2CorX and points    1    2    3
 DE= -1.07D-04 DEPred=-1.08D-04 R= 9.95D-01
 TightC=F SS=  1.41D+00  RLast= 6.55D-02 DXNew= 7.0343D-01 1.9655D-01
 Trust test= 9.95D-01 RLast= 6.55D-02 DXMaxT set to 4.18D-01
 The second derivative matrix:
                          R1        R2        R3        R4        A1
           R1           0.24873
           R2           0.00772   0.33983
           R3           0.00262   0.00780   0.33952
           R4           0.00632   0.00428   0.00305   0.32587
           A1           0.00221  -0.02099  -0.00623  -0.01827   0.13334
           A2           0.00243  -0.02598  -0.00695  -0.02446  -0.03514
           A3          -0.00412   0.00447   0.00112   0.00402   0.01492
           A4           0.00040   0.00663   0.00142   0.00726   0.00831
           A5          -0.00243   0.02174   0.00597   0.02011   0.02996
           A6           0.00053   0.01357   0.00454   0.01070   0.01030
           D1           0.00638   0.02809   0.01056   0.02011   0.00562
           D2           0.00051   0.00218   0.00077   0.00169   0.00062
           D3           0.00357   0.01262   0.00425   0.01042   0.00341
           D4           0.00306   0.01044   0.00348   0.00874   0.00279
                          A2        A3        A4        A5        A6
           A2           0.11177
           A3           0.01915   0.15476
           A4           0.01196  -0.00527   0.15721
           A5           0.04032  -0.01632  -0.00979   0.12601
           A6           0.01361  -0.00750  -0.00286  -0.01177   0.15708
           D1           0.00479  -0.01276   0.00206  -0.00582   0.00265
           D2           0.00066  -0.00110   0.00010  -0.00067   0.00013
           D3           0.00369  -0.00679   0.00079  -0.00374   0.00101
           D4           0.00303  -0.00569   0.00070  -0.00307   0.00088
                          D1        D2        D3        D4
           D1           0.02192
           D2           0.00159   0.00243
           D3           0.01090   0.00088   0.00843
           D4           0.00931   0.00076   0.00525   0.00679
 ITU=  1  1  0
     Eigenvalues ---    0.04230   0.05346   0.07723   0.15995   0.16090
     Eigenvalues ---    0.32473   0.33202   0.348771000.000001000.00000
     Eigenvalues --- 1000.000001000.000001000.000001000.00000
 En-DIIS/RFO-DIIS IScMMF=        0 using points:     3    2
 RFO step:  Lambda=-8.16884479D-05.
 DidBck=F Rises=F RFO-DIIS coefs:    1.02652   -0.02652
 Iteration  1 RMS(Cart)=  0.00066527 RMS(Int)=  0.00000401
 Iteration  2 RMS(Cart)=  0.00000062 RMS(Int)=  0.00000397
 Iteration  1 RMS(Cart)=  0.00000000 RMS(Int)=  0.00000000
 Variable       Old X    -DE/DX   Delta X   Delta X   Delta X     New X
                                 (Linear)    (Quad)   (Total)
    R1        2.26767  -0.05075   0.00000   0.00000   0.00000   2.26767
    R2        2.07432  -0.00001  -0.00001  -0.00004  -0.00005   2.07427
    R3        2.07427  -0.00001   0.00004  -0.00008  -0.00003   2.07424
    R4        2.07385   0.00011  -0.00013   0.00044   0.00031   2.07416
    A1        1.89691   0.00003  -0.00048   0.00044  -0.00004   1.89687
    A2        1.89839  -0.00004  -0.00073  -0.00044  -0.00117   1.89722
    A3        1.89919  -0.00015   0.00024  -0.00169  -0.00145   1.89774
    A4        1.92234   0.00003   0.00018   0.00100   0.00116   1.92350
    A5        1.92316   0.00005   0.00057   0.00024   0.00080   1.92396
    A6        1.92331   0.00008   0.00021   0.00041   0.00062   1.92393
    D1        2.07721   0.00003  -0.00094   0.00086  -0.00007   2.07714
    D2       -2.07818   0.00003   0.00011   0.00035   0.00046  -2.07772
    D3        2.08008  -0.00010  -0.00061  -0.00133  -0.00194   2.07814
    D4       -2.12492  -0.00012  -0.00072  -0.00168  -0.00240  -2.12732
         Item               Value     Threshold  Converged?
 Maximum Force            0.000154     0.000450     YES
 RMS     Force            0.000076     0.000300     YES
 Maximum Displacement     0.001141     0.001800     YES
 RMS     Displacement     0.000665     0.001200     YES
 Predicted change in Energy=-4.662804D-07
 Optimization completed.
    -- Stationary point found.
                           ----------------------------
                           !   Optimized Parameters   !
                           ! (Angstroms and Degrees)  !
 --------------------------                            --------------------------
 ! Name  Definition              Value          Derivative Info.                !
 --------------------------------------------------------------------------------
 ! R1    R(1,2)                  1.2            -DE/DX =   -0.0507              !
 ! R2    R(1,3)                  1.0977         -DE/DX =    0.0                 !
 ! R3    R(1,4)                  1.0977         -DE/DX =    0.0                 !
 ! R4    R(1,5)                  1.0974         -DE/DX =    0.0001              !
 ! A1    A(2,1,3)              108.6849         -DE/DX =    0.0                 !
 ! A2    A(2,1,4)              108.7698         -DE/DX =    0.0                 !
 ! A3    A(2,1,5)              108.8155         -DE/DX =   -0.0002              !
 ! A4    A(3,1,4)              110.1417         -DE/DX =    0.0                 !
 ! A5    A(3,1,5)              110.189          -DE/DX =    0.0001              !
 ! A6    A(4,1,5)              110.1977         -DE/DX =    0.0001              !
 ! D1    D(2,1,4,3)            119.0152         -DE/DX =    0.0                 !
 ! D2    D(2,1,5,3)           -119.0711         -DE/DX =    0.0                 !
 ! D3    D(2,1,5,4)            119.1799         -DE/DX =   -0.0001              !
 ! D4    D(3,1,5,4)           -121.749          -DE/DX =   -0.0001              !
 --------------------------------------------------------------------------------
 GradGradGradGradGradGradGradGradGradGradGradGradGradGradGradGradGradGrad

                          Input orientation:                          
 ---------------------------------------------------------------------
 Center     Atomic      Atomic             Coordinates (Angstroms)
 Number     Number       Type             X           Y           Z
 ---------------------------------------------------------------------
      1          6           0        0.017814   -0.021802    0.002260
      2          1           0       -0.724475    0.916300   -0.092452
      3          1           0       -0.390719   -0.854203   -0.585205
      4          1           0        0.093702   -0.306801    1.059552
      5          1           0        1.003678    0.266505   -0.384154
 ---------------------------------------------------------------------
                    Distance matrix (angstroms):
                    1          2          3          4          5
     1  C    0.000000
     2  H    1.200000   0.000000
     3  H    1.097682   1.867855   0.000000
     4  H    1.097656   1.868824   1.799872   0.000000
     5  H    1.097435   1.869181   1.800209   1.800284   0.000000
 Stoichiometry    CH4
 Framework group  C1[X(CH4)]
 Deg. of freedom     9
 Full point group                 C1      NOp   1
 Largest Abelian subgroup         C1      NOp   1
 Largest concise Abelian subgroup C1      NOp   1
                         Standard orientation:                         
 ---------------------------------------------------------------------
 Center     Atomic      Atomic             Coordinates (Angstroms)
 Number     Number       Type             X           Y           Z
 ---------------------------------------------------------------------
      1          6           0       -0.014122   -0.000129    0.000040
      2          1           0        1.185850   -0.004962    0.006783
      3          1           0       -0.358710    0.437429   -0.945849
      4          1           0       -0.369653    0.601503    0.846495
      5          1           0       -0.372756   -1.033197    0.092329
 ---------------------------------------------------------------------
 Rotational constants (GHZ):    154.7496993    146.1033236    146.0643732

 **********************************************************************

            Population analysis using the SCF density.

 **********************************************************************

 Orbital symmetries:
       Occupied  (A) (A) (A) (A) (A)
       Virtual   (A) (A) (A) (A) (A) (A) (A) (A) (A) (A) (A) (A)
                 (A) (A) (A) (A) (A) (A) (A) (A) (A) (A) (A) (A)
                 (A) (A) (A) (A) (A)
 The electronic state is 1-A.
 Alpha  occ. eigenvalues --  -10.22891  -0.69591  -0.40231  -0.40216  -0.38274
 Alpha virt. eigenvalues --    0.08050   0.13818   0.15656   0.15660   0.43397
 Alpha virt. eigenvalues --    0.43405   0.44180   0.63361   0.68080   0.70057
 Alpha virt. eigenvalues --    0.70068   0.78115   1.10664   1.10684   1.51911
 Alpha virt. eigenvalues --    1.51944   1.53558   1.68826   1.76734   1.76760
 Alpha virt. eigenvalues --    2.09514   2.11304   2.11410   2.49430   2.49444
 Alpha virt. eigenvalues --    2.52879   2.85356   2.91803   2.91818
          Condensed to atoms (all electrons):
               1          2          3          4          5
     1  C    4.641633   0.390289   0.405467   0.405514   0.405587
     2  H    0.390289   0.608697  -0.021413  -0.021348  -0.021323
     3  H    0.405467  -0.021413   0.596868  -0.021002  -0.020980
     4  H    0.405514  -0.021348  -0.021002   0.596690  -0.020992
     5  H    0.405587  -0.021323  -0.020980  -0.020992   0.596516
 Mulliken charges:
               1
     1  C   -0.248491
     2  H    0.065097
     3  H    0.061060
     4  H    0.061139
     5  H    0.061193
 Sum of Mulliken charges =   0.00000
 Mulliken charges with hydrogens summed into heavy atoms:
               1
     1  C    0.000000
 Electronic spatial extent (au):  <R**2>=             36.6529
 Charge=              0.0000 electrons
 Dipole moment (field-independent basis, Debye):
    X=             -0.0504    Y=              0.0008    Z=             -0.0008  Tot=              0.0504
 Quadrupole moment (field-independent basis, Debye-Ang):
   XX=             -8.3463   YY=             -8.3421   ZZ=             -8.3446
   XY=              0.0016   XZ=             -0.0018   YZ=              0.0001
 Traceless Quadrupole moment (field-independent basis, Debye-Ang):
   XX=             -0.0019   YY=              0.0022   ZZ=             -0.0003
   XY=              0.0016   XZ=             -0.0018   YZ=              0.0001
 Octapole moment (field-independent basis, Debye-Ang**2):
  XXX=              0.6841  YYY=             -0.5549  ZZZ=             -0.1680  XYY=             -0.5336
  XXY=             -0.0075  XXZ=              0.0102  XZZ=             -0.5248  YZZ=              0.5649
  YYZ=              0.1546  XYZ=             -0.0031
 Hexadecapole moment (field-independent basis, Debye-Ang**3):
 XXXX=            -16.4385 YYYY=            -15.4364 ZZZZ=            -15.4308 XXXY=             -0.0024
 XXXZ=              0.0043 YYYX=              0.3437 YYYZ=              0.0038 ZZZX=              0.0849
 ZZZY=             -0.0068 XXYY=             -5.7058 XXZZ=             -5.7154 YYZZ=             -5.1413
 XXYZ=              0.0035 YYXZ=             -0.0976 ZZXY=             -0.3339
 N-N= 1.305562956850D+01 E-N=-1.187734350340D+02  KE= 3.972493536162D+01
 1\1\GINC-ALEPH\FOpt\RPBE1PBE\def2SVP\C1H4\BALL4935\21-Apr-2020\0\\# PB
 E1PBE/Def2SVP Opt Geom=ModRedun\\const_opt\\0,1\C,0.0178139276,-0.0218
 021367,0.0022596735\H,-0.724475266,0.9163004183,-0.092452255\H,-0.3907
 189659,-0.8542029819,-0.5852054691\H,0.0937022485,-0.3068007937,1.0595
 517177\H,1.0036780558,0.2665054941,-0.3841536671\\Version=EM64L-G09Rev
 D.01\State=1-A\HF=-40.4231635\RMSD=1.038e-09\RMSF=1.847e-02\Dipole=0.0
 120354,-0.0156709,0.0015087\Quadrupole=0.0017977,-0.0021779,0.0003802,
 0.0009323,-0.0002267,-0.0007826\PG=C01 [X(C1H4)]\\@


 WE LEARN WISDOM FROM FAILURE MUCH MORE THAN FROM SUCCESS.
 WE DISCOVER WHAT WILL DO BY FINDING OUT WHAT WILL NOT DO...
 AND HE WHO NEVER MADE A MISTAKE NEVER MADE A DISCOVERY
 Job cpu time:       0 days  0 hours  0 minutes  8.6 seconds.
 File lengths (MBytes):  RWF=      5 Int=      0 D2E=      0 Chk=      1 Scr=      1
 Normal termination of Gaussian 09 at Tue Apr 21 10:39:57 2020.
