 Entering Gaussian System, Link 0=/usr/local/gaussian/g09/g09
 Input=TS_ts_guess_cyclopentadiene_isobutane_insertion_5-(tert-butyl)cyclopenta-1,3-diene--cyclopentadiene_carbene+isobutane_template_1-18_1-4_4-18_optts_g09.com
 Output=TS_ts_guess_cyclopentadiene_isobutane_insertion_5-(tert-butyl)cyclopenta-1,3-diene--cyclopentadiene_carbene+isobutane_template_1-18_1-4_4-18_optts_g09.log
 Initial command:
 /usr/local/gaussian/g09/l1.exe "/scratch/3499466.1.multiway.q/tmprfxxhzam/Gau-231180.inp" -scrdir="/scratch/3499466.1.multiway.q/tmprfxxhzam/"
 Entering Link 1 = /usr/local/gaussian/g09/l1.exe PID=    231181.
  
 Copyright (c) 1988,1990,1992,1993,1995,1998,2003,2009,2013,
            Gaussian, Inc.  All Rights Reserved.
  
 This is part of the Gaussian(R) 09 program.  It is based on
 the Gaussian(R) 03 system (copyright 2003, Gaussian, Inc.),
 the Gaussian(R) 98 system (copyright 1998, Gaussian, Inc.),
 the Gaussian(R) 94 system (copyright 1995, Gaussian, Inc.),
 the Gaussian 92(TM) system (copyright 1992, Gaussian, Inc.),
 the Gaussian 90(TM) system (copyright 1990, Gaussian, Inc.),
 the Gaussian 88(TM) system (copyright 1988, Gaussian, Inc.),
 the Gaussian 86(TM) system (copyright 1986, Carnegie Mellon
 University), and the Gaussian 82(TM) system (copyright 1983,
 Carnegie Mellon University). Gaussian is a federally registered
 trademark of Gaussian, Inc.
  
 This software contains proprietary and confidential information,
 including trade secrets, belonging to Gaussian, Inc.
  
 This software is provided under written license and may be
 used, copied, transmitted, or stored only in accord with that
 written license.
  
 The following legend is applicable only to US Government
 contracts under FAR:
  
                    RESTRICTED RIGHTS LEGEND
  
 Use, reproduction and disclosure by the US Government is
 subject to restrictions as set forth in subparagraphs (a)
 and (c) of the Commercial Computer Software - Restricted
 Rights clause in FAR 52.227-19.
  
 Gaussian, Inc.
 340 Quinnipiac St., Bldg. 40, Wallingford CT 06492
  
  
 ---------------------------------------------------------------
 Warning -- This program may not be used in any manner that
 competes with the business of Gaussian, Inc. or will provide
 assistance to any competitor of Gaussian, Inc.  The licensee
 of this program is prohibited from giving any competitor of
 Gaussian, Inc. access to this program.  By using this program,
 the user acknowledges that Gaussian, Inc. is engaged in the
 business of creating and licensing software in the field of
 computational chemistry and represents and warrants to the
 licensee that it is not a competitor of Gaussian, Inc. and that
 it will not use this program in any manner prohibited above.
 ---------------------------------------------------------------
  

 Cite this work as:
 Gaussian 09, Revision D.01,
 M. J. Frisch, G. W. Trucks, H. B. Schlegel, G. E. Scuseria, 
 M. A. Robb, J. R. Cheeseman, G. Scalmani, V. Barone, B. Mennucci, 
 G. A. Petersson, H. Nakatsuji, M. Caricato, X. Li, H. P. Hratchian, 
 A. F. Izmaylov, J. Bloino, G. Zheng, J. L. Sonnenberg, M. Hada, 
 M. Ehara, K. Toyota, R. Fukuda, J. Hasegawa, M. Ishida, T. Nakajima, 
 Y. Honda, O. Kitao, H. Nakai, T. Vreven, J. A. Montgomery, Jr., 
 J. E. Peralta, F. Ogliaro, M. Bearpark, J. J. Heyd, E. Brothers, 
 K. N. Kudin, V. N. Staroverov, T. Keith, R. Kobayashi, J. Normand, 
 K. Raghavachari, A. Rendell, J. C. Burant, S. S. Iyengar, J. Tomasi, 
 M. Cossi, N. Rega, J. M. Millam, M. Klene, J. E. Knox, J. B. Cross, 
 V. Bakken, C. Adamo, J. Jaramillo, R. Gomperts, R. E. Stratmann, 
 O. Yazyev, A. J. Austin, R. Cammi, C. Pomelli, J. W. Ochterski, 
 R. L. Martin, K. Morokuma, V. G. Zakrzewski, G. A. Voth, 
 P. Salvador, J. J. Dannenberg, S. Dapprich, A. D. Daniels, 
 O. Farkas, J. B. Foresman, J. V. Ortiz, J. Cioslowski, 
 and D. J. Fox, Gaussian, Inc., Wallingford CT, 2013.
 
 ******************************************
 Gaussian 09:  EM64L-G09RevD.01 24-Apr-2013
                 7-May-2020 
 ******************************************
 %mem=4000MB
 %nprocshared=8
 Will use up to    8 processors via shared memory.
 ----------------------------------------------------------------------
 # HF/3-21G* Freq Opt=(TS, CalcFC, NoEigenTest, MaxCycles=100, MaxStep=
 10, NoTrustUpdate) Geom=ModRedun NoSymm
 ----------------------------------------------------------------------
 1/5=1,6=100,8=10,9=1,10=4,11=1,18=120,38=1/1,3;
 2/9=110,12=2,15=1,17=6,18=5,40=1/2;
 3/5=5,7=1,11=9,16=1,25=1,30=1,71=2,140=1/1,2,3;
 4//1;
 5/5=2,38=5/2;
 8/6=4,10=90,11=11/1;
 11/6=1,8=1,9=11,15=111,16=1,31=1/1,2,10;
 10/6=1,13=1,31=1/2;
 6/7=2,8=2,9=2,10=2,28=1/1;
 7/10=1,18=20,25=1,30=1/1,2,3,16;
 1/5=1,6=100,8=10,9=1,10=4,11=1,18=20/3(2);
 2/9=110,15=1/2;
 99//99;
 2/9=110,15=1/2;
 3/5=5,7=1,11=9,16=1,25=1,30=1,71=1/1,2,3;
 4/5=5,16=3,69=1/1;
 5/5=2,38=5/2;
 7/30=1/1,2,3,16;
 1/5=1,6=100,8=10,9=1,11=1,18=20/3(-5);
 2/9=110,15=1/2;
 6/7=2,8=2,9=2,10=2,19=2,28=1/1;
 99/9=1/99;
 ----------------------------------------------------------------------
 TS_ts_guess_cyclopentadiene_isobutane_insertion_5-(tert-butyl)cyclopen
 ta-1,3-diene--cyclopentadiene_carbene+isobutane_template_1-18_1-4_4-18
 _optts
 ----------------------------------------------------------------------
 Symbolic Z-matrix:
 Charge =  0 Multiplicity = 1
 C                    -0.96976   0.92393  -0.92557 
 C                    -1.11971  -0.07405   0.20733 
 C                    -1.80484  -1.37088  -0.20042 
 C                    -1.66252   0.53144   1.49422 
 C                     1.0581   -0.50726   0.51098 
 C                     1.7554    0.70887   0.84578 
 C                     2.81075   0.80144  -0.00924 
 C                     2.7314   -0.28391  -0.97386 
 C                     1.62559  -1.03134  -0.70583 
 H                    -0.38813   1.7782   -0.61522 
 H                    -0.4861    0.47276  -1.77816 
 H                    -1.96515   1.2587   -1.21751 
 H                    -1.81691  -2.09148   0.60781 
 H                    -2.833    -1.13724  -0.46578 
 H                    -1.32113  -1.81141  -1.06091 
 H                    -2.68423   0.85316   1.30788 
 H                    -1.67401  -0.18733   2.30407 
 H                    -1.08177   1.39282   1.79297 
 H                    -0.04152  -0.73931   0.86339 
 H                     1.52912   1.35875   1.66221 
 H                     3.59921   1.52165   0.03539 
 H                     3.45289  -0.47417  -1.73914 
 H                     1.28655  -1.89323  -1.23716 
 
 Add virtual bond connecting atoms H19        and C2         Dist= 2.70D+00.
 The following ModRedundant input section has been read:
 B       2      19 B                                                           
 B       2       5 B                                                           
 B       5      19 B                                                           
 

 GradGradGradGradGradGradGradGradGradGradGradGradGradGradGradGradGradGrad
 Berny optimization.
 Initialization pass.
                           ----------------------------
                           !    Initial Parameters    !
                           ! (Angstroms and Degrees)  !
 --------------------------                            --------------------------
 ! Name  Definition              Value          Derivative Info.                !
 --------------------------------------------------------------------------------
 ! R1    R(1,2)                  1.5172         calculate D2E/DX2 analytically  !
 ! R2    R(1,10)                 1.0791         calculate D2E/DX2 analytically  !
 ! R3    R(1,11)                 1.0791         calculate D2E/DX2 analytically  !
 ! R4    R(1,12)                 1.09           calculate D2E/DX2 analytically  !
 ! R5    R(2,3)                  1.5223         calculate D2E/DX2 analytically  !
 ! R6    R(2,4)                  1.5223         calculate D2E/DX2 analytically  !
 ! R7    R(2,5)                  2.2411         calculate D2E/DX2 analytically  !
 ! R8    R(2,19)                 1.4267         calculate D2E/DX2 analytically  !
 ! R9    R(3,13)                 1.0829         calculate D2E/DX2 analytically  !
 ! R10   R(3,14)                 1.0872         calculate D2E/DX2 analytically  !
 ! R11   R(3,15)                 1.081          calculate D2E/DX2 analytically  !
 ! R12   R(4,16)                 1.0872         calculate D2E/DX2 analytically  !
 ! R13   R(4,17)                 1.0829         calculate D2E/DX2 analytically  !
 ! R14   R(4,18)                 1.081          calculate D2E/DX2 analytically  !
 ! R15   R(5,6)                  1.4413         calculate D2E/DX2 analytically  !
 ! R16   R(5,9)                  1.4413         calculate D2E/DX2 analytically  !
 ! R17   R(5,19)                 1.1778         calculate D2E/DX2 analytically  !
 ! R18   R(6,7)                  1.3614         calculate D2E/DX2 analytically  !
 ! R19   R(6,20)                 1.0678         calculate D2E/DX2 analytically  !
 ! R20   R(7,8)                  1.4542         calculate D2E/DX2 analytically  !
 ! R21   R(7,21)                 1.0688         calculate D2E/DX2 analytically  !
 ! R22   R(8,9)                  1.3614         calculate D2E/DX2 analytically  !
 ! R23   R(8,22)                 1.0688         calculate D2E/DX2 analytically  !
 ! R24   R(9,23)                 1.0678         calculate D2E/DX2 analytically  !
 ! A1    A(2,1,10)             111.055          calculate D2E/DX2 analytically  !
 ! A2    A(2,1,11)             111.0551         calculate D2E/DX2 analytically  !
 ! A3    A(2,1,12)             108.1652         calculate D2E/DX2 analytically  !
 ! A4    A(10,1,11)            108.4607         calculate D2E/DX2 analytically  !
 ! A5    A(10,1,12)            109.0326         calculate D2E/DX2 analytically  !
 ! A6    A(11,1,12)            109.0324         calculate D2E/DX2 analytically  !
 ! A7    A(1,2,3)              113.8804         calculate D2E/DX2 analytically  !
 ! A8    A(1,2,4)              113.8818         calculate D2E/DX2 analytically  !
 ! A9    A(1,2,5)               97.6008         calculate D2E/DX2 analytically  !
 ! A10   A(1,2,19)             125.1264         calculate D2E/DX2 analytically  !
 ! A11   A(3,2,4)              113.8778         calculate D2E/DX2 analytically  !
 ! A12   A(3,2,5)              107.9966         calculate D2E/DX2 analytically  !
 ! A13   A(3,2,19)              93.7877         calculate D2E/DX2 analytically  !
 ! A14   A(4,2,5)              107.9898         calculate D2E/DX2 analytically  !
 ! A15   A(4,2,19)              93.7963         calculate D2E/DX2 analytically  !
 ! A16   A(2,3,13)             111.8382         calculate D2E/DX2 analytically  !
 ! A17   A(2,3,14)             107.9331         calculate D2E/DX2 analytically  !
 ! A18   A(2,3,15)             111.0383         calculate D2E/DX2 analytically  !
 ! A19   A(13,3,14)            108.3382         calculate D2E/DX2 analytically  !
 ! A20   A(13,3,15)            109.1438         calculate D2E/DX2 analytically  !
 ! A21   A(14,3,15)            108.4478         calculate D2E/DX2 analytically  !
 ! A22   A(2,4,16)             107.9322         calculate D2E/DX2 analytically  !
 ! A23   A(2,4,17)             111.8388         calculate D2E/DX2 analytically  !
 ! A24   A(2,4,18)             111.0397         calculate D2E/DX2 analytically  !
 ! A25   A(16,4,17)            108.3375         calculate D2E/DX2 analytically  !
 ! A26   A(16,4,18)            108.4478         calculate D2E/DX2 analytically  !
 ! A27   A(17,4,18)            109.1432         calculate D2E/DX2 analytically  !
 ! A28   A(2,5,6)              109.7857         calculate D2E/DX2 analytically  !
 ! A29   A(2,5,9)              109.7862         calculate D2E/DX2 analytically  !
 ! A30   A(6,5,9)              108.2062         calculate D2E/DX2 analytically  !
 ! A31   A(6,5,19)             123.2594         calculate D2E/DX2 analytically  !
 ! A32   A(9,5,19)             123.2689         calculate D2E/DX2 analytically  !
 ! A33   A(5,6,7)              106.6499         calculate D2E/DX2 analytically  !
 ! A34   A(5,6,20)             126.0613         calculate D2E/DX2 analytically  !
 ! A35   A(7,6,20)             127.0935         calculate D2E/DX2 analytically  !
 ! A36   A(6,7,8)              108.8782         calculate D2E/DX2 analytically  !
 ! A37   A(6,7,21)             126.2598         calculate D2E/DX2 analytically  !
 ! A38   A(8,7,21)             124.8107         calculate D2E/DX2 analytically  !
 ! A39   A(7,8,9)              108.8738         calculate D2E/DX2 analytically  !
 ! A40   A(7,8,22)             124.8169         calculate D2E/DX2 analytically  !
 ! A41   A(9,8,22)             126.2675         calculate D2E/DX2 analytically  !
 ! A42   A(5,9,8)              106.6431         calculate D2E/DX2 analytically  !
 ! A43   A(5,9,23)             126.0578         calculate D2E/DX2 analytically  !
 ! A44   A(8,9,23)             127.0933         calculate D2E/DX2 analytically  !
 ! D1    D(10,1,2,3)          -173.9528         calculate D2E/DX2 analytically  !
 ! D2    D(10,1,2,4)            53.1913         calculate D2E/DX2 analytically  !
 ! D3    D(10,1,2,5)           -60.3771         calculate D2E/DX2 analytically  !
 ! D4    D(10,1,2,19)          -60.3877         calculate D2E/DX2 analytically  !
 ! D5    D(11,1,2,3)           -53.1703         calculate D2E/DX2 analytically  !
 ! D6    D(11,1,2,4)           173.9738         calculate D2E/DX2 analytically  !
 ! D7    D(11,1,2,5)            60.4054         calculate D2E/DX2 analytically  !
 ! D8    D(11,1,2,19)           60.3948         calculate D2E/DX2 analytically  !
 ! D9    D(12,1,2,3)            66.4383         calculate D2E/DX2 analytically  !
 ! D10   D(12,1,2,4)           -66.4176         calculate D2E/DX2 analytically  !
 ! D11   D(12,1,2,5)          -179.986          calculate D2E/DX2 analytically  !
 ! D12   D(12,1,2,19)         -179.9965         calculate D2E/DX2 analytically  !
 ! D13   D(1,2,3,13)           174.9925         calculate D2E/DX2 analytically  !
 ! D14   D(1,2,3,14)           -65.9327         calculate D2E/DX2 analytically  !
 ! D15   D(1,2,3,15)            52.8069         calculate D2E/DX2 analytically  !
 ! D16   D(4,2,3,13)           -52.1497         calculate D2E/DX2 analytically  !
 ! D17   D(4,2,3,14)            66.9251         calculate D2E/DX2 analytically  !
 ! D18   D(4,2,3,15)          -174.3352         calculate D2E/DX2 analytically  !
 ! D19   D(5,2,3,13)            67.7799         calculate D2E/DX2 analytically  !
 ! D20   D(5,2,3,14)          -173.1453         calculate D2E/DX2 analytically  !
 ! D21   D(5,2,3,15)           -54.4057         calculate D2E/DX2 analytically  !
 ! D22   D(19,2,3,13)           43.6973         calculate D2E/DX2 analytically  !
 ! D23   D(19,2,3,14)          162.7721         calculate D2E/DX2 analytically  !
 ! D24   D(19,2,3,15)          -78.4883         calculate D2E/DX2 analytically  !
 ! D25   D(1,2,4,16)            65.9614         calculate D2E/DX2 analytically  !
 ! D26   D(1,2,4,17)          -174.9649         calculate D2E/DX2 analytically  !
 ! D27   D(1,2,4,18)           -52.7786         calculate D2E/DX2 analytically  !
 ! D28   D(3,2,4,16)           -66.8957         calculate D2E/DX2 analytically  !
 ! D29   D(3,2,4,17)            52.1779         calculate D2E/DX2 analytically  !
 ! D30   D(3,2,4,18)           174.3643         calculate D2E/DX2 analytically  !
 ! D31   D(5,2,4,16)           173.1708         calculate D2E/DX2 analytically  !
 ! D32   D(5,2,4,17)           -67.7555         calculate D2E/DX2 analytically  !
 ! D33   D(5,2,4,18)            54.4308         calculate D2E/DX2 analytically  !
 ! D34   D(19,2,4,16)         -162.7372         calculate D2E/DX2 analytically  !
 ! D35   D(19,2,4,17)          -43.6635         calculate D2E/DX2 analytically  !
 ! D36   D(19,2,4,18)           78.5228         calculate D2E/DX2 analytically  !
 ! D37   D(1,2,5,6)             59.4445         calculate D2E/DX2 analytically  !
 ! D38   D(1,2,5,9)            -59.3905         calculate D2E/DX2 analytically  !
 ! D39   D(3,2,5,6)            177.6592         calculate D2E/DX2 analytically  !
 ! D40   D(3,2,5,9)             58.8242         calculate D2E/DX2 analytically  !
 ! D41   D(4,2,5,6)            -58.7695         calculate D2E/DX2 analytically  !
 ! D42   D(4,2,5,9)           -177.6045         calculate D2E/DX2 analytically  !
 ! D43   D(2,5,6,7)           -128.2454         calculate D2E/DX2 analytically  !
 ! D44   D(2,5,6,20)            56.5538         calculate D2E/DX2 analytically  !
 ! D45   D(9,5,6,7)             -8.4418         calculate D2E/DX2 analytically  !
 ! D46   D(9,5,6,20)           176.3574         calculate D2E/DX2 analytically  !
 ! D47   D(19,5,6,7)          -163.4432         calculate D2E/DX2 analytically  !
 ! D48   D(19,5,6,20)           21.356          calculate D2E/DX2 analytically  !
 ! D49   D(2,5,9,8)            128.3659         calculate D2E/DX2 analytically  !
 ! D50   D(2,5,9,23)           -56.56           calculate D2E/DX2 analytically  !
 ! D51   D(6,5,9,8)              8.5626         calculate D2E/DX2 analytically  !
 ! D52   D(6,5,9,23)          -176.3632         calculate D2E/DX2 analytically  !
 ! D53   D(19,5,9,8)           163.5612         calculate D2E/DX2 analytically  !
 ! D54   D(19,5,9,23)          -21.3647         calculate D2E/DX2 analytically  !
 ! D55   D(5,6,7,8)              5.1046         calculate D2E/DX2 analytically  !
 ! D56   D(5,6,7,21)          -172.3806         calculate D2E/DX2 analytically  !
 ! D57   D(20,6,7,8)          -179.7593         calculate D2E/DX2 analytically  !
 ! D58   D(20,6,7,21)            2.7555         calculate D2E/DX2 analytically  !
 ! D59   D(6,7,8,9)              0.1967         calculate D2E/DX2 analytically  !
 ! D60   D(6,7,8,22)          -177.5731         calculate D2E/DX2 analytically  !
 ! D61   D(21,7,8,9)           177.727          calculate D2E/DX2 analytically  !
 ! D62   D(21,7,8,22)           -0.0428         calculate D2E/DX2 analytically  !
 ! D63   D(7,8,9,5)             -5.4083         calculate D2E/DX2 analytically  !
 ! D64   D(7,8,9,23)           179.5842         calculate D2E/DX2 analytically  !
 ! D65   D(22,8,9,5)           172.3208         calculate D2E/DX2 analytically  !
 ! D66   D(22,8,9,23)           -2.6867         calculate D2E/DX2 analytically  !
 --------------------------------------------------------------------------------
 Trust Radius=1.00D-01 FncErr=1.00D-07 GrdErr=1.00D-07
 Number of steps in this run=    100 maximum allowed number of steps=    138.
 Search for a saddle point of order  1.
 GradGradGradGradGradGradGradGradGradGradGradGradGradGradGradGradGradGrad

                          Input orientation:                          
 ---------------------------------------------------------------------
 Center     Atomic      Atomic             Coordinates (Angstroms)
 Number     Number       Type             X           Y           Z
 ---------------------------------------------------------------------
      1          6           0       -0.969755    0.923927   -0.925569
      2          6           0       -1.119714   -0.074050    0.207331
      3          6           0       -1.804842   -1.370883   -0.200415
      4          6           0       -1.662524    0.531439    1.494217
      5          6           0        1.058097   -0.507262    0.510980
      6          6           0        1.755399    0.708873    0.845782
      7          6           0        2.810749    0.801438   -0.009243
      8          6           0        2.731403   -0.283913   -0.973864
      9          6           0        1.625588   -1.031345   -0.705827
     10          1           0       -0.388127    1.778197   -0.615224
     11          1           0       -0.486100    0.472763   -1.778158
     12          1           0       -1.965153    1.258704   -1.217513
     13          1           0       -1.816910   -2.091478    0.607806
     14          1           0       -2.832996   -1.137241   -0.465780
     15          1           0       -1.321134   -1.811405   -1.060912
     16          1           0       -2.684229    0.853157    1.307876
     17          1           0       -1.674012   -0.187332    2.304069
     18          1           0       -1.081772    1.392815    1.792967
     19          1           0       -0.041516   -0.739310    0.863386
     20          1           0        1.529120    1.358754    1.662214
     21          1           0        3.599207    1.521652    0.035388
     22          1           0        3.452891   -0.474166   -1.739140
     23          1           0        1.286550   -1.893225   -1.237162
 ---------------------------------------------------------------------
                    Distance matrix (angstroms):
                    1          2          3          4          5
     1  C    0.000000
     2  C    1.517204   0.000000
     3  C    2.547424   1.522312   0.000000
     4  C    2.547418   1.522280   2.551639   0.000000
     5  C    2.867779   2.241146   3.073816   3.073668   0.000000
     6  C    3.257360   3.047435   4.253849   3.483410   1.441287
     7  C    3.891898   4.032607   5.104822   4.726887   2.248359
     8  C    3.893556   4.033654   4.728345   5.105176   2.248244
     9  C    3.256867   3.047450   3.484046   4.253724   1.441294
    10  H    1.079066   2.154678   3.477909   2.761926   2.929714
    11  H    1.079064   2.154678   2.761772   3.477909   2.930042
    12  H    1.090011   2.126307   2.823989   2.823823   3.904659
    13  H    3.487345   2.171745   1.082878   2.772950   3.284019
    14  H    2.816289   2.125744   1.087248   2.827735   4.060978
    15  H    2.761128   2.160420   1.080966   3.483411   3.135662
    16  H    2.816506   2.125704   2.827475   1.087247   4.060885
    17  H    3.487325   2.171725   2.773148   1.082878   3.283587
    18  H    2.760949   2.160411   3.483451   1.080969   3.135733
    19  H    2.613110   1.426706   2.154037   2.154163   1.177788
    20  H    3.623544   3.344538   4.694210   3.301403   2.242592
    21  H    4.707030   4.984380   6.134012   5.549281   3.286323
    22  H    4.709178   4.985736   5.551174   6.134599   3.286210
    23  H    3.622754   3.344557   3.302180   4.694301   2.242562
                    6          7          8          9         10
     6  C    0.000000
     7  C    1.361396   0.000000
     8  C    2.291139   1.454227   0.000000
     9  C    2.335102   2.291054   1.361369   0.000000
    10  H    2.805833   3.399129   3.756646   3.457858   0.000000
    11  H    3.459064   3.755836   3.401731   2.805612   1.751049
    12  H    4.289756   4.947550   4.949411   4.289472   1.766249
    13  H    4.545326   5.492262   5.143552   3.834098   4.302512
    14  H    5.116806   5.984878   5.652332   4.466297   3.807820
    15  H    4.410481   5.000541   4.331728   3.068835   3.735557
    16  H    4.465943   5.650864   5.985678   5.116725   3.134661
    17  H    3.832838   5.142194   5.491981   4.545238   3.746876
    18  H    3.068302   4.330059   5.000707   4.410252   2.535556
    19  H    2.307910   3.357201   3.357373   2.308019   2.940114
    20  H    1.067759   2.178748   3.330578   3.365932   3.006409
    21  H    2.171860   1.068815   2.243154   3.310946   4.048203
    22  H    3.311024   2.243224   1.068826   2.171916   4.592357
    23  H    3.365916   3.330492   2.178718   1.067755   4.082976
                   11         12         13         14         15
    11  H    0.000000
    12  H    1.766246   0.000000
    13  H    3.746894   3.818047   0.000000
    14  H    3.134066   2.656841   1.759428   0.000000
    15  H    2.535576   3.140836   1.763194   1.759092   0.000000
    16  H    3.807897   2.656902   3.148526   2.670144   3.816946
    17  H    4.302492   3.818026   2.554114   3.149228   3.753030
    18  H    3.735539   3.140277   3.753043   3.817055   4.297551
    19  H    2.940158   3.467359   2.246264   3.117273   2.547495
    20  H    4.084391   4.529104   4.920548   5.457692   5.058584
    21  H    4.591171   5.709729   6.535801   6.978117   6.043252
    22  H    4.051401   5.712279   5.991215   6.447751   5.003950
    23  H    3.005472   4.528644   3.615892   4.258779   2.614914
                   16         17         18         19         20
    16  H    0.000000
    17  H    1.759419   0.000000
    18  H    1.759094   1.763190   0.000000
    19  H    3.117283   2.246172   2.547982   0.000000
    20  H    4.258344   3.614196   2.614386   2.739872   0.000000
    21  H    6.445749   5.989522   5.001724   4.364905   2.637870
    22  H    6.979279   6.535667   6.043556   4.365126   4.316214
    23  H    5.457739   4.920906   5.058526   2.739997   4.363552
                   21         22         23
    21  H    0.000000
    22  H    2.674630   0.000000
    23  H    4.316150   2.637943   0.000000
 Symmetry turned off by external request.
 Stoichiometry    C9H14
 Framework group  C1[X(C9H14)]
 Deg. of freedom    63
 Full point group                 C1      NOp   1
 Rotational constants (GHZ):      2.8803288      1.0697560      0.9575769
 Standard basis: 3-21G* (6D, 7F)
   109 basis functions,   177 primitive gaussians,   109 cartesian basis functions
    34 alpha electrons       34 beta electrons
       nuclear repulsion energy       440.8264257386 Hartrees.
 NAtoms=   23 NActive=   23 NUniq=   23 SFac= 1.00D+00 NAtFMM=   60 NAOKFM=F Big=F
 Integral buffers will be    131072 words long.
 Raffenetti 1 integral format.
 Two-electron integral symmetry is turned off.
 One-electron integrals computed using PRISM.
 NBasis=   109 RedAO= T EigKep=  4.13D-03  NBF=   109
 NBsUse=   109 1.00D-06 EigRej= -1.00D+00 NBFU=   109
 ExpMin= 1.83D-01 ExpMax= 1.72D+02 ExpMxC= 1.72D+02 IAcc=1 IRadAn=         1 AccDes= 0.00D+00
 Harris functional with IExCor=  205 and IRadAn=       1 diagonalized for initial guess.
 HarFok:  IExCor=  205 AccDes= 0.00D+00 IRadAn=         1 IDoV= 1 UseB2=F ITyADJ=14
 ICtDFT=  3500011 ScaDFX=  1.000000  1.000000  1.000000  1.000000
 FoFCou: FMM=F IPFlag=           0 FMFlag=      100000 FMFlg1=           0
         NFxFlg=           0 DoJE=T BraDBF=F KetDBF=T FulRan=T
         wScrn=  0.000000 ICntrl=     500 IOpCl=  0 I1Cent=   200000004 NGrid=           0
         NMat0=    1 NMatS0=      1 NMatT0=    0 NMatD0=    1 NMtDS0=    0 NMtDT0=    0
 Symmetry not used in FoFCou.
 Keep R1 ints in memory in canonical form, NReq=18897622.
 Requested convergence on RMS density matrix=1.00D-08 within 128 cycles.
 Requested convergence on MAX density matrix=1.00D-06.
 Requested convergence on             energy=1.00D-06.
 No special actions if energy rises.
 SCF Done:  E(RHF) =  -346.847399513     A.U. after   14 cycles
            NFock= 14  Conv=0.97D-08     -V/T= 2.0019
 Range of M.O.s used for correlation:     1   109
 NBasis=   109 NAE=    34 NBE=    34 NFC=     0 NFV=     0
 NROrb=    109 NOA=    34 NOB=    34 NVA=    75 NVB=    75
 Symmetrizing basis deriv contribution to polar:
 IMax=3 JMax=2 DiffMx= 0.00D+00
 G2DrvN: will do    24 centers at a time, making    1 passes.
 Calling FoFCou, ICntrl=  3107 FMM=F I1Cent=   0 AccDes= 0.00D+00.
 End of G2Drv F.D. properties file   721 does not exist.
 End of G2Drv F.D. properties file   722 does not exist.
 End of G2Drv F.D. properties file   788 does not exist.
          IDoAtm=11111111111111111111111
          Differentiating once with respect to nuclear coordinates.
 Keep R1 ints in memory in canonical form, NReq=18864035.
          There are    72 degrees of freedom in the 1st order CPHF.  IDoFFX=6 NUNeed=     0.
     66 vectors produced by pass  0 Test12= 3.54D-15 1.39D-09 XBig12= 6.28D-02 8.38D-02.
 AX will form    66 AO Fock derivatives at one time.
     66 vectors produced by pass  1 Test12= 3.54D-15 1.39D-09 XBig12= 2.77D-03 2.17D-02.
     66 vectors produced by pass  2 Test12= 3.54D-15 1.39D-09 XBig12= 5.82D-05 1.18D-03.
     66 vectors produced by pass  3 Test12= 3.54D-15 1.39D-09 XBig12= 2.81D-07 7.80D-05.
     66 vectors produced by pass  4 Test12= 3.54D-15 1.39D-09 XBig12= 1.55D-09 5.69D-06.
     66 vectors produced by pass  5 Test12= 3.54D-15 1.39D-09 XBig12= 7.91D-12 3.50D-07.
     47 vectors produced by pass  6 Test12= 3.54D-15 1.39D-09 XBig12= 4.11D-14 2.46D-08.
      1 vectors produced by pass  7 Test12= 3.54D-15 1.39D-09 XBig12= 1.74D-16 1.86D-09.
 InvSVY:  IOpt=1 It=  1 EMax= 6.38D-16
 Solved reduced A of dimension   444 with    72 vectors.
 End of Minotr F.D. properties file   721 does not exist.
 End of Minotr F.D. properties file   722 does not exist.
 End of Minotr F.D. properties file   788 does not exist.

 **********************************************************************

            Population analysis using the SCF density.

 **********************************************************************

 Alpha  occ. eigenvalues --  -11.27251 -11.19079 -11.19041 -11.17466 -11.16960
 Alpha  occ. eigenvalues --  -11.13824 -11.13803 -11.13471 -11.13426  -1.14780
 Alpha  occ. eigenvalues --   -1.12132  -0.97900  -0.96906  -0.93661  -0.91428
 Alpha  occ. eigenvalues --   -0.78843  -0.70878  -0.70599  -0.69040  -0.64011
 Alpha  occ. eigenvalues --   -0.63265  -0.62072  -0.57541  -0.56753  -0.54819
 Alpha  occ. eigenvalues --   -0.53607  -0.51724  -0.50992  -0.49195  -0.48974
 Alpha  occ. eigenvalues --   -0.48936  -0.46440  -0.27414  -0.26115
 Alpha virt. eigenvalues --    0.07428   0.22634   0.27343   0.27648   0.28481
 Alpha virt. eigenvalues --    0.30295   0.30481   0.30880   0.31578   0.33410
 Alpha virt. eigenvalues --    0.33922   0.36002   0.38055   0.38080   0.38375
 Alpha virt. eigenvalues --    0.38439   0.40220   0.42419   0.43299   0.46061
 Alpha virt. eigenvalues --    0.46586   0.51031   0.62734   0.63799   0.70791
 Alpha virt. eigenvalues --    0.84898   0.84991   0.86106   0.93407   0.94436
 Alpha virt. eigenvalues --    0.97081   0.99840   1.02357   1.05544   1.06296
 Alpha virt. eigenvalues --    1.06656   1.07831   1.09453   1.12010   1.13471
 Alpha virt. eigenvalues --    1.14175   1.17603   1.18491   1.19586   1.23950
 Alpha virt. eigenvalues --    1.28521   1.29168   1.29715   1.33105   1.33320
 Alpha virt. eigenvalues --    1.33997   1.34431   1.35777   1.37446   1.38679
 Alpha virt. eigenvalues --    1.39687   1.40799   1.41788   1.42262   1.45116
 Alpha virt. eigenvalues --    1.45824   1.51568   1.58653   1.60421   1.65541
 Alpha virt. eigenvalues --    1.70775   1.74517   1.85098   1.97923   2.08435
 Alpha virt. eigenvalues --    2.19986   2.24938   2.25142   2.39890   2.68799
          Condensed to atoms (all electrons):
               1          2          3          4          5          6
     1  C    5.366018   0.234108  -0.071383  -0.071375  -0.033635  -0.004354
     2  C    0.234108   5.924455   0.214807   0.214775   0.099208  -0.007387
     3  C   -0.071383   0.214807   5.421191  -0.081264  -0.015262   0.000797
     4  C   -0.071375   0.214775  -0.081264   5.421212  -0.015276  -0.000221
     5  C   -0.033635   0.099208  -0.015262  -0.015276   5.445828   0.395150
     6  C   -0.004354  -0.007387   0.000797  -0.000221   0.395150   5.327387
     7  C    0.000225  -0.000894  -0.000013  -0.000022  -0.150829   0.492524
     8  C    0.000227  -0.000884  -0.000021  -0.000013  -0.150883  -0.136570
     9  C   -0.004349  -0.007379  -0.000210   0.000796   0.395288  -0.139996
    10  H    0.381952  -0.043901   0.002967  -0.001089  -0.002948   0.004131
    11  H    0.381975  -0.043910  -0.001089   0.002967  -0.002930  -0.000838
    12  H    0.363733  -0.056627  -0.000739  -0.000743   0.001661   0.000081
    13  H    0.002877  -0.044098   0.380960  -0.000005  -0.000106   0.000006
    14  H   -0.001242  -0.048288   0.369995   0.000080   0.000607  -0.000013
    15  H   -0.000926  -0.043124   0.377448   0.003086  -0.000660  -0.000008
    16  H   -0.001240  -0.048304   0.000079   0.369979   0.000608   0.000003
    17  H    0.002877  -0.044099  -0.000004   0.380962  -0.000107   0.000007
    18  H   -0.000930  -0.043120   0.003086   0.377448  -0.000662   0.001260
    19  H    0.000273   0.008033  -0.039156  -0.039120   0.317852  -0.032154
    20  H   -0.000043   0.000164   0.000008   0.000428  -0.025192   0.398885
    21  H    0.000000  -0.000001   0.000000   0.000000   0.003025  -0.027876
    22  H    0.000000  -0.000001   0.000000   0.000000   0.003016   0.002581
    23  H   -0.000042   0.000164   0.000429   0.000008  -0.025221   0.002206
               7          8          9         10         11         12
     1  C    0.000225   0.000227  -0.004349   0.381952   0.381975   0.363733
     2  C   -0.000894  -0.000884  -0.007379  -0.043901  -0.043910  -0.056627
     3  C   -0.000013  -0.000021  -0.000210   0.002967  -0.001089  -0.000739
     4  C   -0.000022  -0.000013   0.000796  -0.001089   0.002967  -0.000743
     5  C   -0.150829  -0.150883   0.395288  -0.002948  -0.002930   0.001661
     6  C    0.492524  -0.136570  -0.139996   0.004131  -0.000838   0.000081
     7  C    5.275504   0.422698  -0.136727   0.001501  -0.000015  -0.000024
     8  C    0.422698   5.275672   0.492588  -0.000015   0.001485  -0.000024
     9  C   -0.136727   0.492588   5.327008  -0.000844   0.004117   0.000081
    10  H    0.001501  -0.000015  -0.000844   0.448825  -0.018958  -0.023786
    11  H   -0.000015   0.001485   0.004117  -0.018958   0.448880  -0.023784
    12  H   -0.000024  -0.000024   0.000081  -0.023786  -0.023784   0.535745
    13  H    0.000000   0.000001   0.000006  -0.000046  -0.000005  -0.000074
    14  H    0.000000  -0.000001   0.000003  -0.000051   0.000002   0.001875
    15  H    0.000000   0.000011   0.001256  -0.000032   0.001562   0.000058
    16  H   -0.000001   0.000000  -0.000013   0.000002  -0.000051   0.001876
    17  H    0.000001   0.000000   0.000005  -0.000005  -0.000046  -0.000074
    18  H    0.000012   0.000000  -0.000008   0.001563  -0.000032   0.000058
    19  H    0.003459   0.003457  -0.032151  -0.000395  -0.000395   0.000072
    20  H   -0.023827   0.002349   0.002203  -0.000026   0.000004   0.000002
    21  H    0.397795  -0.024028   0.002584   0.000008  -0.000001   0.000000
    22  H   -0.024009   0.397828  -0.027843  -0.000001   0.000008   0.000000
    23  H    0.002349  -0.023830   0.398876   0.000004  -0.000028   0.000002
              13         14         15         16         17         18
     1  C    0.002877  -0.001242  -0.000926  -0.001240   0.002877  -0.000930
     2  C   -0.044098  -0.048288  -0.043124  -0.048304  -0.044099  -0.043120
     3  C    0.380960   0.369995   0.377448   0.000079  -0.000004   0.003086
     4  C   -0.000005   0.000080   0.003086   0.369979   0.380962   0.377448
     5  C   -0.000106   0.000607  -0.000660   0.000608  -0.000107  -0.000662
     6  C    0.000006  -0.000013  -0.000008   0.000003   0.000007   0.001260
     7  C    0.000000   0.000000   0.000000  -0.000001   0.000001   0.000012
     8  C    0.000001  -0.000001   0.000011   0.000000   0.000000   0.000000
     9  C    0.000006   0.000003   0.001256  -0.000013   0.000005  -0.000008
    10  H   -0.000046  -0.000051  -0.000032   0.000002  -0.000005   0.001563
    11  H   -0.000005   0.000002   0.001562  -0.000051  -0.000046  -0.000032
    12  H   -0.000074   0.001875   0.000058   0.001876  -0.000074   0.000058
    13  H    0.473539  -0.023721  -0.021126  -0.000158   0.001641  -0.000025
    14  H   -0.023721   0.490099  -0.020664   0.001566  -0.000158  -0.000037
    15  H   -0.021126  -0.020664   0.458363  -0.000036  -0.000025  -0.000052
    16  H   -0.000158   0.001566  -0.000036   0.490154  -0.023724  -0.020664
    17  H    0.001641  -0.000158  -0.000025  -0.023724   0.473543  -0.021126
    18  H   -0.000025  -0.000037  -0.000052  -0.020664  -0.021126   0.458350
    19  H    0.001675   0.001850  -0.001340   0.001849   0.001678  -0.001340
    20  H    0.000000   0.000000   0.000000  -0.000008  -0.000015   0.000978
    21  H    0.000000   0.000000   0.000000   0.000000   0.000000   0.000000
    22  H    0.000000   0.000000   0.000000   0.000000   0.000000   0.000000
    23  H   -0.000015  -0.000008   0.000976   0.000000   0.000000   0.000000
              19         20         21         22         23
     1  C    0.000273  -0.000043   0.000000   0.000000  -0.000042
     2  C    0.008033   0.000164  -0.000001  -0.000001   0.000164
     3  C   -0.039156   0.000008   0.000000   0.000000   0.000429
     4  C   -0.039120   0.000428   0.000000   0.000000   0.000008
     5  C    0.317852  -0.025192   0.003025   0.003016  -0.025221
     6  C   -0.032154   0.398885  -0.027876   0.002581   0.002206
     7  C    0.003459  -0.023827   0.397795  -0.024009   0.002349
     8  C    0.003457   0.002349  -0.024028   0.397828  -0.023830
     9  C   -0.032151   0.002203   0.002584  -0.027843   0.398876
    10  H   -0.000395  -0.000026   0.000008  -0.000001   0.000004
    11  H   -0.000395   0.000004  -0.000001   0.000008  -0.000028
    12  H    0.000072   0.000002   0.000000   0.000000   0.000002
    13  H    0.001675   0.000000   0.000000   0.000000  -0.000015
    14  H    0.001850   0.000000   0.000000   0.000000  -0.000008
    15  H   -0.001340   0.000000   0.000000   0.000000   0.000976
    16  H    0.001849  -0.000008   0.000000   0.000000   0.000000
    17  H    0.001678  -0.000015   0.000000   0.000000   0.000000
    18  H   -0.001340   0.000978   0.000000   0.000000   0.000000
    19  H    0.516606  -0.000640  -0.000048  -0.000047  -0.000643
    20  H   -0.000640   0.435097  -0.000470  -0.000035  -0.000024
    21  H   -0.000048  -0.000470   0.436660  -0.000128  -0.000035
    22  H   -0.000047  -0.000035  -0.000128   0.436538  -0.000473
    23  H   -0.000643  -0.000024  -0.000035  -0.000473   0.435168
 Mulliken charges:
               1
     1  C   -0.544746
     2  C   -0.263698
     3  C   -0.562626
     4  C   -0.562614
     5  C   -0.238534
     6  C   -0.275600
     7  C   -0.259705
     8  C   -0.260047
     9  C   -0.275292
    10  H    0.251143
    11  H    0.251082
    12  H    0.200629
    13  H    0.228672
    14  H    0.228106
    15  H    0.245236
    16  H    0.228081
    17  H    0.228670
    18  H    0.245240
    19  H    0.290624
    20  H    0.210164
    21  H    0.212513
    22  H    0.212565
    23  H    0.210137
 Sum of Mulliken charges =   0.00000
 Mulliken charges with hydrogens summed into heavy atoms:
               1
     1  C    0.158108
     2  C   -0.263698
     3  C    0.139388
     4  C    0.139377
     5  C    0.052090
     6  C   -0.065436
     7  C   -0.047192
     8  C   -0.047482
     9  C   -0.065155
 APT charges:
               1
     1  C   -1.232119
     2  C    0.522102
     3  C   -1.559025
     4  C   -1.571407
     5  C   -0.001180
     6  C   -0.633604
     7  C   -0.865414
     8  C   -0.857338
     9  C   -0.624402
    10  H    0.376193
    11  H    0.372085
    12  H    0.486427
    13  H    0.475975
    14  H    0.532495
    15  H    0.366856
    16  H    0.532654
    17  H    0.476050
    18  H    0.370877
    19  H    0.303882
    20  H    0.477933
    21  H    0.791627
    22  H    0.788240
    23  H    0.471091
 Sum of APT charges =   0.00000
 APT charges with hydrogens summed into heavy atoms:
               1
     1  C    0.002586
     2  C    0.522102
     3  C   -0.183699
     4  C   -0.191825
     5  C    0.302702
     6  C   -0.155671
     7  C   -0.073787
     8  C   -0.069098
     9  C   -0.153311
 Electronic spatial extent (au):  <R**2>=           1405.3012
 Charge=              0.0000 electrons
 Dipole moment (field-independent basis, Debye):
    X=             -4.9491    Y=              0.5322    Z=             -0.1829  Tot=              4.9810
 Quadrupole moment (field-independent basis, Debye-Ang):
   XX=            -59.6855   YY=            -57.6391   ZZ=            -57.9142
   XY=              3.1039   XZ=             -3.2017   YZ=              3.2678
 Traceless Quadrupole moment (field-independent basis, Debye-Ang):
   XX=             -1.2726   YY=              0.7738   ZZ=              0.4988
   XY=              3.1039   XZ=             -3.2017   YZ=              3.2678
 Octapole moment (field-independent basis, Debye-Ang**2):
  XXX=            -79.6585  YYY=              5.3312  ZZZ=             -4.9541  XYY=            -25.5259
  XXY=             10.1560  XXZ=             -9.9639  XZZ=            -25.5966  YZZ=              1.8089
  YYZ=             -2.2419  XYZ=              5.2909
 Hexadecapole moment (field-independent basis, Debye-Ang**3):
 XXXX=          -1261.3581 YYYY=           -340.2425 ZZZZ=           -341.3972 XXXY=             -2.3261
 XXXZ=             37.1689 YYYX=            -21.8404 YYYZ=            -26.9232 ZZZX=             60.3145
 ZZZY=            -28.0864 XXYY=           -270.2961 XXZZ=           -269.4242 YYZZ=           -108.2653
 XXYZ=             -3.2781 YYXZ=             22.3066 ZZXY=            -10.6781
 N-N= 4.408264257386D+02 E-N=-1.687298895941D+03  KE= 3.461981599124D+02
  Exact polarizability:   0.000   0.000   0.000   0.000   0.000   0.000
 Approx polarizability: 123.977  10.632  70.230 -15.741   8.349  70.409
 Calling FoFJK, ICntrl=    100147 FMM=F ISym2X=0 I1Cent= 0 IOpClX= 0 NMat=1 NMatS=1 NMatT=0.
 -------------------------------------------------------------------
 Center     Atomic                   Forces (Hartrees/Bohr)
 Number     Number              X              Y              Z
 -------------------------------------------------------------------
      1        6          -0.000258968    0.000030087   -0.000007207
      2        6           0.011815379    0.006259488   -0.007990794
      3        6           0.000076404   -0.000067111    0.000051244
      4        6           0.000058220   -0.000034892    0.000072371
      5        6          -0.049621434    0.002511928    0.001335598
      6        6           0.000165483    0.000091918   -0.000449396
      7        6           0.000066229   -0.000242981    0.000426564
      8        6          -0.000437761    0.000148204   -0.000228522
      9        6           0.000427300    0.000084367    0.000143364
     10        1           0.000030405    0.000042339    0.000017924
     11        1           0.000021604   -0.000024118   -0.000045811
     12        1           0.000031623   -0.000011670    0.000010175
     13        1          -0.000032987    0.000014407    0.000024497
     14        1          -0.000034845   -0.000019917   -0.000058742
     15        1           0.000029952    0.000008713   -0.000002595
     16        1          -0.000032320    0.000065283    0.000019848
     17        1          -0.000037535   -0.000025543   -0.000009361
     18        1           0.000028647   -0.000005918   -0.000015405
     19        1           0.037694979   -0.008857190    0.006746712
     20        1          -0.000053904    0.000052394    0.000000013
     21        1           0.000060386    0.000014365    0.000003895
     22        1           0.000029593    0.000007125   -0.000023180
     23        1          -0.000026448   -0.000041278   -0.000021191
 -------------------------------------------------------------------
 Cartesian Forces:  Max     0.049621434 RMS     0.007856489
 FormGI is forming the generalized inverse of G from B-inverse, IUseBI=4.

 GradGradGradGradGradGradGradGradGradGradGradGradGradGradGradGradGradGrad
 Berny optimization.
 Internal  Forces:  Max     0.024744001 RMS     0.003381072
 Search for a saddle point.
 Step number   1 out of a maximum of  100
 All quantities printed in internal units (Hartrees-Bohrs-Radians)
 Swapping is turned off.
 Second derivative matrix not updated -- analytic derivatives used.
 ITU=  0
     Eigenvalues ---   -0.04133   0.00087   0.00213   0.00227   0.00453
     Eigenvalues ---    0.00483   0.01238   0.01510   0.01658   0.01839
     Eigenvalues ---    0.02705   0.03689   0.03914   0.04309   0.04359
     Eigenvalues ---    0.04432   0.04509   0.04596   0.04676   0.04865
     Eigenvalues ---    0.04870   0.05736   0.06064   0.07370   0.11093
     Eigenvalues ---    0.11320   0.11418   0.11725   0.12849   0.12925
     Eigenvalues ---    0.14000   0.14723   0.14752   0.15261   0.17606
     Eigenvalues ---    0.18038   0.18139   0.18601   0.20051   0.20202
     Eigenvalues ---    0.20367   0.24461   0.27228   0.31291   0.31791
     Eigenvalues ---    0.33604   0.35647   0.36040   0.36114   0.36514
     Eigenvalues ---    0.36784   0.37507   0.37694   0.38427   0.38621
     Eigenvalues ---    0.38655   0.39205   0.40882   0.40922   0.41371
     Eigenvalues ---    0.41449   0.48583   0.58138
 Eigenvectors required to have negative eigenvalues:
                          R8        R7        R17       D54       D48
   1                   -0.54175   0.34122   0.26264  -0.24066   0.24064
                          D43       D49       D53       D47       A10
   1                   -0.20179   0.20175  -0.19740   0.19732  -0.16537
 RFO step:  Lambda0=1.633936102D-02 Lambda=-5.52552660D-03.
 Linear search not attempted -- option 19 set.
 Maximum step size (   0.100) exceeded in Quadratic search.
    -- Step size scaled by   0.236
 Iteration  1 RMS(Cart)=  0.01216734 RMS(Int)=  0.00023167
 Iteration  2 RMS(Cart)=  0.00027348 RMS(Int)=  0.00016738
 Iteration  3 RMS(Cart)=  0.00000006 RMS(Int)=  0.00016738
 Variable       Old X    -DE/DX   Delta X   Delta X   Delta X     New X
                                 (Linear)    (Quad)   (Total)
    R1        2.86710   0.00003   0.00000   0.00170   0.00170   2.86880
    R2        2.03914   0.00006   0.00000  -0.00018  -0.00018   2.03896
    R3        2.03914   0.00006   0.00000  -0.00018  -0.00018   2.03896
    R4        2.05982  -0.00004   0.00000  -0.00065  -0.00065   2.05917
    R5        2.87675   0.00003   0.00000   0.00212   0.00212   2.87888
    R6        2.87669   0.00005   0.00000   0.00213   0.00213   2.87883
    R7        4.23515  -0.02135   0.00000   0.00032  -0.00020   4.23495
    R8        2.69608   0.01375   0.00000  -0.08747  -0.08735   2.60874
    R9        2.04634   0.00001   0.00000  -0.00017  -0.00017   2.04617
   R10        2.05460   0.00004   0.00000  -0.00051  -0.00051   2.05409
   R11        2.04273   0.00001   0.00000   0.00026   0.00026   2.04299
   R12        2.05460   0.00005   0.00000  -0.00051  -0.00051   2.05409
   R13        2.04634   0.00001   0.00000  -0.00017  -0.00017   2.04617
   R14        2.04273   0.00001   0.00000   0.00025   0.00025   2.04299
   R15        2.72364  -0.00035   0.00000  -0.00157  -0.00155   2.72209
   R16        2.72365  -0.00037   0.00000  -0.00158  -0.00156   2.72209
   R17        2.22570  -0.02474   0.00000   0.00974   0.01059   2.23629
   R18        2.57267  -0.00005   0.00000   0.00145   0.00145   2.57411
   R19        2.01777   0.00004   0.00000  -0.00022  -0.00022   2.01755
   R20        2.74809   0.00049   0.00000  -0.00145  -0.00148   2.74661
   R21        2.01977   0.00005   0.00000   0.00002   0.00002   2.01979
   R22        2.57261  -0.00002   0.00000   0.00146   0.00146   2.57407
   R23        2.01979   0.00004   0.00000   0.00001   0.00001   2.01980
   R24        2.01776   0.00005   0.00000  -0.00022  -0.00022   2.01755
    A1        1.93827   0.00000   0.00000   0.00060   0.00060   1.93888
    A2        1.93828   0.00000   0.00000   0.00061   0.00061   1.93888
    A3        1.88784   0.00000   0.00000  -0.00163  -0.00163   1.88621
    A4        1.89300   0.00000   0.00000   0.00013   0.00013   1.89313
    A5        1.90298   0.00000   0.00000   0.00014   0.00014   1.90312
    A6        1.90298   0.00000   0.00000   0.00014   0.00014   1.90311
    A7        1.98759  -0.00005   0.00000  -0.00171  -0.00175   1.98584
    A8        1.98761  -0.00005   0.00000  -0.00172  -0.00176   1.98586
    A9        1.70346   0.00020   0.00000  -0.01309  -0.01268   1.69077
   A10        2.18387  -0.00001   0.00000  -0.02666  -0.02705   2.15681
   A11        1.98754   0.00010   0.00000  -0.00318  -0.00315   1.98439
   A12        1.88490  -0.00010   0.00000   0.01030   0.01008   1.89498
   A13        1.63691   0.00001   0.00000   0.01842   0.01866   1.65557
   A14        1.88478  -0.00010   0.00000   0.01028   0.01007   1.89484
   A15        1.63705   0.00003   0.00000   0.01843   0.01867   1.65572
   A16        1.95194  -0.00001   0.00000  -0.00185  -0.00185   1.95009
   A17        1.88379   0.00006   0.00000   0.00087   0.00087   1.88465
   A18        1.93798  -0.00005   0.00000  -0.00028  -0.00028   1.93771
   A19        1.89086  -0.00002   0.00000   0.00120   0.00120   1.89206
   A20        1.90492   0.00003   0.00000  -0.00006  -0.00006   1.90486
   A21        1.89277  -0.00001   0.00000   0.00023   0.00023   1.89300
   A22        1.88377   0.00007   0.00000   0.00087   0.00087   1.88464
   A23        1.95196  -0.00001   0.00000  -0.00186  -0.00186   1.95010
   A24        1.93801  -0.00005   0.00000  -0.00028  -0.00028   1.93773
   A25        1.89085  -0.00002   0.00000   0.00120   0.00120   1.89204
   A26        1.89277  -0.00002   0.00000   0.00023   0.00023   1.89300
   A27        1.90491   0.00003   0.00000  -0.00005  -0.00006   1.90485
   A28        1.91612  -0.00331   0.00000  -0.00032  -0.00035   1.91577
   A29        1.91613  -0.00333   0.00000  -0.00032  -0.00035   1.91578
   A30        1.88855   0.00102   0.00000   0.00286   0.00272   1.89128
   A31        2.15128   0.00071   0.00000  -0.01160  -0.01206   2.13922
   A32        2.15145   0.00067   0.00000  -0.01165  -0.01210   2.13935
   A33        1.86139  -0.00061   0.00000  -0.00359  -0.00360   1.85780
   A34        2.20018   0.00030   0.00000   0.00191   0.00190   2.20208
   A35        2.21820   0.00031   0.00000   0.00090   0.00088   2.21908
   A36        1.90028   0.00010   0.00000   0.00051   0.00048   1.90076
   A37        2.20365  -0.00003   0.00000  -0.00064  -0.00063   2.20302
   A38        2.17836  -0.00007   0.00000  -0.00007  -0.00006   2.17829
   A39        1.90021   0.00013   0.00000   0.00053   0.00050   1.90070
   A40        2.17847  -0.00009   0.00000  -0.00008  -0.00008   2.17839
   A41        2.20378  -0.00005   0.00000  -0.00066  -0.00065   2.20313
   A42        1.86127  -0.00062   0.00000  -0.00359  -0.00359   1.85769
   A43        2.20012   0.00031   0.00000   0.00193   0.00192   2.20204
   A44        2.21820   0.00032   0.00000   0.00090   0.00087   2.21907
    D1       -3.03605   0.00003   0.00000  -0.00461  -0.00460  -3.04065
    D2        0.92836  -0.00002   0.00000   0.00362   0.00361   0.93198
    D3       -1.05378   0.00000   0.00000  -0.00048  -0.00048  -1.05426
    D4       -1.05396  -0.00001   0.00000  -0.00049  -0.00049  -1.05446
    D5       -0.92800   0.00003   0.00000  -0.00362  -0.00361  -0.93161
    D6        3.03642  -0.00002   0.00000   0.00461   0.00460   3.04101
    D7        1.05427   0.00000   0.00000   0.00051   0.00051   1.05478
    D8        1.05409  -0.00001   0.00000   0.00049   0.00050   1.05458
    D9        1.15957   0.00003   0.00000  -0.00411  -0.00411   1.15546
   D10       -1.15921  -0.00002   0.00000   0.00411   0.00410  -1.15510
   D11       -3.14135   0.00000   0.00000   0.00001   0.00001  -3.14134
   D12       -3.14153  -0.00001   0.00000   0.00000   0.00000  -3.14153
   D13        3.05420   0.00005   0.00000  -0.00174  -0.00174   3.05245
   D14       -1.15074   0.00006   0.00000  -0.00081  -0.00082  -1.15156
   D15        0.92165   0.00005   0.00000  -0.00016  -0.00016   0.92149
   D16       -0.91018   0.00003   0.00000  -0.00926  -0.00928  -0.91946
   D17        1.16806   0.00004   0.00000  -0.00834  -0.00836   1.15971
   D18       -3.04272   0.00003   0.00000  -0.00768  -0.00770  -3.05042
   D19        1.18298  -0.00011   0.00000   0.00889   0.00857   1.19155
   D20       -3.02196  -0.00010   0.00000   0.00982   0.00950  -3.01246
   D21       -0.94956  -0.00011   0.00000   0.01048   0.01015  -0.93941
   D22        0.76266   0.00008   0.00000   0.01896   0.01931   0.78197
   D23        2.84091   0.00009   0.00000   0.01989   0.02023   2.86114
   D24       -1.36988   0.00008   0.00000   0.02054   0.02089  -1.34899
   D25        1.15124  -0.00006   0.00000   0.00079   0.00080   1.15204
   D26       -3.05371  -0.00005   0.00000   0.00172   0.00172  -3.05199
   D27       -0.92116  -0.00006   0.00000   0.00014   0.00014  -0.92102
   D28       -1.16755  -0.00004   0.00000   0.00832   0.00834  -1.15921
   D29        0.91068  -0.00003   0.00000   0.00924   0.00926   0.91994
   D30        3.04323  -0.00003   0.00000   0.00766   0.00768   3.05091
   D31        3.02240   0.00010   0.00000  -0.00985  -0.00953   3.01288
   D32       -1.18256   0.00011   0.00000  -0.00892  -0.00860  -1.19116
   D33        0.95000   0.00010   0.00000  -0.01051  -0.01018   0.93981
   D34       -2.84030  -0.00008   0.00000  -0.01990  -0.02025  -2.86055
   D35       -0.76207  -0.00007   0.00000  -0.01898  -0.01932  -0.78140
   D36        1.37048  -0.00007   0.00000  -0.02056  -0.02091   1.34958
   D37        1.03750  -0.00140   0.00000   0.00156   0.00146   1.03896
   D38       -1.03656   0.00139   0.00000  -0.00155  -0.00145  -1.03801
   D39        3.10074  -0.00140   0.00000  -0.00273  -0.00284   3.09789
   D40        1.02668   0.00140   0.00000  -0.00584  -0.00575   1.02092
   D41       -1.02572  -0.00140   0.00000   0.00587   0.00578  -1.01994
   D42       -3.09978   0.00139   0.00000   0.00275   0.00287  -3.09691
   D43       -2.23830   0.00535   0.00000  -0.02014  -0.01997  -2.25827
   D44        0.98705   0.00538   0.00000  -0.01060  -0.01043   0.97662
   D45       -0.14734   0.00000   0.00000  -0.01899  -0.01895  -0.16629
   D46        3.07802   0.00003   0.00000  -0.00945  -0.00942   3.06860
   D47       -2.85262  -0.00553   0.00000   0.02892   0.02869  -2.82394
   D48        0.37273  -0.00550   0.00000   0.03846   0.03822   0.41095
   D49        2.24041  -0.00546   0.00000   0.01968   0.01951   2.25992
   D50       -0.98716  -0.00537   0.00000   0.01063   0.01046  -0.97669
   D51        0.14945  -0.00012   0.00000   0.01853   0.01849   0.16794
   D52       -3.07812  -0.00003   0.00000   0.00948   0.00945  -3.06867
   D53        2.85468   0.00542   0.00000  -0.02938  -0.02914   2.82554
   D54       -0.37288   0.00551   0.00000  -0.03843  -0.03818  -0.41106
   D55        0.08909   0.00006   0.00000   0.01196   0.01191   0.10100
   D56       -3.00861  -0.00001   0.00000   0.01682   0.01680  -2.99181
   D57       -3.13739   0.00002   0.00000   0.00235   0.00231  -3.13508
   D58        0.04809  -0.00004   0.00000   0.00721   0.00720   0.05529
   D59        0.00343  -0.00020   0.00000  -0.00074  -0.00074   0.00269
   D60       -3.09923  -0.00002   0.00000   0.00494   0.00497  -3.09426
   D61        3.10192  -0.00013   0.00000  -0.00553  -0.00556   3.09636
   D62       -0.00075   0.00005   0.00000   0.00015   0.00015  -0.00059
   D63       -0.09439   0.00025   0.00000  -0.01080  -0.01076  -0.10515
   D64        3.13434   0.00016   0.00000  -0.00170  -0.00166   3.13267
   D65        3.00757   0.00006   0.00000  -0.01658  -0.01656   2.99101
   D66       -0.04689  -0.00003   0.00000  -0.00747  -0.00746  -0.05435
         Item               Value     Threshold  Converged?
 Maximum Force            0.024744     0.000450     NO 
 RMS     Force            0.003381     0.000300     NO 
 Maximum Displacement     0.061318     0.001800     NO 
 RMS     Displacement     0.012064     0.001200     NO 
 Predicted change in Energy= 2.360628D-03
 GradGradGradGradGradGradGradGradGradGradGradGradGradGradGradGradGradGrad

                          Input orientation:                          
 ---------------------------------------------------------------------
 Center     Atomic      Atomic             Coordinates (Angstroms)
 Number     Number       Type             X           Y           Z
 ---------------------------------------------------------------------
      1          6           0       -0.962945    0.916643   -0.918052
      2          6           0       -1.118492   -0.081295    0.215336
      3          6           0       -1.811461   -1.374316   -0.195454
      4          6           0       -1.669197    0.527513    1.498634
      5          6           0        1.063773   -0.501519    0.504102
      6          6           0        1.754842    0.717854    0.836517
      7          6           0        2.818213    0.801657   -0.010657
      8          6           0        2.738582   -0.282794   -0.975086
      9          6           0        1.625001   -1.023120   -0.715697
     10          1           0       -0.380628    1.769993   -0.606794
     11          1           0       -0.478592    0.464581   -1.769651
     12          1           0       -1.957141    1.252603   -1.211451
     13          1           0       -1.825854   -2.095513    0.612070
     14          1           0       -2.838171   -1.135258   -0.460473
     15          1           0       -1.329572   -1.815933   -1.056580
     16          1           0       -2.689938    0.848164    1.306839
     17          1           0       -1.682907   -0.190264    2.309212
     18          1           0       -1.090106    1.389793    1.798481
     19          1           0       -0.054428   -0.709419    0.830938
     20          1           0        1.525445    1.370537    1.649683
     21          1           0        3.613846    1.513338    0.042854
     22          1           0        3.467055   -0.481306   -1.731604
     23          1           0        1.282894   -1.881830   -1.249957
 ---------------------------------------------------------------------
                    Distance matrix (angstroms):
                    1          2          3          4          5
     1  C    0.000000
     2  C    1.518105   0.000000
     3  C    2.547670   1.523436   0.000000
     4  C    2.547663   1.523409   2.550907   0.000000
     5  C    2.853294   2.241039   3.085146   3.084983   0.000000
     6  C    3.241049   3.046401   4.261533   3.492660   1.440467
     7  C    3.890211   4.040832   5.118876   4.742358   2.245285
     8  C    3.891427   4.041624   4.743642   5.119023   2.245177
     9  C    3.240539   3.046410   3.493318   4.261392   1.440470
    10  H    1.078972   2.155831   3.478960   2.763511   2.912069
    11  H    1.078971   2.155835   2.763364   3.478963   2.912419
    12  H    1.089668   2.125638   2.820315   2.820147   3.891784
    13  H    3.486971   2.171366   1.082787   2.773229   3.301881
    14  H    2.817117   2.127170   1.086976   2.823014   4.069054
    15  H    2.760539   2.161317   1.081101   3.483705   3.145077
    16  H    2.817328   2.127138   2.822769   1.086976   4.068953
    17  H    3.486950   2.171348   2.773420   1.082787   3.301447
    18  H    2.760361   2.161309   3.483738   1.081102   3.145103
    19  H    2.555083   1.380485   2.140732   2.140863   1.183393
    20  H    3.604354   3.339996   4.698265   3.307452   2.242787
    21  H    4.714489   4.996762   6.150553   5.567916   3.282571
    22  H    4.716039   4.997782   5.569556   6.150872   3.282461
    23  H    3.603527   3.340010   3.308260   4.698353   2.242765
                    6          7          8          9         10
     6  C    0.000000
     7  C    1.362161   0.000000
     8  C    2.291494   1.453444   0.000000
     9  C    2.336068   2.291429   1.362140   0.000000
    10  H    2.783950   3.394943   3.752205   3.440332   0.000000
    11  H    3.441582   3.751880   3.397074   2.783734   1.750980
    12  H    4.273049   4.944620   4.946021   4.272754   1.765983
    13  H    4.559253   5.508969   5.161306   3.849856   4.303073
    14  H    5.119764   5.995720   5.664953   4.471871   3.808072
    15  H    4.417862   5.014963   4.348222   3.078029   3.736531
    16  H    4.471494   5.663717   5.996255   5.119674   3.137623
    17  H    3.848587   5.160017   5.508605   4.559164   3.747215
    18  H    3.077435   4.346704   5.014885   4.417584   2.536387
    19  H    2.304474   3.353163   3.353302   2.304554   2.884608
    20  H    1.067642   2.179817   3.330858   3.366679   2.980665
    21  H    2.172232   1.068824   2.242405   3.311272   4.055088
    22  H    3.311329   2.242465   1.068831   2.172278   4.597630
    23  H    3.366670   3.330791   2.179793   1.067640   4.064083
                   11         12         13         14         15
    11  H    0.000000
    12  H    1.765976   0.000000
    13  H    3.747237   3.814753   0.000000
    14  H    3.137045   2.653689   1.759893   0.000000
    15  H    2.536411   3.135879   1.763193   1.759128   0.000000
    16  H    3.808147   2.653743   3.145565   2.660701   3.812317
    17  H    4.303059   3.814726   2.555523   3.146236   3.754490
    18  H    3.736513   3.135325   3.754498   3.812413   4.299465
    19  H    2.884658   3.411920   2.259891   3.098113   2.532407
    20  H    4.065558   4.508703   4.931668   5.456457   5.062467
    21  H    4.597076   5.716394   6.552720   6.992634   6.060543
    22  H    4.057619   5.718295   6.009438   6.465238   5.024392
    23  H    2.979691   4.508212   3.630030   4.261905   2.620442
                   16         17         18         19         20
    16  H    0.000000
    17  H    1.759885   0.000000
    18  H    1.759130   1.763190   0.000000
    19  H    3.098138   2.259814   2.532876   0.000000
    20  H    4.261440   3.628305   2.619851   2.737255   0.000000
    21  H    6.463576   6.007847   5.022415   4.360959   2.638884
    22  H    6.993439   6.552480   6.060547   4.361135   4.316512
    23  H    5.456508   4.932044   5.062373   2.737353   4.364016
                   21         22         23
    21  H    0.000000
    22  H    2.673734   0.000000
    23  H    4.316464   2.638941   0.000000
 Symmetry turned off by external request.
 Stoichiometry    C9H14
 Framework group  C1[X(C9H14)]
 Deg. of freedom    63
 Full point group                 C1      NOp   1
 Rotational constants (GHZ):      2.8961143      1.0671598      0.9538541
 Standard basis: 3-21G* (6D, 7F)
   109 basis functions,   177 primitive gaussians,   109 cartesian basis functions
    34 alpha electrons       34 beta electrons
       nuclear repulsion energy       440.8870030011 Hartrees.
 NAtoms=   23 NActive=   23 NUniq=   23 SFac= 1.00D+00 NAtFMM=   60 NAOKFM=F Big=F
 Integral buffers will be    131072 words long.
 Raffenetti 1 integral format.
 Two-electron integral symmetry is turned off.
 One-electron integrals computed using PRISM.
 NBasis=   109 RedAO= T EigKep=  4.13D-03  NBF=   109
 NBsUse=   109 1.00D-06 EigRej= -1.00D+00 NBFU=   109
 Initial guess from the checkpoint file:  "/scratch/3499466.1.multiway.q/tmprfxxhzam/Gau-231181.chk"
 B after Tr=     0.001838   -0.000246    0.000136
         Rot=    1.000000   -0.000042   -0.000532   -0.000475 Ang=  -0.08 deg.
 ExpMin= 1.83D-01 ExpMax= 1.72D+02 ExpMxC= 1.72D+02 IAcc=1 IRadAn=         1 AccDes= 0.00D+00
 Harris functional with IExCor=  205 and IRadAn=       1 diagonalized for initial guess.
 HarFok:  IExCor=  205 AccDes= 0.00D+00 IRadAn=         1 IDoV= 1 UseB2=F ITyADJ=14
 ICtDFT=  3500011 ScaDFX=  1.000000  1.000000  1.000000  1.000000
 FoFCou: FMM=F IPFlag=           0 FMFlag=      100000 FMFlg1=           0
         NFxFlg=           0 DoJE=T BraDBF=F KetDBF=T FulRan=T
         wScrn=  0.000000 ICntrl=     500 IOpCl=  0 I1Cent=   200000004 NGrid=           0
         NMat0=    1 NMatS0=      1 NMatT0=    0 NMatD0=    1 NMtDS0=    0 NMtDT0=    0
 Symmetry not used in FoFCou.
 Keep R1 ints in memory in canonical form, NReq=18897576.
 Requested convergence on RMS density matrix=1.00D-08 within 128 cycles.
 Requested convergence on MAX density matrix=1.00D-06.
 Requested convergence on             energy=1.00D-06.
 No special actions if energy rises.
 SCF Done:  E(RHF) =  -346.845033447     A.U. after   13 cycles
            NFock= 13  Conv=0.37D-08     -V/T= 2.0018
 Calling FoFJK, ICntrl=      2127 FMM=F ISym2X=0 I1Cent= 0 IOpClX= 0 NMat=1 NMatS=1 NMatT=0.
 -------------------------------------------------------------------
 Center     Atomic                   Forces (Hartrees/Bohr)
 Number     Number              X              Y              Z
 -------------------------------------------------------------------
      1        6          -0.000715262    0.000092963   -0.000040436
      2        6           0.009615060    0.005642887   -0.007118048
      3        6           0.000126408   -0.000047085    0.000087442
      4        6           0.000107512   -0.000080713    0.000051573
      5        6          -0.039905743    0.002610465    0.000410313
      6        6           0.000361885    0.000073400   -0.000253953
      7        6          -0.000029412   -0.000127198    0.000422918
      8        6          -0.000430553    0.000030921   -0.000228016
      9        6           0.000556690   -0.000052298    0.000104632
     10        1           0.000027884    0.000033631    0.000017905
     11        1           0.000020512   -0.000023150   -0.000036201
     12        1           0.000045382    0.000024659   -0.000031552
     13        1          -0.000064103    0.000013863    0.000033149
     14        1          -0.000022994   -0.000026731   -0.000069497
     15        1           0.000029561   -0.000009770    0.000010621
     16        1          -0.000018309    0.000075393    0.000023336
     17        1          -0.000068790   -0.000030972   -0.000005437
     18        1           0.000029076   -0.000015866    0.000005557
     19        1           0.030355192   -0.008234909    0.006672991
     20        1          -0.000019275    0.000013208    0.000021106
     21        1           0.000010092    0.000046289   -0.000035474
     22        1          -0.000013075    0.000043094   -0.000055204
     23        1           0.000002262   -0.000052079    0.000012277
 -------------------------------------------------------------------
 Cartesian Forces:  Max     0.039905743 RMS     0.006381317

 GradGradGradGradGradGradGradGradGradGradGradGradGradGradGradGradGradGrad
 Berny optimization.
 FormGI is forming the generalized inverse of G from B-inverse, IUseBI=4.
 Internal  Forces:  Max     0.019858969 RMS     0.002743337
 Search for a saddle point.
 Step number   2 out of a maximum of  100
 All quantities printed in internal units (Hartrees-Bohrs-Radians)
 Swapping is turned off.
 Update second derivatives using D2CorX and points    1    2
 ITU=  0  0
     Eigenvalues ---   -0.04085   0.00087   0.00213   0.00227   0.00453
     Eigenvalues ---    0.00475   0.01238   0.01522   0.01658   0.01837
     Eigenvalues ---    0.02706   0.03688   0.03916   0.04309   0.04359
     Eigenvalues ---    0.04436   0.04509   0.04595   0.04676   0.04863
     Eigenvalues ---    0.04884   0.05736   0.06087   0.07365   0.11090
     Eigenvalues ---    0.11321   0.11422   0.11724   0.12848   0.12924
     Eigenvalues ---    0.13999   0.14723   0.14752   0.15262   0.17606
     Eigenvalues ---    0.18038   0.18138   0.18604   0.20044   0.20202
     Eigenvalues ---    0.20363   0.24461   0.27227   0.31291   0.31791
     Eigenvalues ---    0.33605   0.35648   0.36039   0.36114   0.36514
     Eigenvalues ---    0.36784   0.37507   0.37694   0.38427   0.38621
     Eigenvalues ---    0.38655   0.39205   0.40882   0.40922   0.41371
     Eigenvalues ---    0.41448   0.48581   0.58138
 Eigenvectors required to have negative eigenvalues:
                          R8        R7        R17       D54       D48
   1                   -0.53352   0.34200   0.27737  -0.23815   0.23813
                          D43       D49       D53       D47       A10
   1                   -0.19739   0.19735  -0.19491   0.19485  -0.17145
 RFO step:  Lambda0=1.237324022D-02 Lambda=-3.42667030D-03.
 Linear search not attempted -- option 19 set.
 Maximum step size (   0.100) exceeded in Quadratic search.
    -- Step size scaled by   0.270
 Iteration  1 RMS(Cart)=  0.01164497 RMS(Int)=  0.00026593
 Iteration  2 RMS(Cart)=  0.00029510 RMS(Int)=  0.00019885
 Iteration  3 RMS(Cart)=  0.00000007 RMS(Int)=  0.00019885
 Variable       Old X    -DE/DX   Delta X   Delta X   Delta X     New X
                                 (Linear)    (Quad)   (Total)
    R1        2.86880   0.00009   0.00000   0.00166   0.00166   2.87047
    R2        2.03896   0.00005   0.00000  -0.00008  -0.00008   2.03888
    R3        2.03896   0.00005   0.00000  -0.00008  -0.00008   2.03888
    R4        2.05917  -0.00003   0.00000  -0.00076  -0.00076   2.05842
    R5        2.87888   0.00001   0.00000   0.00219   0.00219   2.88107
    R6        2.87883   0.00002   0.00000   0.00220   0.00220   2.88103
    R7        4.23495  -0.01709   0.00000   0.00690   0.00630   4.24125
    R8        2.60874   0.01179   0.00000  -0.08578  -0.08564   2.52309
    R9        2.04617   0.00002   0.00000  -0.00017  -0.00017   2.04600
   R10        2.05409   0.00003   0.00000  -0.00048  -0.00048   2.05360
   R11        2.04299   0.00001   0.00000   0.00029   0.00029   2.04328
   R12        2.05409   0.00004   0.00000  -0.00048  -0.00048   2.05360
   R13        2.04617   0.00002   0.00000  -0.00017  -0.00017   2.04600
   R14        2.04299   0.00000   0.00000   0.00029   0.00029   2.04328
   R15        2.72209  -0.00019   0.00000  -0.00089  -0.00086   2.72122
   R16        2.72209  -0.00021   0.00000  -0.00090  -0.00087   2.72122
   R17        2.23629  -0.01986   0.00000   0.01560   0.01658   2.25287
   R18        2.57411  -0.00012   0.00000   0.00110   0.00109   2.57520
   R19        2.01755   0.00003   0.00000  -0.00028  -0.00028   2.01727
   R20        2.74661   0.00048   0.00000  -0.00093  -0.00096   2.74565
   R21        2.01979   0.00004   0.00000   0.00001   0.00001   2.01979
   R22        2.57407  -0.00010   0.00000   0.00111   0.00110   2.57517
   R23        2.01980   0.00002   0.00000   0.00000   0.00000   2.01980
   R24        2.01755   0.00004   0.00000  -0.00027  -0.00027   2.01727
    A1        1.93888  -0.00002   0.00000   0.00061   0.00061   1.93949
    A2        1.93888  -0.00002   0.00000   0.00062   0.00062   1.93950
    A3        1.88621   0.00008   0.00000  -0.00142  -0.00142   1.88479
    A4        1.89313   0.00001   0.00000   0.00004   0.00004   1.89317
    A5        1.90312  -0.00003   0.00000   0.00007   0.00007   1.90319
    A6        1.90311  -0.00003   0.00000   0.00006   0.00006   1.90318
    A7        1.98584  -0.00006   0.00000  -0.00207  -0.00212   1.98372
    A8        1.98586  -0.00006   0.00000  -0.00207  -0.00213   1.98373
    A9        1.69077   0.00010   0.00000  -0.01085  -0.01038   1.68039
   A10        2.15681   0.00050   0.00000  -0.02676  -0.02721   2.12961
   A11        1.98439   0.00007   0.00000  -0.00336  -0.00331   1.98108
   A12        1.89498  -0.00002   0.00000   0.00968   0.00945   1.90443
   A13        1.65557  -0.00023   0.00000   0.01903   0.01930   1.67487
   A14        1.89484  -0.00002   0.00000   0.00966   0.00943   1.90427
   A15        1.65572  -0.00022   0.00000   0.01903   0.01930   1.67502
   A16        1.95009   0.00000   0.00000  -0.00193  -0.00193   1.94816
   A17        1.88465   0.00006   0.00000   0.00113   0.00113   1.88578
   A18        1.93771  -0.00003   0.00000  -0.00022  -0.00022   1.93749
   A19        1.89206  -0.00003   0.00000   0.00111   0.00111   1.89317
   A20        1.90486   0.00002   0.00000  -0.00012  -0.00012   1.90474
   A21        1.89300  -0.00002   0.00000   0.00012   0.00012   1.89313
   A22        1.88464   0.00007   0.00000   0.00113   0.00113   1.88578
   A23        1.95010   0.00000   0.00000  -0.00193  -0.00193   1.94816
   A24        1.93773  -0.00003   0.00000  -0.00022  -0.00022   1.93750
   A25        1.89204  -0.00003   0.00000   0.00111   0.00111   1.89316
   A26        1.89300  -0.00002   0.00000   0.00012   0.00012   1.89313
   A27        1.90485   0.00002   0.00000  -0.00011  -0.00012   1.90474
   A28        1.91577  -0.00263   0.00000  -0.00183  -0.00189   1.91388
   A29        1.91578  -0.00265   0.00000  -0.00183  -0.00189   1.91389
   A30        1.89128   0.00080   0.00000   0.00243   0.00228   1.89356
   A31        2.13922   0.00073   0.00000  -0.01370  -0.01425   2.12498
   A32        2.13935   0.00070   0.00000  -0.01373  -0.01428   2.12507
   A33        1.85780  -0.00049   0.00000  -0.00363  -0.00362   1.85417
   A34        2.20208   0.00024   0.00000   0.00176   0.00174   2.20382
   A35        2.21908   0.00025   0.00000   0.00099   0.00096   2.22004
   A36        1.90076   0.00010   0.00000   0.00053   0.00050   1.90126
   A37        2.20302  -0.00003   0.00000  -0.00057  -0.00056   2.20247
   A38        2.17829  -0.00007   0.00000  -0.00019  -0.00018   2.17811
   A39        1.90070   0.00012   0.00000   0.00055   0.00052   1.90122
   A40        2.17839  -0.00008   0.00000  -0.00020  -0.00020   2.17819
   A41        2.20313  -0.00005   0.00000  -0.00059  -0.00058   2.20255
   A42        1.85769  -0.00049   0.00000  -0.00362  -0.00361   1.85407
   A43        2.20204   0.00025   0.00000   0.00177   0.00175   2.20379
   A44        2.21907   0.00026   0.00000   0.00099   0.00096   2.22003
    D1       -3.04065   0.00000   0.00000  -0.00500  -0.00499  -3.04563
    D2        0.93198   0.00002   0.00000   0.00411   0.00410   0.93607
    D3       -1.05426   0.00001   0.00000  -0.00043  -0.00043  -1.05470
    D4       -1.05446   0.00000   0.00000  -0.00044  -0.00044  -1.05489
    D5       -0.93161  -0.00001   0.00000  -0.00411  -0.00409  -0.93570
    D6        3.04101   0.00000   0.00000   0.00500   0.00499   3.04601
    D7        1.05478  -0.00001   0.00000   0.00046   0.00046   1.05524
    D8        1.05458  -0.00001   0.00000   0.00045   0.00045   1.05504
    D9        1.15546  -0.00001   0.00000  -0.00455  -0.00454   1.15092
   D10       -1.15510   0.00001   0.00000   0.00456   0.00454  -1.15056
   D11       -3.14134   0.00000   0.00000   0.00001   0.00001  -3.14133
   D12       -3.14153   0.00000   0.00000   0.00001   0.00001  -3.14153
   D13        3.05245   0.00017   0.00000   0.00077   0.00077   3.05322
   D14       -1.15156   0.00017   0.00000   0.00171   0.00171  -1.14985
   D15        0.92149   0.00017   0.00000   0.00244   0.00243   0.92392
   D16       -0.91946   0.00009   0.00000  -0.00771  -0.00774  -0.92720
   D17        1.15971   0.00009   0.00000  -0.00677  -0.00680   1.15291
   D18       -3.05042   0.00009   0.00000  -0.00605  -0.00607  -3.05650
   D19        1.19155   0.00009   0.00000   0.00930   0.00893   1.20048
   D20       -3.01246   0.00009   0.00000   0.01024   0.00987  -3.00259
   D21       -0.93941   0.00009   0.00000   0.01096   0.01059  -0.92882
   D22        0.78197  -0.00025   0.00000   0.02141   0.02181   0.80378
   D23        2.86114  -0.00024   0.00000   0.02235   0.02275   2.88390
   D24       -1.34899  -0.00025   0.00000   0.02307   0.02348  -1.32551
   D25        1.15204  -0.00017   0.00000  -0.00174  -0.00174   1.15031
   D26       -3.05199  -0.00017   0.00000  -0.00080  -0.00079  -3.05278
   D27       -0.92102  -0.00017   0.00000  -0.00246  -0.00246  -0.92348
   D28       -1.15921  -0.00009   0.00000   0.00674   0.00676  -1.15245
   D29        0.91994  -0.00009   0.00000   0.00768   0.00771   0.92764
   D30        3.05091  -0.00009   0.00000   0.00602   0.00604   3.05695
   D31        3.01288  -0.00009   0.00000  -0.01028  -0.00991   3.00297
   D32       -1.19116  -0.00009   0.00000  -0.00934  -0.00896  -1.20012
   D33        0.93981  -0.00009   0.00000  -0.01100  -0.01063   0.92919
   D34       -2.86055   0.00025   0.00000  -0.02238  -0.02279  -2.88333
   D35       -0.78140   0.00025   0.00000  -0.02144  -0.02184  -0.80324
   D36        1.34958   0.00026   0.00000  -0.02310  -0.02351   1.32607
   D37        1.03896  -0.00113   0.00000   0.00037   0.00025   1.03921
   D38       -1.03801   0.00111   0.00000  -0.00037  -0.00024  -1.03825
   D39        3.09789  -0.00115   0.00000  -0.00367  -0.00379   3.09410
   D40        1.02092   0.00109   0.00000  -0.00442  -0.00429   1.01663
   D41       -1.01994  -0.00109   0.00000   0.00443   0.00430  -1.01564
   D42       -3.09691   0.00115   0.00000   0.00369   0.00381  -3.09311
   D43       -2.25827   0.00442   0.00000  -0.01731  -0.01706  -2.27533
   D44        0.97662   0.00437   0.00000  -0.00762  -0.00737   0.96924
   D45       -0.16629   0.00014   0.00000  -0.01915  -0.01909  -0.18538
   D46        3.06860   0.00009   0.00000  -0.00945  -0.00940   3.05920
   D47       -2.82394  -0.00446   0.00000   0.03350   0.03317  -2.79077
   D48        0.41095  -0.00450   0.00000   0.04320   0.04286   0.45381
   D49        2.25992  -0.00451   0.00000   0.01689   0.01664   2.27655
   D50       -0.97669  -0.00437   0.00000   0.00764   0.00740  -0.96929
   D51        0.16794  -0.00023   0.00000   0.01872   0.01867   0.18661
   D52       -3.06867  -0.00009   0.00000   0.00948   0.00943  -3.05924
   D53        2.82554   0.00437   0.00000  -0.03392  -0.03359   2.79196
   D54       -0.41106   0.00451   0.00000  -0.04317  -0.04282  -0.45389
   D55        0.10100  -0.00005   0.00000   0.01199   0.01194   0.11294
   D56       -2.99181  -0.00009   0.00000   0.01701   0.01699  -2.97482
   D57       -3.13508   0.00000   0.00000   0.00222   0.00218  -3.13290
   D58        0.05529  -0.00005   0.00000   0.00724   0.00723   0.06253
   D59        0.00269  -0.00016   0.00000  -0.00069  -0.00069   0.00200
   D60       -3.09426  -0.00001   0.00000   0.00510   0.00513  -3.08914
   D61        3.09636  -0.00011   0.00000  -0.00564  -0.00567   3.09069
   D62       -0.00059   0.00004   0.00000   0.00015   0.00015  -0.00045
   D63       -0.10515   0.00029   0.00000  -0.01092  -0.01087  -0.11602
   D64        3.13267   0.00014   0.00000  -0.00161  -0.00157   3.13110
   D65        2.99101   0.00014   0.00000  -0.01680  -0.01678   2.97423
   D66       -0.05435   0.00000   0.00000  -0.00749  -0.00748  -0.06183
         Item               Value     Threshold  Converged?
 Maximum Force            0.019859     0.000450     NO 
 RMS     Force            0.002743     0.000300     NO 
 Maximum Displacement     0.061288     0.001800     NO 
 RMS     Displacement     0.011513     0.001200     NO 
 Predicted change in Energy= 2.188716D-03
 GradGradGradGradGradGradGradGradGradGradGradGradGradGradGradGradGradGrad

                          Input orientation:                          
 ---------------------------------------------------------------------
 Center     Atomic      Atomic             Coordinates (Angstroms)
 Number     Number       Type             X           Y           Z
 ---------------------------------------------------------------------
      1          6           0       -0.957834    0.909834   -0.910916
      2          6           0       -1.117377   -0.088221    0.222994
      3          6           0       -1.818187   -1.377422   -0.190788
      4          6           0       -1.675980    0.523845    1.502706
      5          6           0        1.071928   -0.497844    0.499334
      6          6           0        1.755959    0.725874    0.828342
      7          6           0        2.825841    0.802195   -0.012241
      8          6           0        2.745946   -0.281584   -0.976640
      9          6           0        1.626077   -1.016015   -0.724612
     10          1           0       -0.375117    1.762673   -0.599161
     11          1           0       -0.473075    0.457270   -1.761960
     12          1           0       -1.951146    1.246414   -1.205106
     13          1           0       -1.836114   -2.098590    0.616571
     14          1           0       -2.843071   -1.133015   -0.456940
     15          1           0       -1.337240   -1.821017   -1.051616
     16          1           0       -2.695261    0.844880    1.305317
     17          1           0       -1.693219   -0.193442    2.313530
     18          1           0       -1.097669    1.386132    1.804581
     19          1           0       -0.067700   -0.679513    0.798505
     20          1           0        1.523806    1.380922    1.638629
     21          1           0        3.627796    1.506102    0.049203
[...]
 709,-0.07485725,0.01794253,-0.00025480,0.00165460,0.00054532,0.0041718
 8,-0.00221807,0.00026711,-0.00031054,0.00193921,-0.00049967,-0.0007434
 4,0.00038668,0.00134274,-0.00083574,-0.00152424,-0.00054868,0.00096143
 ,0.00008896,-0.00135747,0.00027346,0.00029117,-0.00020329,-0.00006316,
 -0.00005707,-0.00006337,0.00017987,-0.00044870,0.00016982,0.02510871,-
 0.00619226,0.00535455,-0.07041318,0.08138773,0.00056700,0.00041535,-0.
 00009330,-0.01096608,0.00172861,-0.00399756,-0.06538618,0.01795093,-0.
 07475368,-0.00040510,0.00086349,0.00009886,0.00192392,-0.00089836,-0.0
 0004660,0.00011096,0.00080851,-0.00008427,-0.00023383,0.00025087,0.000
 57435,-0.00030008,-0.00059274,-0.00008752,0.00027055,-0.00003356,-0.00
 048298,0.00003968,-0.00005982,-0.00009358,0.00018549,-0.00004901,-0.00
 003760,0.00020836,0.00015068,0.00030880,-0.02869130,0.00640482,-0.0072
 1465,0.07497981,-0.01806736,0.07688214,0.00047944,0.00098114,-0.000472
 92,0.00846734,-0.01113567,-0.01866171,-0.11708768,0.05549355,0.1042471
 0,-0.00200798,-0.00337690,-0.00062979,-0.00052838,0.00030115,-0.000033
 88,0.00004450,-0.00003848,-0.00003282,0.00000269,0.00006468,-0.0000795
 2,-0.00000753,-0.00006929,0.00001662,0.00007858,-0.00016968,0.00012360
 ,-0.00001387,0.00017215,-0.00021537,0.00020765,-0.00002231,0.00015314,
 -0.00005856,0.00011785,0.00012953,-0.00066160,-0.00017952,-0.00031546,
 -0.01595332,0.01529921,0.03026436,0.12537021,0.00127689,0.00133390,-0.
 00075970,0.01722170,-0.01552807,-0.02686716,0.05182017,-0.10841353,-0.
 09083842,-0.00479528,-0.00483656,-0.00078802,0.00041358,-0.00026017,0.
 00004222,0.00050452,0.00041650,-0.00028130,-0.00024254,0.00041258,0.00
 060271,-0.00027863,-0.00072837,-0.00006565,0.00064498,0.00012806,-0.00
 025102,-0.00021810,0.00046835,0.00018554,-0.00065650,-0.00045238,0.000
 85039,-0.00001816,-0.00007584,-0.00008681,-0.01272938,0.01280898,0.020
 54216,0.00422149,-0.00450902,-0.00725323,-0.05707993,0.11794027,-0.000
 15757,0.00103894,0.00054114,0.00566862,-0.00445673,-0.00937993,0.10129
 244,-0.09352505,-0.23573729,-0.00216368,-0.00174707,0.00046537,0.00048
 622,-0.00034026,-0.00005164,0.00019052,0.00055730,-0.00023905,-0.00008
 242,0.00039265,0.00045431,-0.00022683,-0.00045568,0.00003854,0.0004065
 6,-0.00024570,-0.00036565,-0.00017404,0.00008406,0.00010712,-0.0000070
 9,-0.00006578,0.00074002,-0.00008604,0.00010454,-0.00004964,0.01335832
 ,-0.01295397,-0.02214009,-0.00464908,0.00527079,0.00939304,-0.11369353
 ,0.10581356,0.25603825,0.00010372,-0.00009018,-0.00101982,-0.01662904,
 0.00536260,-0.00268292,0.00032349,-0.00060123,-0.00069613,-0.29606171,
 0.07686021,-0.05411031,0.00190159,-0.00084397,0.00078720,0.00069846,0.
 00066163,-0.00047088,-0.00034591,0.00062076,0.00088657,-0.00045848,-0.
 00077378,-0.00016726,0.00026157,0.00025776,-0.00087064,-0.00015028,0.0
 0015665,-0.00000703,0.00032888,-0.00013469,0.00015127,0.00055976,-0.00
 039190,0.00076295,-0.00001230,-0.00005527,0.00008740,0.00080286,0.0002
 7546,0.00025140,0.00032562,-0.00011040,0.00018466,0.32679091,-0.000519
 84,0.00001796,0.00075014,0.01571738,-0.00632020,0.00195468,0.00050170,
 0.00029329,0.00105011,0.07674772,-0.08158084,0.01761577,-0.00265527,0.
 00012628,-0.00103218,-0.00048714,-0.00066251,0.00012061,0.00034895,-0.
 00032172,-0.00084801,0.00043598,0.00079404,0.00019529,-0.00001775,-0.0
 0003988,0.00111990,-0.00017127,-0.00004868,-0.00003587,-0.00010831,-0.
 00010138,-0.00001809,-0.00024092,0.00038582,0.00001280,0.00017611,-0.0
 0009580,-0.00000221,-0.00041585,-0.00025268,-0.00066716,-0.00031657,0.
 00022031,0.00003224,-0.08796279,0.08538063,0.00023912,0.00011521,0.001
 77584,0.03062133,-0.01030591,0.00314362,0.00035093,0.00072484,0.001513
 73,-0.05443756,0.01762614,-0.06956497,-0.00421533,0.00042323,-0.001887
 80,-0.00105995,-0.00124750,0.00034892,0.00065945,-0.00080687,-0.001498
 65,0.00086765,0.00129886,0.00016208,0.00041770,-0.00032214,0.00192194,
 0.00008575,-0.00008354,-0.00004987,-0.00028080,-0.00012482,0.00032363,
 -0.00022524,0.00012455,-0.00051996,-0.00010841,0.00000197,-0.00008353,
 -0.00033053,-0.00018303,-0.00015779,-0.00005337,0.00045384,0.00009707,
 0.05874934,-0.01692211,0.07525989,-0.00087226,0.00216121,0.00230069,-0
 .00268520,-0.01178218,0.01434525,-0.00014171,-0.00032290,-0.00098158,-
 0.05826364,-0.00522857,0.00457010,0.00012650,0.00010529,-0.00075096,-0
 .00053063,-0.00028728,0.00020243,0.00018264,-0.00020560,-0.00047694,0.
 00032568,0.00037214,0.00002230,-0.00023828,0.00006391,0.00025918,0.000
 14558,0.00034091,-0.00032865,0.00031814,-0.00051515,0.00091184,0.00029
 202,-0.00021511,0.00033572,0.00042929,0.00009270,-0.00018308,-0.000020
 58,0.00008071,-0.00019172,-0.00017955,-0.00006308,-0.00004420,0.002537
 64,0.02523866,-0.02839590,0.05849779,0.00117131,-0.00127586,-0.0025495
 8,0.00105685,0.01117637,-0.01546579,-0.00001408,0.00132463,-0.00029590
 ,-0.00659823,-0.18925589,0.14320893,0.00008660,-0.00014249,0.00029395,
 -0.00000122,0.00017533,-0.00008063,-0.00010664,0.00014839,0.00020370,-
 0.00009103,-0.00026379,-0.00007223,-0.00001399,0.00012842,-0.00025702,
 0.00026182,0.00017469,-0.00008580,0.00018905,0.00078179,-0.00064099,-0
 .00009441,-0.00005972,-0.00011932,0.00012392,-0.00000752,-0.00015045,-
 0.00008496,-0.00008415,0.00001700,0.00009347,0.00022554,0.00014144,-0.
 00084064,-0.00786768,0.00767366,0.00512795,0.20380578,0.00307711,-0.00
 467553,-0.00382805,0.00003527,0.02303065,-0.02518512,-0.00037968,0.001
 49670,0.00089293,0.00650266,0.13874261,-0.21368680,0.00025755,0.000018
 15,0.00045581,-0.00016562,-0.00025392,0.00013094,0.00001396,-0.0001879
 0,-0.00021849,0.00002522,0.00023494,0.00020763,-0.00016392,-0.00020675
 ,0.00022047,0.00001738,0.00000049,0.00025436,0.00012472,0.00126919,-0.
 00121234,-0.00018098,-0.00021383,0.00039162,-0.00024101,-0.00128439,0.
 00018467,0.00006113,-0.00001034,-0.00008379,0.00014706,-0.00016315,0.0
 0051836,-0.00001964,0.00446934,-0.00545492,-0.00953071,-0.15511617,0.2
 3620230,0.00035058,0.00032442,-0.00086038,0.00845494,0.01601393,0.0070
 3481,-0.00115332,0.00102130,0.00283569,-0.14233128,-0.12444341,-0.0456
 0601,-0.00061714,0.00004463,-0.00030162,-0.00000259,-0.00015066,0.0001
 7976,0.00002872,-0.00002507,-0.00002470,0.00004072,0.00015715,-0.00002
 341,-0.00000158,0.00000567,0.00011393,0.00025537,-0.00005118,-0.000035
 03,0.00002357,0.00021966,-0.00015445,-0.00007045,-0.00014721,-0.000095
 24,-0.00018409,-0.00011343,-0.00003638,0.00035198,0.00010846,0.0002982
 7,0.00066838,0.00071852,0.00042647,-0.01919877,-0.03012940,-0.01033730
 ,-0.00050643,0.00049587,0.00029572,0.15296257,0.00010533,0.00055311,0.
 00120254,-0.00976538,-0.01379386,-0.00474917,0.00263708,-0.00019899,-0
 .00276361,-0.12128869,-0.23627639,-0.06438206,-0.00051428,-0.00004530,
 -0.00029653,-0.00052535,-0.00036507,-0.00015936,0.00021269,-0.00005044
 ,-0.00055599,0.00018265,0.00054593,0.00036661,-0.00021713,-0.00018065,
 0.00063993,0.00011598,0.00081504,-0.00022054,0.00021768,0.00010873,0.0
 0012178,0.00009677,-0.00004368,0.00010161,0.00011775,0.00051674,0.0001
 0662,-0.00018346,0.00015982,0.00002618,-0.00064222,-0.00054710,-0.0004
 9146,0.00667759,0.01106861,0.00420567,-0.01404512,-0.01978902,-0.00811
 222,0.13601719,0.25755966,-0.00126969,-0.00059357,0.00145582,-0.020148
 52,-0.02699281,-0.01110178,0.00415457,-0.00179450,-0.00502495,-0.04208
 186,-0.06172894,-0.08262043,-0.00032477,0.00004852,-0.00017547,-0.0005
 9276,-0.00012873,0.00020825,0.00018680,-0.00016313,-0.00067394,0.00029
 808,0.00055274,0.00028186,-0.00046615,-0.00017146,0.00040493,0.0006511
 7,0.00065709,-0.00057406,0.00024469,0.00018902,0.00043019,-0.00000074,
 -0.00007904,-0.00007164,0.00007185,-0.00019037,0.00023185,0.00015316,0
 .00044130,0.00013070,-0.00087265,-0.00163678,-0.00028096,-0.00428951,-
 0.00614484,-0.00293860,0.01697388,0.02314198,0.01030241,0.04669334,0.0
 7397782,0.08880679,-0.00632686,-0.00022047,0.00065336,-0.04761114,-0.0
 0664558,0.00913841,-0.04119837,0.01119926,-0.01226022,-0.03837676,0.01
 314087,-0.00942523,0.01970966,-0.03352090,0.03463298,-0.01230448,0.029
 57620,-0.00277090,-0.01051222,0.00219457,0.01611680,-0.01166661,-0.015
 43153,0.00023608,-0.01312414,0.00084357,-0.02903733,0.00032950,0.00203
 723,-0.00046894,0.00017825,0.00021983,-0.00211898,0.00284485,0.0007635
 4,-0.00109581,0.00053521,-0.00003630,0.00087404,-0.00297591,-0.0079522
 2,-0.00278681,0.00147674,-0.00059097,-0.00079204,-0.00187010,0.0036971
 4,0.00739746,0.00047349,-0.00083341,0.00016714,0.00154807,0.00072501,0
 .00048478,0.15773783,0.01337916,-0.00560092,0.00352387,0.03057686,-0.0
 3507529,0.00587906,-0.01883281,0.00095156,-0.00724934,0.01708702,-0.00
 671509,0.00048226,-0.04313167,0.00459989,-0.01987545,-0.01040951,-0.00
 989720,0.00758745,0.00068589,-0.00353880,-0.00512258,0.00343325,0.0040
 7916,-0.00090645,0.00806995,-0.00014727,0.00699176,0.00004473,-0.00046
 059,-0.00048959,-0.00007584,0.00064842,0.00009826,-0.00162287,-0.00163
 134,0.00196193,-0.00078601,0.00012896,0.00010484,-0.00243323,-0.002019
 07,-0.00117387,0.00034717,0.00082187,0.00033857,0.00088347,-0.00113511
 ,-0.00294932,-0.00079790,0.00088874,0.00089738,-0.00009126,-0.00054122
 ,0.00056744,0.00443186,0.05361827,-0.01459703,0.00465578,-0.00547591,-
 0.03268637,0.00899915,-0.03491707,-0.01211479,0.00010814,-0.00367441,0
 .01972557,-0.00904804,0.00113992,0.04544182,-0.02068274,0.00311284,-0.
 00537743,0.00629680,-0.00101053,-0.00236814,0.00006230,0.00367509,-0.0
 0078009,-0.00463683,-0.00279112,0.01036822,0.00553621,-0.00994337,0.00
 010476,0.00004655,0.00072622,-0.00012657,-0.00062850,-0.00023412,0.001
 58341,0.00176080,-0.00211170,0.00098487,0.00091791,0.00063703,-0.00067
 846,-0.00211338,-0.00035367,-0.00007406,0.00045516,-0.00058791,0.00224
 292,-0.00178352,-0.00234535,0.00086305,0.00002050,-0.00006058,-0.00037
 614,0.00046172,0.00070168,-0.01291289,0.01014958,0.05268718,-0.0001099
 3,-0.00012097,-0.00007126,0.00036456,0.00011538,0.00016941,0.00006567,
 -0.00001203,0.00006678,-0.00035274,-0.00027424,-0.00015515,0.00776165,
 -0.00342335,-0.01434291,-0.07215638,0.02612072,0.06291488,0.00635997,0
 .01996057,0.01950395,-0.00203906,-0.00194904,0.00740383,-0.00306894,-0
 .00632325,-0.00134696,-0.00009784,0.00028061,-0.00032038,0.00010308,0.
 00003225,0.00015883,0.00006404,0.00011043,0.00001490,0.00001385,0.0000
 0508,-0.00001595,-0.00002177,0.00004219,0.00000371,0.00005793,0.000070
 06,0.00008293,0.00010085,0.00016244,0.00013407,0.00002157,0.00005310,0
 .00002572,-0.00070299,0.00019637,0.00018338,0.00005293,0.00047907,-0.0
 0015089,0.06293383,-0.00037275,0.00012448,-0.00003226,0.00094550,-0.00
 066358,-0.00027703,-0.00031195,0.00022838,0.00000876,-0.00026756,-0.00
 014061,-0.00018581,0.00906381,-0.01183849,-0.01856787,0.03777720,-0.17
 813168,-0.15643309,-0.00599046,0.00884308,0.00600322,-0.00423499,0.001
 25713,-0.00234791,-0.00138436,-0.00251563,-0.00104078,0.00007946,0.000
 00233,0.00001531,-0.00004655,0.00001696,0.00001274,-0.00003333,0.00007
 793,-0.00008889,0.00002306,-0.00003333,0.00000384,-0.00009626,-0.00008
 262,-0.00002655,0.00001698,0.00001856,0.00003236,0.00003991,0.00009223
 ,0.00017106,-0.00007182,-0.00007874,0.00004592,0.00007685,0.00040534,0
 .00002552,-0.00095434,0.00008376,0.00015513,-0.03693709,0.18314496,-0.
 00036150,-0.00042812,-0.00004844,0.00100716,-0.00070662,0.00046383,-0.
 00021347,0.00023414,-0.00008400,-0.00026295,-0.00046399,-0.00042676,0.
 00324961,0.00575878,0.00170967,0.06619143,-0.16316038,-0.25050677,-0.0
 0011109,-0.01399710,-0.00731675,0.00501771,-0.00148078,0.00253294,-0.0
 0025771,-0.00067086,0.00009079,-0.00015462,0.00040163,-0.00038016,0.00
 017270,0.00007462,0.00017035,0.00010671,0.00022470,-0.00001382,0.00002
 414,0.00001210,0.00001462,-0.00008223,-0.00009209,-0.00003250,0.000060
 29,0.00003468,0.00004501,0.00007483,0.00023353,0.00018291,0.00009348,0
 .00011216,0.00001347,0.00004741,0.00043461,0.00043706,-0.00207620,0.00
 034993,-0.00069398,-0.07179029,0.17223466,0.25526631,-0.00016311,0.000
 02867,-0.00010620,0.00081717,0.00034411,0.00031953,0.00012694,0.000011
 03,0.00004316,-0.00015718,0.00001935,-0.00006072,-0.00245693,-0.006407
 41,0.00342495,-0.00576027,-0.01974585,-0.00910843,-0.23763150,-0.16582
 660,0.00290438,0.00575564,0.00696118,0.00273107,-0.00184309,0.00101179
 ,0.00432181,-0.00006442,-0.00002709,0.00003311,0.00005817,-0.00002810,
 0.00007714,-0.00002819,0.00002787,-0.00003851,0.00004659,0.00003040,-0
 .00001201,0.00001869,0.00005047,-0.00000893,0.00003916,-0.00000069,0.0
 0002799,-0.00001368,0.00000868,0.00002480,0.00003252,-0.00000241,-0.00
 002288,0.00000955,-0.00000687,0.00000849,0.00041014,-0.00082756,0.0005
 2913,-0.00154956,0.00253572,-0.00146980,0.24198260,0.00006622,-0.00007
 625,0.00006844,0.00052530,-0.00122000,0.00052768,-0.00047574,0.0002040
 9,-0.00014707,-0.00015065,0.00003644,-0.00010911,0.00165041,0.00812767
 ,-0.00313680,-0.00266261,0.00586212,0.00051693,-0.16426120,-0.20585885
 ,-0.01662842,-0.01811388,-0.00869577,0.00437903,0.00150353,-0.00287408
 ,-0.00633195,0.00004534,-0.00001996,0.00000356,0.00002392,-0.00000447,
 0.00001128,-0.00002487,-0.00000255,0.00001331,-0.00001132,-0.00001445,
 0.00002348,-0.00008672,-0.00012829,-0.00001477,0.00002260,0.00002687,0
 .00002014,-0.00003528,0.00003190,0.00005904,-0.00000998,-0.00001136,0.
 00001510,0.00002608,-0.00000156,-0.00000625,-0.00224602,0.00068703,-0.
 00071706,0.00176403,-0.00183542,0.00265371,0.18252700,0.20611481,-0.00
 030336,0.00009365,-0.00016280,-0.00059458,0.00202441,-0.00065728,0.000
 68896,-0.00024228,0.00012670,0.00002235,0.00000359,0.00003037,0.001697
 86,-0.00936249,0.00030293,0.02340327,0.01799920,0.00504752,-0.00201413
 ,-0.01569762,-0.06233008,-0.01812786,-0.00970682,0.00728918,-0.0016916
 6,-0.00454632,-0.00106329,-0.00008486,0.00006125,0.00001793,0.00004571
 ,-0.00004746,0.00005377,0.00000544,0.00005140,-0.00005800,0.00000906,-
 0.00000805,-0.00001212,0.00006529,0.00018098,0.00004824,0.00001631,-0.
 00001195,0.00003078,-0.00000187,-0.00001887,-0.00000943,0.00001992,0.0
 0000018,0.00000169,-0.00004513,0.00002707,0.00002662,0.00282001,-0.000
 42831,0.00095223,-0.00336170,0.00163659,-0.00181487,-0.00255237,0.0183
 1674,0.05160951,-0.00013911,0.00010686,-0.00002838,0.00075944,-0.00041
 957,-0.00031282,-0.00014211,0.00006330,-0.00001160,0.00010941,-0.00005
 597,-0.00001472,-0.00242933,-0.00266794,0.00691963,-0.00231354,-0.0048
 7692,-0.00084862,0.00768350,-0.00344440,-0.00869419,-0.20947852,0.0261
 4604,0.16259548,-0.00470826,0.01238526,0.02064284,0.00004890,-0.000072
 75,0.00002820,-0.00006089,-0.00002236,0.00003781,-0.00002565,0.0000342
 4,-0.00002593,0.00003333,0.00002131,-0.00000373,-0.00001266,-0.0000202
 5,-0.00000404,0.00001082,-0.00000682,0.00000881,0.00001767,0.00000409,
 -0.00004982,0.00004466,0.00000550,-0.00003670,0.00003385,-0.00002635,0
 .00000221,0.00041560,-0.00044679,0.00087198,0.00077443,0.00006668,0.00
 002983,-0.00026429,0.00110271,0.00042736,0.21116934,0.00029951,-0.0001
 7624,0.00008176,0.00057404,-0.00038474,0.00191104,0.00001051,0.0000129
 2,0.00000727,-0.00064517,0.00013972,-0.00018027,-0.00237332,-0.0006310
 9,-0.00870705,0.00115136,-0.00206192,-0.00465022,0.01914170,0.00511395
 ,-0.01229493,0.03089937,-0.07195480,-0.04739252,-0.02054095,0.00800962
 ,0.01782166,-0.00005218,0.00005925,-0.00005243,0.00008989,0.00001988,0
 .00004683,-0.00000014,-0.00005257,0.00005927,-0.00002117,0.00000308,0.
 00000018,0.00000580,-0.00000261,-0.00001461,0.00004502,0.00002576,0.00
 001971,-0.00003880,0.00006862,0.00016617,-0.00001289,-0.00001010,-0.00
 000510,-0.00001976,0.00003559,-0.00001127,-0.00252565,0.00106425,-0.00
 032885,0.00049239,0.00060723,-0.00108783,-0.00049360,-0.00012834,0.000
 61190,-0.02924017,0.06193555,-0.00008992,0.00007625,-0.00008619,-0.000
 71872,0.00051177,-0.00143510,0.00015624,-0.00012418,0.00003836,0.00054
 791,-0.00017439,0.00020816,-0.00073592,-0.00178087,0.00903412,-0.00215
 933,-0.00588911,-0.00140491,0.01496147,0.00158131,-0.00844814,0.160414
 91,-0.04779291,-0.22438693,0.00592830,-0.00098852,0.00184836,-0.000021
 71,0.00001215,-0.00000046,-0.00005198,0.00000479,-0.00002550,0.0000278
 9,0.00001406,-0.00001045,0.00000985,0.00001086,-0.00001364,0.00004280,
 0.00006156,0.00002423,-0.00003286,-0.00000669,-0.00000190,0.00007807,-
 0.00004474,-0.00014775,0.00000957,0.00002157,-0.00001434,-0.00001969,0
 .00002304,0.00002715,0.00251008,-0.00091064,0.00056948,0.00107536,0.00
 022190,-0.00023708,-0.00103463,0.00006285,-0.00015880,-0.17893005,0.05
 243897,0.22660160,-0.00003871,0.00007876,0.00009400,0.00017912,-0.0001
 9720,-0.00021741,-0.00028191,0.00015699,0.00023389,0.00010459,-0.00007
 490,0.00004841,0.00786375,0.01247281,0.00079676,-0.00230416,0.00216614
 ,0.00603255,-0.00241749,-0.00690653,0.00293783,0.00367504,-0.02206601,
 -0.01814143,-0.09057407,-0.09242073,-0.03524773,0.00008035,-0.00015359
 ,-0.00001496,-0.00009022,0.00026826,-0.00027385,0.00004901,-0.00003741
 ,-0.00008721,0.00001485,-0.00002817,-0.00004980,0.00007196,-0.00012754
 ,-0.00012945,-0.00073058,-0.00010142,-0.00005703,-0.00001275,-0.000013
 76,-0.00005341,0.00001074,0.00001558,-0.00000949,0.00004034,-0.0000872
 4,-0.00005975,0.00025434,0.00003702,-0.00047284,0.00142484,0.00007630,
 0.00070459,0.00063507,-0.00117888,-0.00044400,-0.00152658,0.00325423,-
 0.00196764,0.08357247,0.00036824,-0.00013707,-0.00043802,-0.00115854,0
 .00044460,-0.00072592,0.00024263,-0.00053537,-0.00046455,0.00025576,-0
 .00006643,0.00024532,-0.00462769,-0.00070442,0.00459633,0.00052791,-0.
 00035850,-0.00149007,-0.00420772,0.00302239,-0.00149245,-0.00104204,-0
 .00618231,-0.01053005,-0.09754575,-0.27271872,-0.14206038,-0.00015325,
 0.00020485,0.00006910,0.00015532,-0.00036311,0.00045193,-0.00008789,0.
 00001305,0.00024815,-0.00007583,0.00003978,0.00011013,-0.00005043,0.00
 024560,0.00023461,0.00007562,0.00050347,0.00043544,0.00008288,-0.00005
 321,-0.00009900,-0.00002589,0.00001662,0.00000881,-0.00005836,0.000064
 70,0.00004027,0.00212831,-0.00081001,0.00031319,-0.00084472,0.00041773
 ,-0.00067147,-0.00019011,-0.00021959,-0.00093679,0.00136427,-0.0016930
 3,0.00267096,0.10486730,0.27886898,0.00034332,-0.00004045,0.00014268,-
 0.00090959,-0.00030766,-0.00046075,0.00023893,-0.00017650,-0.00010548,
 0.00029515,0.00002271,0.00017262,-0.01161023,-0.02011675,-0.00952637,0
 .00123433,-0.00158360,-0.00283142,0.00486048,-0.00232431,0.00114535,0.
 00701187,0.00905574,0.01039302,-0.04586252,-0.13478466,-0.13750412,0.0
 0005986,0.00000019,0.00000517,-0.00008811,0.00004105,-0.00002240,0.000
 03923,-0.00008130,0.00006524,0.00007643,0.00002891,-0.00009769,-0.0000
 2018,0.00016789,0.00005914,0.00000995,0.00002963,0.00036502,0.00007942
 ,-0.00003680,-0.00007100,-0.00002369,-0.00000118,-0.00003222,-0.000009
 94,0.00003573,0.00001651,0.00071419,0.00017322,-0.00000195,-0.00018227
 ,-0.00156681,0.00062815,-0.00003107,0.00042014,0.00072920,-0.00260354,
 0.00156031,-0.00198025,0.04637796,0.14948447,0.13891156\\0.00000103,0.
 00000245,0.00000098,0.00000267,-0.00000637,0.00001135,0.00000528,0.000
 00003,-0.00000426,-0.00000015,-0.00000251,0.00000311,-0.00000563,-0.00
 000191,0.00000610,-0.00000156,-0.00000562,-0.00000365,0.00000248,-0.00
 000342,-0.00000541,0.00000366,0.00000530,0.00000161,-0.00000320,-0.000
 00059,0.00000600,0.00000137,-0.00000058,-0.00000056,-0.00000092,-0.000
 00025,-0.00000090,-0.00000049,0.00000073,0.00000149,-0.00000559,0.0000
 0148,0.00000113,0.00000257,0.00000221,-0.00000411,0.00000257,-0.000002
 90,0.00000345,-0.00000042,-0.00000177,0.00000005,0.00000143,0.00000088
 ,0.00000069,-0.00000118,0.00000084,-0.00000119,-0.00000107,0.00000886,
 -0.00001320,-0.00000115,0.00000111,-0.00000063,-0.00000041,0.00000073,
 -0.00000071,-0.00000017,0.00000083,-0.00000062,-0.00000110,0.00000048,
 -0.00000073\\\@


 NEVER LISTEN TO CRITICISM
 OR YOU'LL BE DOIN' EVERYBODY ELSE'S THING BUT BUT YOUR OWN.

                                               -- ANDY CAPP
 Job cpu time:       0 days  0 hours  0 minutes 40.5 seconds.
 File lengths (MBytes):  RWF=     44 Int=      0 D2E=      0 Chk=      3 Scr=      1
 Normal termination of Gaussian 09 at Thu May  7 10:54:30 2020.
