 Entering Gaussian System, Link 0=/usr/local/gaussian/g09/g09
 Input=TS_cyclopentadiene_isobutane_insertion_5-(tert-butyl)cyclopenta-1,3-diene--cyclopentadiene_carbene+isobutane_1-19_1-4_ll2d_optts_g09.com
 Output=TS_cyclopentadiene_isobutane_insertion_5-(tert-butyl)cyclopenta-1,3-diene--cyclopentadiene_carbene+isobutane_1-19_1-4_ll2d_optts_g09.log
 Initial command:
 /usr/local/gaussian/g09/l1.exe "/scratch/3499466.1.multiway.q/tmpjyoog8nu/Gau-49758.inp" -scrdir="/scratch/3499466.1.multiway.q/tmpjyoog8nu/"
 Entering Link 1 = /usr/local/gaussian/g09/l1.exe PID=     49759.
  
 Copyright (c) 1988,1990,1992,1993,1995,1998,2003,2009,2013,
            Gaussian, Inc.  All Rights Reserved.
  
 This is part of the Gaussian(R) 09 program.  It is based on
 the Gaussian(R) 03 system (copyright 2003, Gaussian, Inc.),
 the Gaussian(R) 98 system (copyright 1998, Gaussian, Inc.),
 the Gaussian(R) 94 system (copyright 1995, Gaussian, Inc.),
 the Gaussian 92(TM) system (copyright 1992, Gaussian, Inc.),
 the Gaussian 90(TM) system (copyright 1990, Gaussian, Inc.),
 the Gaussian 88(TM) system (copyright 1988, Gaussian, Inc.),
 the Gaussian 86(TM) system (copyright 1986, Carnegie Mellon
 University), and the Gaussian 82(TM) system (copyright 1983,
 Carnegie Mellon University). Gaussian is a federally registered
 trademark of Gaussian, Inc.
  
 This software contains proprietary and confidential information,
 including trade secrets, belonging to Gaussian, Inc.
  
 This software is provided under written license and may be
 used, copied, transmitted, or stored only in accord with that
 written license.
  
 The following legend is applicable only to US Government
 contracts under FAR:
  
                    RESTRICTED RIGHTS LEGEND
  
 Use, reproduction and disclosure by the US Government is
 subject to restrictions as set forth in subparagraphs (a)
 and (c) of the Commercial Computer Software - Restricted
 Rights clause in FAR 52.227-19.
  
 Gaussian, Inc.
 340 Quinnipiac St., Bldg. 40, Wallingford CT 06492
  
  
 ---------------------------------------------------------------
 Warning -- This program may not be used in any manner that
 competes with the business of Gaussian, Inc. or will provide
 assistance to any competitor of Gaussian, Inc.  The licensee
 of this program is prohibited from giving any competitor of
 Gaussian, Inc. access to this program.  By using this program,
 the user acknowledges that Gaussian, Inc. is engaged in the
 business of creating and licensing software in the field of
 computational chemistry and represents and warrants to the
 licensee that it is not a competitor of Gaussian, Inc. and that
 it will not use this program in any manner prohibited above.
 ---------------------------------------------------------------
  

 Cite this work as:
 Gaussian 09, Revision D.01,
 M. J. Frisch, G. W. Trucks, H. B. Schlegel, G. E. Scuseria, 
 M. A. Robb, J. R. Cheeseman, G. Scalmani, V. Barone, B. Mennucci, 
 G. A. Petersson, H. Nakatsuji, M. Caricato, X. Li, H. P. Hratchian, 
 A. F. Izmaylov, J. Bloino, G. Zheng, J. L. Sonnenberg, M. Hada, 
 M. Ehara, K. Toyota, R. Fukuda, J. Hasegawa, M. Ishida, T. Nakajima, 
 Y. Honda, O. Kitao, H. Nakai, T. Vreven, J. A. Montgomery, Jr., 
 J. E. Peralta, F. Ogliaro, M. Bearpark, J. J. Heyd, E. Brothers, 
 K. N. Kudin, V. N. Staroverov, T. Keith, R. Kobayashi, J. Normand, 
 K. Raghavachari, A. Rendell, J. C. Burant, S. S. Iyengar, J. Tomasi, 
 M. Cossi, N. Rega, J. M. Millam, M. Klene, J. E. Knox, J. B. Cross, 
 V. Bakken, C. Adamo, J. Jaramillo, R. Gomperts, R. E. Stratmann, 
 O. Yazyev, A. J. Austin, R. Cammi, C. Pomelli, J. W. Ochterski, 
 R. L. Martin, K. Morokuma, V. G. Zakrzewski, G. A. Voth, 
 P. Salvador, J. J. Dannenberg, S. Dapprich, A. D. Daniels, 
 O. Farkas, J. B. Foresman, J. V. Ortiz, J. Cioslowski, 
 and D. J. Fox, Gaussian, Inc., Wallingford CT, 2013.
 
 ******************************************
 Gaussian 09:  EM64L-G09RevD.01 24-Apr-2013
                 7-May-2020 
 ******************************************
 %mem=4000MB
 %nprocshared=8
 Will use up to    8 processors via shared memory.
 ----------------------------------------------------------------------
 # HF/3-21G* Freq Opt=(TS, CalcFC, NoEigenTest, MaxCycles=100, MaxStep=
 10, NoTrustUpdate) Geom=ModRedun NoSymm
 ----------------------------------------------------------------------
 1/5=1,6=100,8=10,9=1,10=4,11=1,18=120,38=1/1,3;
 2/9=110,12=2,15=1,17=6,18=5,40=1/2;
 3/5=5,7=1,11=9,16=1,25=1,30=1,71=2,140=1/1,2,3;
 4//1;
 5/5=2,38=5/2;
 8/6=4,10=90,11=11/1;
 11/6=1,8=1,9=11,15=111,16=1,31=1/1,2,10;
 10/6=1,13=1,31=1/2;
 6/7=2,8=2,9=2,10=2,28=1/1;
 7/10=1,18=20,25=1,30=1/1,2,3,16;
 1/5=1,6=100,8=10,9=1,10=4,11=1,18=20/3(2);
 2/9=110,15=1/2;
 99//99;
 2/9=110,15=1/2;
 3/5=5,7=1,11=9,16=1,25=1,30=1,71=1/1,2,3;
 4/5=5,16=3,69=1/1;
 5/5=2,38=5/2;
 7/30=1/1,2,3,16;
 1/5=1,6=100,8=10,9=1,11=1,18=20/3(-5);
 2/9=110,15=1/2;
 6/7=2,8=2,9=2,10=2,19=2,28=1/1;
 99/9=1/99;
 ----------------------------------------------------------------------
 TS_cyclopentadiene_isobutane_insertion_5-(tert-butyl)cyclopenta-1,3-di
 ene--cyclopentadiene_carbene+isobutane_1-19_1-4_ll2d_optts
 ----------------------------------------------------------------------
 Symbolic Z-matrix:
 Charge =  0 Multiplicity = 1
 C                    -0.75753   1.11046  -0.85946 
 C                    -0.91601   0.05143   0.19944 
 C                    -1.63378  -1.17096  -0.33889 
 C                    -1.52647   0.52892   1.49289 
 C                     0.87841  -0.71073   0.6511 
 C                     1.4608    0.61716   0.7846 
 C                     2.34278   0.8117   -0.21454 
 C                     2.4352   -0.41091  -0.97618 
 C                     1.55879  -1.31306  -0.48028 
 H                    -0.41921   2.05647  -0.4467 
 H                    -0.04523   0.79286  -1.61843 
 H                    -1.7199    1.2735   -1.3473 
 H                    -1.64286  -1.97863   0.38871 
 H                    -2.66985  -0.91704  -0.57221 
 H                    -1.15937  -1.52734  -1.24891 
 H                    -2.57376   0.77668   1.30908 
 H                    -1.49665  -0.24433   2.25687 
 H                    -1.0454    1.42181   1.88197 
 H                     0.5964   -1.30858   1.50318 
 H                     0.93607   1.30809   1.40298 
 H                     2.88825   1.71044  -0.43945 
 H                     3.09904  -0.5539   -1.81123 
 H                     1.41046  -2.32399  -0.81407 
 
 Add virtual bond connecting atoms C5         and C2         Dist= 3.78D+00.
 Add virtual bond connecting atoms H20        and H18        Dist= 3.86D+00.
 The following ModRedundant input section has been read:
 B       2      20 B                                                           
 B       2       5 B                                                           
 B       6      20 B                                                           
 

 GradGradGradGradGradGradGradGradGradGradGradGradGradGradGradGradGradGrad
 Berny optimization.
 Initialization pass.
                           ----------------------------
                           !    Initial Parameters    !
                           ! (Angstroms and Degrees)  !
 --------------------------                            --------------------------
 ! Name  Definition              Value          Derivative Info.                !
 --------------------------------------------------------------------------------
 ! R1    R(1,2)                  1.506          calculate D2E/DX2 analytically  !
 ! R2    R(1,10)                 1.0862         calculate D2E/DX2 analytically  !
 ! R3    R(1,11)                 1.0882         calculate D2E/DX2 analytically  !
 ! R4    R(1,12)                 1.0912         calculate D2E/DX2 analytically  !
 ! R5    R(2,3)                  1.5163         calculate D2E/DX2 analytically  !
 ! R6    R(2,4)                  1.5079         calculate D2E/DX2 analytically  !
 ! R7    R(2,5)                  2.0012         calculate D2E/DX2 analytically  !
 ! R8    R(2,20)                 2.5412         calculate D2E/DX2 analytically  !
 ! R9    R(3,13)                 1.0871         calculate D2E/DX2 analytically  !
 ! R10   R(3,14)                 1.0919         calculate D2E/DX2 analytically  !
 ! R11   R(3,15)                 1.0864         calculate D2E/DX2 analytically  !
 ! R12   R(4,16)                 1.0918         calculate D2E/DX2 analytically  !
 ! R13   R(4,17)                 1.0874         calculate D2E/DX2 analytically  !
 ! R14   R(4,18)                 1.0863         calculate D2E/DX2 analytically  !
 ! R15   R(5,6)                  1.4561         calculate D2E/DX2 analytically  !
 ! R16   R(5,9)                  1.4511         calculate D2E/DX2 analytically  !
 ! R17   R(5,19)                 1.0784         calculate D2E/DX2 analytically  !
 ! R18   R(6,7)                  1.3469         calculate D2E/DX2 analytically  !
 ! R19   R(6,20)                 1.0654         calculate D2E/DX2 analytically  !
 ! R20   R(7,8)                  1.4434         calculate D2E/DX2 analytically  !
 ! R21   R(7,21)                 1.0751         calculate D2E/DX2 analytically  !
 ! R22   R(8,9)                  1.352          calculate D2E/DX2 analytically  !
 ! R23   R(8,22)                 1.0763         calculate D2E/DX2 analytically  !
 ! R24   R(9,23)                 1.0749         calculate D2E/DX2 analytically  !
 ! R25   R(18,20)                2.0417         calculate D2E/DX2 analytically  !
 ! A1    A(2,1,10)             112.2133         calculate D2E/DX2 analytically  !
 ! A2    A(2,1,11)             110.7343         calculate D2E/DX2 analytically  !
 ! A3    A(2,1,12)             109.0626         calculate D2E/DX2 analytically  !
 ! A4    A(10,1,11)            108.3818         calculate D2E/DX2 analytically  !
 ! A5    A(10,1,12)            108.3288         calculate D2E/DX2 analytically  !
 ! A6    A(11,1,12)            108.003          calculate D2E/DX2 analytically  !
 ! A7    A(1,2,3)              111.5366         calculate D2E/DX2 analytically  !
 ! A8    A(1,2,4)              115.0284         calculate D2E/DX2 analytically  !
 ! A9    A(1,2,5)              109.3994         calculate D2E/DX2 analytically  !
 ! A10   A(1,2,20)              84.7535         calculate D2E/DX2 analytically  !
 ! A11   A(3,2,4)              111.6033         calculate D2E/DX2 analytically  !
 ! A12   A(3,2,5)              101.3939         calculate D2E/DX2 analytically  !
 ! A13   A(3,2,20)             155.7527         calculate D2E/DX2 analytically  !
 ! A14   A(4,2,5)              106.8592         calculate D2E/DX2 analytically  !
 ! A15   A(4,2,20)              74.4672         calculate D2E/DX2 analytically  !
 ! A16   A(5,2,20)              55.1062         calculate D2E/DX2 analytically  !
 ! A17   A(2,3,13)             111.4243         calculate D2E/DX2 analytically  !
 ! A18   A(2,3,14)             109.7269         calculate D2E/DX2 analytically  !
 ! A19   A(2,3,15)             110.8017         calculate D2E/DX2 analytically  !
 ! A20   A(13,3,14)            107.93           calculate D2E/DX2 analytically  !
 ! A21   A(13,3,15)            108.6974         calculate D2E/DX2 analytically  !
 ! A22   A(14,3,15)            108.1578         calculate D2E/DX2 analytically  !
 ! A23   A(2,4,16)             108.409          calculate D2E/DX2 analytically  !
 ! A24   A(2,4,17)             111.4926         calculate D2E/DX2 analytically  !
 ! A25   A(2,4,18)             112.8446         calculate D2E/DX2 analytically  !
 ! A26   A(16,4,17)            107.8161         calculate D2E/DX2 analytically  !
 ! A27   A(16,4,18)            107.3724         calculate D2E/DX2 analytically  !
 ! A28   A(17,4,18)            108.7043         calculate D2E/DX2 analytically  !
 ! A29   A(2,5,6)               91.8347         calculate D2E/DX2 analytically  !
 ! A30   A(2,5,9)              113.7369         calculate D2E/DX2 analytically  !
 ! A31   A(2,5,19)              98.9151         calculate D2E/DX2 analytically  !
 ! A32   A(6,5,9)              105.2174         calculate D2E/DX2 analytically  !
 ! A33   A(6,5,19)             122.5274         calculate D2E/DX2 analytically  !
 ! A34   A(9,5,19)             120.5657         calculate D2E/DX2 analytically  !
 ! A35   A(5,6,7)              109.003          calculate D2E/DX2 analytically  !
 ! A36   A(5,6,20)             116.5913         calculate D2E/DX2 analytically  !
 ! A37   A(7,6,20)             131.255          calculate D2E/DX2 analytically  !
 ! A38   A(6,7,8)              108.1207         calculate D2E/DX2 analytically  !
 ! A39   A(6,7,21)             127.4578         calculate D2E/DX2 analytically  !
 ! A40   A(8,7,21)             124.4173         calculate D2E/DX2 analytically  !
 ! A41   A(7,8,9)              109.2783         calculate D2E/DX2 analytically  !
 ! A42   A(7,8,22)             124.1532         calculate D2E/DX2 analytically  !
 ! A43   A(9,8,22)             126.5656         calculate D2E/DX2 analytically  !
 ! A44   A(5,9,8)              108.2363         calculate D2E/DX2 analytically  !
 ! A45   A(5,9,23)             124.5965         calculate D2E/DX2 analytically  !
 ! A46   A(8,9,23)             127.0933         calculate D2E/DX2 analytically  !
 ! A47   A(4,18,20)            107.4563         calculate D2E/DX2 analytically  !
 ! A48   A(2,20,6)              76.3127         calculate D2E/DX2 analytically  !
 ! A49   A(2,20,18)             55.3437         calculate D2E/DX2 analytically  !
 ! A50   A(6,20,18)            130.5618         calculate D2E/DX2 analytically  !
 ! D1    D(10,1,2,3)           169.1319         calculate D2E/DX2 analytically  !
 ! D2    D(10,1,2,4)            40.7357         calculate D2E/DX2 analytically  !
 ! D3    D(10,1,2,5)           -79.5136         calculate D2E/DX2 analytically  !
 ! D4    D(10,1,2,20)          -29.4082         calculate D2E/DX2 analytically  !
 ! D5    D(11,1,2,3)           -69.616          calculate D2E/DX2 analytically  !
 ! D6    D(11,1,2,4)           161.9878         calculate D2E/DX2 analytically  !
 ! D7    D(11,1,2,5)            41.7385         calculate D2E/DX2 analytically  !
 ! D8    D(11,1,2,20)           91.8439         calculate D2E/DX2 analytically  !
 ! D9    D(12,1,2,3)            49.099          calculate D2E/DX2 analytically  !
 ! D10   D(12,1,2,4)           -79.2973         calculate D2E/DX2 analytically  !
 ! D11   D(12,1,2,5)           160.4535         calculate D2E/DX2 analytically  !
 ! D12   D(12,1,2,20)         -149.4411         calculate D2E/DX2 analytically  !
 ! D13   D(1,2,3,13)           173.2212         calculate D2E/DX2 analytically  !
 ! D14   D(1,2,3,14)           -67.305          calculate D2E/DX2 analytically  !
 ! D15   D(1,2,3,15)            52.0601         calculate D2E/DX2 analytically  !
 ! D16   D(4,2,3,13)           -56.5786         calculate D2E/DX2 analytically  !
 ! D17   D(4,2,3,14)            62.8953         calculate D2E/DX2 analytically  !
 ! D18   D(4,2,3,15)          -177.7396         calculate D2E/DX2 analytically  !
 ! D19   D(5,2,3,13)            56.8751         calculate D2E/DX2 analytically  !
 ! D20   D(5,2,3,14)           176.3489         calculate D2E/DX2 analytically  !
 ! D21   D(5,2,3,15)           -64.2859         calculate D2E/DX2 analytically  !
 ! D22   D(20,2,3,13)           43.6659         calculate D2E/DX2 analytically  !
 ! D23   D(20,2,3,14)          163.1397         calculate D2E/DX2 analytically  !
 ! D24   D(20,2,3,15)          -77.4952         calculate D2E/DX2 analytically  !
 ! D25   D(1,2,4,16)            68.8201         calculate D2E/DX2 analytically  !
 ! D26   D(1,2,4,17)          -172.6499         calculate D2E/DX2 analytically  !
 ! D27   D(1,2,4,18)           -49.9752         calculate D2E/DX2 analytically  !
 ! D28   D(3,2,4,16)           -59.5428         calculate D2E/DX2 analytically  !
 ! D29   D(3,2,4,17)            58.9872         calculate D2E/DX2 analytically  !
 ! D30   D(3,2,4,18)          -178.3382         calculate D2E/DX2 analytically  !
 ! D31   D(5,2,4,16)          -169.5431         calculate D2E/DX2 analytically  !
 ! D32   D(5,2,4,17)           -51.0132         calculate D2E/DX2 analytically  !
 ! D33   D(5,2,4,18)            71.6615         calculate D2E/DX2 analytically  !
 ! D34   D(20,2,4,16)          145.257          calculate D2E/DX2 analytically  !
 ! D35   D(20,2,4,17)          -96.213          calculate D2E/DX2 analytically  !
 ! D36   D(20,2,4,18)           26.4616         calculate D2E/DX2 analytically  !
 ! D37   D(1,2,5,6)             48.1033         calculate D2E/DX2 analytically  !
 ! D38   D(1,2,5,9)            -59.4127         calculate D2E/DX2 analytically  !
 ! D39   D(1,2,5,19)           171.4416         calculate D2E/DX2 analytically  !
 ! D40   D(3,2,5,6)            166.0066         calculate D2E/DX2 analytically  !
 ! D41   D(3,2,5,9)             58.4906         calculate D2E/DX2 analytically  !
 ! D42   D(3,2,5,19)           -70.655          calculate D2E/DX2 analytically  !
 ! D43   D(4,2,5,6)            -77.0238         calculate D2E/DX2 analytically  !
 ! D44   D(4,2,5,9)            175.4603         calculate D2E/DX2 analytically  !
 ! D45   D(4,2,5,19)            46.3146         calculate D2E/DX2 analytically  !
 ! D46   D(20,2,5,6)           -20.5631         calculate D2E/DX2 analytically  !
 ! D47   D(20,2,5,9)          -128.0791         calculate D2E/DX2 analytically  !
 ! D48   D(20,2,5,19)          102.7752         calculate D2E/DX2 analytically  !
 ! D49   D(1,2,20,6)           -88.4883         calculate D2E/DX2 analytically  !
 ! D50   D(1,2,20,18)          102.4022         calculate D2E/DX2 analytically  !
 ! D51   D(3,2,20,6)            45.4408         calculate D2E/DX2 analytically  !
 ! D52   D(3,2,20,18)         -123.6687         calculate D2E/DX2 analytically  !
 ! D53   D(4,2,20,6)           153.706          calculate D2E/DX2 analytically  !
 ! D54   D(4,2,20,18)          -15.4034         calculate D2E/DX2 analytically  !
 ! D55   D(5,2,20,6)            29.5918         calculate D2E/DX2 analytically  !
 ! D56   D(5,2,20,18)         -139.5177         calculate D2E/DX2 analytically  !
 ! D57   D(2,4,18,20)          -34.0669         calculate D2E/DX2 analytically  !
 ! D58   D(16,4,18,20)        -153.4636         calculate D2E/DX2 analytically  !
 ! D59   D(17,4,18,20)          90.1525         calculate D2E/DX2 analytically  !
 ! D60   D(2,5,6,7)           -112.0199         calculate D2E/DX2 analytically  !
 ! D61   D(2,5,6,20)            50.2135         calculate D2E/DX2 analytically  !
 ! D62   D(9,5,6,7)              3.2            calculate D2E/DX2 analytically  !
 ! D63   D(9,5,6,20)           165.4333         calculate D2E/DX2 analytically  !
 ! D64   D(19,5,6,7)           146.1901         calculate D2E/DX2 analytically  !
 ! D65   D(19,5,6,20)          -51.5766         calculate D2E/DX2 analytically  !
 ! D66   D(2,5,9,8)             97.825          calculate D2E/DX2 analytically  !
 ! D67   D(2,5,9,23)           -85.113          calculate D2E/DX2 analytically  !
 ! D68   D(6,5,9,8)             -1.1418         calculate D2E/DX2 analytically  !
 ! D69   D(6,5,9,23)           175.9202         calculate D2E/DX2 analytically  !
 ! D70   D(19,5,9,8)          -145.0252         calculate D2E/DX2 analytically  !
 ! D71   D(19,5,9,23)           32.0368         calculate D2E/DX2 analytically  !
 ! D72   D(5,6,7,8)             -3.9381         calculate D2E/DX2 analytically  !
 ! D73   D(5,6,7,21)           175.3297         calculate D2E/DX2 analytically  !
 ! D74   D(20,6,7,8)          -162.6563         calculate D2E/DX2 analytically  !
 ! D75   D(20,6,7,21)           16.6115         calculate D2E/DX2 analytically  !
 ! D76   D(5,6,20,2)           -38.4993         calculate D2E/DX2 analytically  !
 ! D77   D(5,6,20,18)          -26.6951         calculate D2E/DX2 analytically  !
 ! D78   D(7,6,20,2)           118.9334         calculate D2E/DX2 analytically  !
 ! D79   D(7,6,20,18)          130.7376         calculate D2E/DX2 analytically  !
 ! D80   D(6,7,8,9)              3.26           calculate D2E/DX2 analytically  !
 ! D81   D(6,7,8,22)          -177.3296         calculate D2E/DX2 analytically  !
 ! D82   D(21,7,8,9)          -176.0354         calculate D2E/DX2 analytically  !
 ! D83   D(21,7,8,22)            3.3749         calculate D2E/DX2 analytically  !
 ! D84   D(7,8,9,5)             -1.1771         calculate D2E/DX2 analytically  !
 ! D85   D(7,8,9,23)          -178.145          calculate D2E/DX2 analytically  !
 ! D86   D(22,8,9,5)           179.4305         calculate D2E/DX2 analytically  !
 ! D87   D(22,8,9,23)            2.4625         calculate D2E/DX2 analytically  !
 ! D88   D(4,18,20,2)           21.862          calculate D2E/DX2 analytically  !
 ! D89   D(4,18,20,6)            7.8793         calculate D2E/DX2 analytically  !
 --------------------------------------------------------------------------------
 Trust Radius=1.00D-01 FncErr=1.00D-07 GrdErr=1.00D-07
 Number of steps in this run=    100 maximum allowed number of steps=    138.
 Search for a saddle point of order  1.
 GradGradGradGradGradGradGradGradGradGradGradGradGradGradGradGradGradGrad

                          Input orientation:                          
 ---------------------------------------------------------------------
 Center     Atomic      Atomic             Coordinates (Angstroms)
 Number     Number       Type             X           Y           Z
 ---------------------------------------------------------------------
      1          6           0       -0.757525    1.110464   -0.859459
      2          6           0       -0.916011    0.051432    0.199440
      3          6           0       -1.633782   -1.170956   -0.338888
      4          6           0       -1.526473    0.528923    1.492886
      5          6           0        0.878412   -0.710729    0.651100
      6          6           0        1.460805    0.617157    0.784603
      7          6           0        2.342784    0.811700   -0.214544
      8          6           0        2.435198   -0.410914   -0.976176
      9          6           0        1.558790   -1.313059   -0.480276
     10          1           0       -0.419205    2.056474   -0.446697
     11          1           0       -0.045227    0.792861   -1.618434
     12          1           0       -1.719897    1.273497   -1.347298
     13          1           0       -1.642861   -1.978631    0.388713
     14          1           0       -2.669846   -0.917035   -0.572211
     15          1           0       -1.159371   -1.527339   -1.248914
     16          1           0       -2.573759    0.776685    1.309075
     17          1           0       -1.496648   -0.244327    2.256874
     18          1           0       -1.045397    1.421810    1.881974
     19          1           0        0.596396   -1.308578    1.503183
     20          1           0        0.936067    1.308093    1.402979
     21          1           0        2.888251    1.710438   -0.439450
     22          1           0        3.099039   -0.553905   -1.811229
     23          1           0        1.410460   -2.323993   -0.814072
 ---------------------------------------------------------------------
                    Distance matrix (angstroms):
                    1          2          3          4          5
     1  C    0.000000
     2  C    1.505966   0.000000
     3  C    2.498739   1.516319   0.000000
     4  C    2.542242   1.507867   2.501299   0.000000
     5  C    2.876599   2.001210   2.739162   2.833517   0.000000
     6  C    2.804867   2.512312   3.746471   3.071364   1.456120
     7  C    3.180737   3.371814   4.445162   4.238683   2.282873
     8  C    3.538601   3.581402   4.188126   4.761765   2.271893
     9  C    3.373806   2.906629   3.198860   4.099405   1.451112
    10  H    1.086171   2.164371   3.450090   2.705815   3.247519
    11  H    1.088248   2.147707   2.831487   3.456018   2.874834
    12  H    1.091204   2.128867   2.645687   2.942524   3.831704
    13  H    3.447356   2.164553   1.087118   2.742366   2.834297
    14  H    2.801827   2.146931   1.091944   2.768162   3.758881
    15  H    2.696509   2.156264   1.086381   3.446802   2.903355
    16  H    2.848272   2.122595   2.718941   1.091778   3.816126
    17  H    3.477541   2.158158   2.759606   1.087421   2.904644
    18  H    2.774033   2.173844   3.464225   1.086311   3.124710
    19  H    3.642381   2.415936   2.895835   2.807685   1.078426
    20  H    2.833008   2.541239   3.972897   2.584433   2.155061
    21  H    3.718609   4.199153   5.362959   4.961823   3.330285
    22  H    4.306864   4.530987   4.994811   5.786627   3.319463
    23  H    4.061738   3.475963   3.289788   4.699656   2.243306
                    6          7          8          9         10
     6  C    0.000000
     7  C    1.346859   0.000000
     8  C    2.259805   1.443402   0.000000
     9  C    2.309817   2.280320   1.351989   0.000000
    10  H    2.668739   3.038411   3.809984   3.907346   0.000000
    11  H    2.841406   2.770173   2.830915   2.881523   1.763391
    12  H    3.884926   4.242848   4.498865   4.265184   1.765201
    13  H    4.065413   4.902573   4.577251   3.383592   4.298525
    14  H    4.610528   5.314405   5.145952   4.248135   3.731339
    15  H    3.949605   4.336602   3.773821   2.832865   3.746347
    16  H    4.071636   5.147333   5.632266   4.964551   3.059852
    17  H    3.414127   4.686613   5.093111   4.239090   3.709968
    18  H    2.851795   4.030805   4.862349   4.454383   2.493516
    19  H    2.229802   3.239758   3.214687   2.204616   4.019584
    20  H    1.065425   2.200373   3.295870   3.287077   2.412081
    21  H    2.175126   1.075104   2.234607   3.303130   3.325516
    22  H    3.285352   2.232980   1.076310   2.172583   4.588471
    23  H    3.347934   3.325842   2.176289   1.074899   4.761421
                   11         12         13         14         15
    11  H    0.000000
    12  H    1.763248   0.000000
    13  H    3.776537   3.687276   0.000000
    14  H    3.302566   2.510298   1.762118   0.000000
    15  H    2.600228   2.858068   1.766140   1.764066   0.000000
    16  H    3.868338   2.834118   3.050475   2.533211   3.721871
    17  H    4.266191   3.917102   2.553275   3.135706   3.748390
    18  H    3.694424   3.302294   3.761620   3.759263   4.302665
    19  H    3.817357   4.489718   2.589456   3.889589   3.271791
    20  H    3.218282   3.823528   4.299088   4.674952   4.411697
    21  H    3.291997   4.717004   5.901361   6.149283   5.246111
    22  H    3.425982   5.174627   5.418044   5.911603   4.404297
    23  H    3.532817   4.798479   3.299809   4.322837   2.725396
                   16         17         18         19         20
    16  H    0.000000
    17  H    1.760953   0.000000
    18  H    1.755076   1.766406   0.000000
    19  H    3.799458   2.466073   3.208424   0.000000
    20  H    3.551069   3.009526   2.041706   2.640528   0.000000
    21  H    5.810575   5.506234   4.576669   4.259211   2.714304
    22  H    6.609644   6.145375   5.892329   4.221146   4.298443
    23  H    5.476857   4.712430   5.227900   2.657713   4.281637
                   21         22         23
    21  H    0.000000
    22  H    2.655834   0.000000
    23  H    4.312869   2.641748   0.000000
 Symmetry turned off by external request.
 Stoichiometry    C9H14
 Framework group  C1[X(C9H14)]
 Deg. of freedom    63
 Full point group                 C1      NOp   1
 Rotational constants (GHZ):      2.7517352      1.2884328      1.1720683
 Standard basis: 3-21G* (6D, 7F)
   109 basis functions,   177 primitive gaussians,   109 cartesian basis functions
    34 alpha electrons       34 beta electrons
       nuclear repulsion energy       456.1559736743 Hartrees.
 NAtoms=   23 NActive=   23 NUniq=   23 SFac= 1.00D+00 NAtFMM=   60 NAOKFM=F Big=F
 Integral buffers will be    131072 words long.
 Raffenetti 1 integral format.
 Two-electron integral symmetry is turned off.
 One-electron integrals computed using PRISM.
 NBasis=   109 RedAO= T EigKep=  3.87D-03  NBF=   109
 NBsUse=   109 1.00D-06 EigRej= -1.00D+00 NBFU=   109
 ExpMin= 1.83D-01 ExpMax= 1.72D+02 ExpMxC= 1.72D+02 IAcc=1 IRadAn=         1 AccDes= 0.00D+00
 Harris functional with IExCor=  205 and IRadAn=       1 diagonalized for initial guess.
 HarFok:  IExCor=  205 AccDes= 0.00D+00 IRadAn=         1 IDoV= 1 UseB2=F ITyADJ=14
 ICtDFT=  3500011 ScaDFX=  1.000000  1.000000  1.000000  1.000000
 FoFCou: FMM=F IPFlag=           0 FMFlag=      100000 FMFlg1=           0
         NFxFlg=           0 DoJE=T BraDBF=F KetDBF=T FulRan=T
         wScrn=  0.000000 ICntrl=     500 IOpCl=  0 I1Cent=   200000004 NGrid=           0
         NMat0=    1 NMatS0=      1 NMatT0=    0 NMatD0=    1 NMtDS0=    0 NMtDT0=    0
 Symmetry not used in FoFCou.
 Keep R1 ints in memory in canonical form, NReq=18898892.
 Requested convergence on RMS density matrix=1.00D-08 within 128 cycles.
 Requested convergence on MAX density matrix=1.00D-06.
 Requested convergence on             energy=1.00D-06.
 No special actions if energy rises.
 SCF Done:  E(RHF) =  -346.934648013     A.U. after   13 cycles
            NFock= 13  Conv=0.98D-08     -V/T= 2.0017
 Range of M.O.s used for correlation:     1   109
 NBasis=   109 NAE=    34 NBE=    34 NFC=     0 NFV=     0
 NROrb=    109 NOA=    34 NOB=    34 NVA=    75 NVB=    75
 Symmetrizing basis deriv contribution to polar:
 IMax=3 JMax=2 DiffMx= 0.00D+00
 G2DrvN: will do    24 centers at a time, making    1 passes.
 Calling FoFCou, ICntrl=  3107 FMM=F I1Cent=   0 AccDes= 0.00D+00.
 End of G2Drv F.D. properties file   721 does not exist.
 End of G2Drv F.D. properties file   722 does not exist.
 End of G2Drv F.D. properties file   788 does not exist.
          IDoAtm=11111111111111111111111
          Differentiating once with respect to nuclear coordinates.
 Keep R1 ints in memory in canonical form, NReq=18865683.
          There are    72 degrees of freedom in the 1st order CPHF.  IDoFFX=6 NUNeed=     0.
     66 vectors produced by pass  0 Test12= 3.54D-15 1.39D-09 XBig12= 5.33D-02 8.34D-02.
 AX will form    66 AO Fock derivatives at one time.
     66 vectors produced by pass  1 Test12= 3.54D-15 1.39D-09 XBig12= 2.50D-03 1.68D-02.
     66 vectors produced by pass  2 Test12= 3.54D-15 1.39D-09 XBig12= 4.71D-05 1.03D-03.
     66 vectors produced by pass  3 Test12= 3.54D-15 1.39D-09 XBig12= 2.53D-07 7.43D-05.
     66 vectors produced by pass  4 Test12= 3.54D-15 1.39D-09 XBig12= 1.33D-09 3.74D-06.
     66 vectors produced by pass  5 Test12= 3.54D-15 1.39D-09 XBig12= 7.37D-12 3.68D-07.
     42 vectors produced by pass  6 Test12= 3.54D-15 1.39D-09 XBig12= 3.32D-14 1.92D-08.
      1 vectors produced by pass  7 Test12= 3.54D-15 1.39D-09 XBig12= 1.42D-16 1.53D-09.
 InvSVY:  IOpt=1 It=  1 EMax= 2.50D-16
 Solved reduced A of dimension   439 with    72 vectors.
 End of Minotr F.D. properties file   721 does not exist.
 End of Minotr F.D. properties file   722 does not exist.
 End of Minotr F.D. properties file   788 does not exist.

 **********************************************************************

            Population analysis using the SCF density.

 **********************************************************************

 Alpha  occ. eigenvalues --  -11.22168 -11.17208 -11.16592 -11.15956 -11.15784
 Alpha  occ. eigenvalues --  -11.15494 -11.15221 -11.14990 -11.14743  -1.16068
 Alpha  occ. eigenvalues --   -1.09605  -0.95918  -0.94921  -0.93824  -0.93112
 Alpha  occ. eigenvalues --   -0.74951  -0.72885  -0.71646  -0.69639  -0.62149
 Alpha  occ. eigenvalues --   -0.61147  -0.60555  -0.55541  -0.55330  -0.53795
 Alpha  occ. eigenvalues --   -0.52540  -0.51969  -0.50737  -0.49938  -0.48170
 Alpha  occ. eigenvalues --   -0.47047  -0.45872  -0.32009  -0.29053
 Alpha virt. eigenvalues --    0.11517   0.24255   0.25893   0.28197   0.29132
 Alpha virt. eigenvalues --    0.30792   0.32240   0.32767   0.34249   0.34664
 Alpha virt. eigenvalues --    0.35500   0.36858   0.37442   0.37823   0.39847
 Alpha virt. eigenvalues --    0.40604   0.41952   0.44010   0.44928   0.45970
 Alpha virt. eigenvalues --    0.48087   0.49362   0.60192   0.63275   0.69981
 Alpha virt. eigenvalues --    0.87183   0.88195   0.90364   0.92236   0.95345
 Alpha virt. eigenvalues --    0.97663   1.00427   1.01333   1.01626   1.05168
 Alpha virt. eigenvalues --    1.06563   1.09023   1.09494   1.11007   1.12158
 Alpha virt. eigenvalues --    1.15301   1.17646   1.23615   1.25297   1.27193
 Alpha virt. eigenvalues --    1.28575   1.31170   1.32340   1.33883   1.34604
 Alpha virt. eigenvalues --    1.35258   1.37041   1.37897   1.38172   1.39461
 Alpha virt. eigenvalues --    1.40919   1.42692   1.43797   1.45166   1.46992
 Alpha virt. eigenvalues --    1.47719   1.50905   1.59419   1.60923   1.68402
 Alpha virt. eigenvalues --    1.71295   1.75379   1.88820   2.02541   2.14925
 Alpha virt. eigenvalues --    2.24253   2.26139   2.36662   2.46329   2.84523
          Condensed to atoms (all electrons):
               1          2          3          4          5          6
     1  C    5.392754   0.253130  -0.089104  -0.080901  -0.026986  -0.025653
     2  C    0.253130   5.608439   0.261299   0.245651   0.238431  -0.038506
     3  C   -0.089104   0.261299   5.375722  -0.095411  -0.045291   0.001883
     4  C   -0.080901   0.245651  -0.095411   5.400461  -0.036385  -0.008234
     5  C   -0.026986   0.238431  -0.045291  -0.036385   5.521361   0.325936
     6  C   -0.025653  -0.038506   0.001883  -0.008234   0.325936   5.340329
     7  C   -0.003360  -0.005440   0.000075   0.000252  -0.154544   0.525888
     8  C   -0.000803  -0.001273  -0.000044  -0.000005  -0.140477  -0.134456
     9  C   -0.001599  -0.016192  -0.004456   0.000662   0.334420  -0.159281
    10  H    0.384772  -0.044750   0.003695  -0.002352  -0.000163  -0.000922
    11  H    0.375762  -0.042688  -0.000195   0.003381  -0.005255  -0.004535
    12  H    0.372403  -0.052671  -0.002741   0.001000   0.001818   0.000841
    13  H    0.003686  -0.044228   0.382473  -0.001145  -0.003009   0.000014
    14  H   -0.000544  -0.055893   0.366477  -0.000414   0.002882  -0.000066
    15  H   -0.001623  -0.043220   0.382037   0.003677  -0.003105  -0.000150
    16  H    0.000163  -0.052127  -0.001615   0.371491   0.002100   0.000168
    17  H    0.003412  -0.044258  -0.000646   0.379699  -0.002563   0.000247
    18  H   -0.001512  -0.042398   0.003544   0.379084  -0.001128  -0.001018
    19  H    0.000722  -0.019055  -0.000471   0.000500   0.389498  -0.025794
    20  H   -0.000299  -0.005817   0.000172  -0.000133  -0.043670   0.402101
    21  H    0.000052  -0.000095   0.000001   0.000000   0.002990  -0.024891
    22  H    0.000007  -0.000046   0.000001   0.000000   0.003289   0.002883
    23  H   -0.000001  -0.000326   0.000222   0.000000  -0.025818   0.002301
               7          8          9         10         11         12
     1  C   -0.003360  -0.000803  -0.001599   0.384772   0.375762   0.372403
     2  C   -0.005440  -0.001273  -0.016192  -0.044750  -0.042688  -0.052671
     3  C    0.000075  -0.000044  -0.004456   0.003695  -0.000195  -0.002741
     4  C    0.000252  -0.000005   0.000662  -0.002352   0.003381   0.001000
     5  C   -0.154544  -0.140477   0.334420  -0.000163  -0.005255   0.001818
     6  C    0.525888  -0.134456  -0.159281  -0.000922  -0.004535   0.000841
     7  C    5.304189   0.376682  -0.126336   0.000294  -0.000297   0.000084
     8  C    0.376682   5.279131   0.511871   0.000068   0.004810  -0.000078
     9  C   -0.126336   0.511871   5.333480  -0.000032   0.003201  -0.000121
    10  H    0.000294   0.000068  -0.000032   0.500561  -0.021193  -0.026355
    11  H   -0.000297   0.004810   0.003201  -0.021193   0.466658  -0.025826
    12  H    0.000084  -0.000078  -0.000121  -0.026355  -0.025826   0.531891
    13  H    0.000002   0.000006   0.000099  -0.000061  -0.000053   0.000011
    14  H   -0.000006  -0.000006   0.000109  -0.000101  -0.000118   0.002603
    15  H   -0.000001   0.000284   0.001995   0.000003   0.001596  -0.000113
    16  H   -0.000009   0.000000  -0.000015  -0.000074  -0.000093   0.001202
    17  H    0.000003   0.000001   0.000035   0.000026  -0.000054  -0.000083
    18  H    0.000061   0.000003  -0.000009   0.001766  -0.000001  -0.000008
    19  H    0.002789   0.002349  -0.028697  -0.000010   0.000077  -0.000011
    20  H   -0.022334   0.002362   0.003818   0.000340   0.000120  -0.000041
    21  H    0.397185  -0.025093   0.002440   0.000050   0.000047  -0.000001
    22  H   -0.025202   0.393617  -0.025774   0.000001   0.000098   0.000000
    23  H    0.002520  -0.025415   0.398861  -0.000001   0.000029  -0.000001
              13         14         15         16         17         18
     1  C    0.003686  -0.000544  -0.001623   0.000163   0.003412  -0.001512
     2  C   -0.044228  -0.055893  -0.043220  -0.052127  -0.044258  -0.042398
     3  C    0.382473   0.366477   0.382037  -0.001615  -0.000646   0.003544
     4  C   -0.001145  -0.000414   0.003677   0.371491   0.379699   0.379084
     5  C   -0.003009   0.002882  -0.003105   0.002100  -0.002563  -0.001128
     6  C    0.000014  -0.000066  -0.000150   0.000168   0.000247  -0.001018
     7  C    0.000002  -0.000006  -0.000001  -0.000009   0.000003   0.000061
     8  C    0.000006  -0.000006   0.000284   0.000000   0.000001   0.000003
     9  C    0.000099   0.000109   0.001995  -0.000015   0.000035  -0.000009
    10  H   -0.000061  -0.000101   0.000003  -0.000074   0.000026   0.001766
    11  H   -0.000053  -0.000118   0.001596  -0.000093  -0.000054  -0.000001
    12  H    0.000011   0.002603  -0.000113   0.001202  -0.000083  -0.000008
    13  H    0.508605  -0.026684  -0.023101  -0.000028   0.001696  -0.000022
    14  H   -0.026684   0.542548  -0.024588   0.003102  -0.000065  -0.000076
    15  H   -0.023101  -0.024588   0.484114  -0.000050  -0.000034  -0.000057
    16  H   -0.000028   0.003102  -0.000050   0.514969  -0.024832  -0.025480
    17  H    0.001696  -0.000065  -0.000034  -0.024832   0.497831  -0.023319
    18  H   -0.000022  -0.000076  -0.000057  -0.025480  -0.023319   0.499050
    19  H    0.001124  -0.000070   0.000120  -0.000061   0.001590   0.000044
    20  H   -0.000001  -0.000004  -0.000004   0.000011   0.000042   0.003244
    21  H    0.000000   0.000000   0.000000   0.000000   0.000000  -0.000001
    22  H    0.000000   0.000000   0.000000   0.000000   0.000000   0.000000
    23  H    0.000094  -0.000009   0.000202   0.000000   0.000000   0.000000
              19         20         21         22         23
     1  C    0.000722  -0.000299   0.000052   0.000007  -0.000001
     2  C   -0.019055  -0.005817  -0.000095  -0.000046  -0.000326
     3  C   -0.000471   0.000172   0.000001   0.000001   0.000222
     4  C    0.000500  -0.000133   0.000000   0.000000   0.000000
     5  C    0.389498  -0.043670   0.002990   0.003289  -0.025818
     6  C   -0.025794   0.402101  -0.024891   0.002883   0.002301
     7  C    0.002789  -0.022334   0.397185  -0.025202   0.002520
     8  C    0.002349   0.002362  -0.025093   0.393617  -0.025415
     9  C   -0.028697   0.003818   0.002440  -0.025774   0.398861
    10  H   -0.000010   0.000340   0.000050   0.000001  -0.000001
    11  H    0.000077   0.000120   0.000047   0.000098   0.000029
    12  H   -0.000011  -0.000041  -0.000001   0.000000  -0.000001
    13  H    0.001124  -0.000001   0.000000   0.000000   0.000094
    14  H   -0.000070  -0.000004   0.000000   0.000000  -0.000009
    15  H    0.000120  -0.000004   0.000000   0.000000   0.000202
    16  H   -0.000061   0.000011   0.000000   0.000000   0.000000
    17  H    0.001590   0.000042   0.000000   0.000000   0.000000
    18  H    0.000044   0.003244  -0.000001   0.000000   0.000000
    19  H    0.446970  -0.000589  -0.000035  -0.000043  -0.000034
    20  H   -0.000589   0.438849  -0.000474  -0.000037  -0.000030
    21  H   -0.000035  -0.000474   0.427209  -0.000036  -0.000033
    22  H   -0.000043  -0.000037  -0.000036   0.425239  -0.000427
    23  H   -0.000034  -0.000030  -0.000033  -0.000427   0.426886
 Mulliken charges:
               1
     1  C   -0.554478
     2  C   -0.097967
     3  C   -0.537627
     4  C   -0.560881
     5  C   -0.334328
     6  C   -0.179087
     7  C   -0.272494
     8  C   -0.243533
     9  C   -0.228478
    10  H    0.204439
    11  H    0.244530
    12  H    0.196197
    13  H    0.200521
    14  H    0.190925
    15  H    0.222019
    16  H    0.211178
    17  H    0.211270
    18  H    0.208233
    19  H    0.229089
    20  H    0.222375
    21  H    0.220684
    22  H    0.226431
    23  H    0.220981
 Sum of Mulliken charges =   0.00000
 Mulliken charges with hydrogens summed into heavy atoms:
               1
     1  C    0.090688
     2  C   -0.097967
     3  C    0.075838
     4  C    0.069801
     5  C   -0.105240
     6  C    0.043288
     7  C   -0.051810
     8  C   -0.017102
     9  C   -0.007497
 APT charges:
               1
     1  C   -1.259386
     2  C    0.567582
     3  C   -1.424968
     4  C   -1.543828
     5  C   -0.307189
     6  C   -0.403889
     7  C   -0.701033
     8  C   -0.783186
     9  C   -0.727592
    10  H    0.403137
    11  H    0.348847
    12  H    0.467562
    13  H    0.426452
    14  H    0.463736
    15  H    0.356981
    16  H    0.489797
    17  H    0.430747
    18  H    0.396253
    19  H    0.465594
    20  H    0.316940
    21  H    0.696274
    22  H    0.759384
    23  H    0.561787
 Sum of APT charges =   0.00000
 APT charges with hydrogens summed into heavy atoms:
               1
     1  C   -0.039840
     2  C    0.567582
     3  C   -0.177800
     4  C   -0.227031
     5  C    0.158405
     6  C   -0.086950
     7  C   -0.004759
     8  C   -0.023802
     9  C   -0.165805
 Electronic spatial extent (au):  <R**2>=           1230.6051
 Charge=              0.0000 electrons
 Dipole moment (field-independent basis, Debye):
    X=             -1.9265    Y=              0.1954    Z=             -0.0108  Tot=              1.9364
 Quadrupole moment (field-independent basis, Debye-Ang):
   XX=            -60.6121   YY=            -55.9181   ZZ=            -57.2733
   XY=              1.0012   XZ=             -3.5575   YZ=              0.4755
 Traceless Quadrupole moment (field-independent basis, Debye-Ang):
   XX=             -2.6776   YY=              2.0164   ZZ=              0.6612
   XY=              1.0012   XZ=             -3.5575   YZ=              0.4755
 Octapole moment (field-independent basis, Debye-Ang**2):
  XXX=            -63.8436  YYY=              5.4159  ZZZ=             -4.9003  XYY=            -15.3908
  XXY=              8.1697  XXZ=            -14.1273  XZZ=            -16.9874  YZZ=              0.1822
  YYZ=             -0.6477  XYZ=              0.9709
 Hexadecapole moment (field-independent basis, Debye-Ang**3):
 XXXX=          -1016.0839 YYYY=           -365.9393 ZZZZ=           -339.0922 XXXY=             20.1667
 XXXZ=             33.4090 YYYX=             12.4614 YYYZ=            -18.8899 ZZZX=             60.8396
 ZZZY=            -24.7817 XXYY=           -230.0655 XXZZ=           -217.9032 YYZZ=           -115.1555
 XXYZ=             -9.0964 YYXZ=             18.5772 ZZXY=             -0.4061
 N-N= 4.561559736743D+02 E-N=-1.718609549383D+03  KE= 3.463598719940D+02
  Exact polarizability:   0.000   0.000   0.000   0.000   0.000   0.000
 Approx polarizability:  93.107   4.371  76.809 -15.017   1.702  71.171
 Calling FoFJK, ICntrl=    100147 FMM=F ISym2X=0 I1Cent= 0 IOpClX= 0 NMat=1 NMatS=1 NMatT=0.
 -------------------------------------------------------------------
 Center     Atomic                   Forces (Hartrees/Bohr)
 Number     Number              X              Y              Z
 -------------------------------------------------------------------
      1        6           0.001249210    0.008229372   -0.007113432
      2        6           0.052694354   -0.041227712    0.001799588
      3        6          -0.006951908   -0.007450288   -0.004380153
      4        6          -0.004019467    0.003778964    0.008973842
      5        6          -0.074753422    0.021689599   -0.002440582
      6        6           0.005010201    0.012478654    0.000487068
      7        6           0.004593003    0.017198577    0.016582575
      8        6           0.000143736   -0.017152206   -0.012094726
      9        6           0.008644059   -0.009351450   -0.014957079
     10        1          -0.001817803   -0.003184221   -0.002538406
     11        1          -0.002348474    0.000769070    0.003348044
     12        1           0.001244750    0.000057876    0.001287249
     13        1          -0.000216953    0.001784534   -0.001709813
     14        1           0.001382180   -0.000809436    0.000329843
     15        1          -0.001652724    0.001110726    0.002981951
     16        1           0.002045505   -0.000180172    0.000978174
     17        1          -0.000479993    0.002076386   -0.001957540
     18        1          -0.001641567   -0.002691355   -0.000978261
     19        1           0.003865250    0.002347098   -0.000935854
     20        1           0.020221122    0.008724102    0.007505205
     21        1          -0.005199637   -0.002618001    0.000375118
     22        1          -0.003802115   -0.000339986    0.003557503
     23        1           0.001790694    0.004759870    0.000899686
 -------------------------------------------------------------------
 Cartesian Forces:  Max     0.074753422 RMS     0.013849312
 FormGI is forming the generalized inverse of G from B-inverse, IUseBI=4.

 GradGradGradGradGradGradGradGradGradGradGradGradGradGradGradGradGradGrad
 Berny optimization.
 Internal  Forces:  Max     0.051342232 RMS     0.005420226
 Search for a saddle point.
 Step number   1 out of a maximum of  100
 All quantities printed in internal units (Hartrees-Bohrs-Radians)
 Swapping is turned off.
 Second derivative matrix not updated -- analytic derivatives used.
 ITU=  0
     Eigenvalues ---   -0.00443   0.00082   0.00222   0.00315   0.00413
     Eigenvalues ---    0.00720   0.01462   0.01608   0.01701   0.01755
     Eigenvalues ---    0.01841   0.02255   0.02755   0.03112   0.03416
     Eigenvalues ---    0.04234   0.04412   0.04488   0.04633   0.04648
     Eigenvalues ---    0.04727   0.04789   0.05098   0.05397   0.06248
     Eigenvalues ---    0.07320   0.09104   0.10391   0.11713   0.12455
     Eigenvalues ---    0.12753   0.13002   0.13505   0.14802   0.15205
     Eigenvalues ---    0.15741   0.18279   0.18456   0.18731   0.19575
     Eigenvalues ---    0.22233   0.27053   0.28623   0.31252   0.31792
     Eigenvalues ---    0.33028   0.34936   0.35182   0.35458   0.35708
     Eigenvalues ---    0.35731   0.36357   0.36581   0.36858   0.37395
     Eigenvalues ---    0.37479   0.38251   0.38851   0.39286   0.39738
     Eigenvalues ---    0.40006   0.51551   0.60557
 Eigenvectors required to have negative eigenvalues:
                          R7        D65       D64       D70       D71
   1                    0.56218   0.26793   0.26248  -0.26009  -0.25023
                          D66       D67       A29       D77       D76
   1                   -0.19127  -0.18141  -0.18128  -0.17072  -0.17024
 RFO step:  Lambda0=4.139641882D-02 Lambda=-3.13365286D-02.
 Linear search not attempted -- option 19 set.
 Maximum step size (   0.100) exceeded in Quadratic search.
    -- Step size scaled by   0.254
 Iteration  1 RMS(Cart)=  0.02952327 RMS(Int)=  0.00054582
 Iteration  2 RMS(Cart)=  0.00069079 RMS(Int)=  0.00026365
 Iteration  3 RMS(Cart)=  0.00000030 RMS(Int)=  0.00026365
 Variable       Old X    -DE/DX   Delta X   Delta X   Delta X     New X
                                 (Linear)    (Quad)   (Total)
    R1        2.84586   0.00748   0.00000  -0.00061  -0.00061   2.84525
    R2        2.05257  -0.00430   0.00000  -0.00318  -0.00318   2.04938
    R3        2.05649  -0.00410   0.00000  -0.00266  -0.00266   2.05384
    R4        2.06208  -0.00166   0.00000  -0.00059  -0.00059   2.06149
    R5        2.86543   0.00883   0.00000   0.00425   0.00425   2.86968
    R6        2.84946   0.00854   0.00000   0.00246   0.00249   2.85195
    R7        3.78174  -0.05134   0.00000   0.04020   0.04025   3.82199
    R8        4.80225   0.01108   0.00000   0.01829   0.01804   4.82028
    R9        2.05435  -0.00247   0.00000  -0.00212  -0.00212   2.05223
   R10        2.06348  -0.00157   0.00000  -0.00008  -0.00008   2.06339
   R11        2.05296  -0.00358   0.00000  -0.00358  -0.00358   2.04938
   R12        2.06316  -0.00217   0.00000  -0.00063  -0.00063   2.06253
   R13        2.05493  -0.00286   0.00000  -0.00212  -0.00212   2.05280
   R14        2.05283   0.00057   0.00000  -0.00050  -0.00046   2.05237
   R15        2.75167   0.01294   0.00000   0.00346   0.00386   2.75553
   R16        2.74220   0.01564   0.00000  -0.00123  -0.00096   2.74124
   R17        2.03793  -0.00305   0.00000  -0.00574  -0.00574   2.03219
   R18        2.54520  -0.00540   0.00000   0.00149   0.00134   2.54654
   R19        2.01336  -0.00834   0.00000  -0.00469  -0.00459   2.00877
   R20        2.72763   0.01833   0.00000   0.00377   0.00348   2.73111
   R21        2.03165  -0.00491   0.00000  -0.00309  -0.00309   2.02856
   R22        2.55489  -0.00442   0.00000   0.00199   0.00194   2.55683
   R23        2.03393  -0.00506   0.00000  -0.00296  -0.00296   2.03097
   R24        2.03126  -0.00500   0.00000  -0.00302  -0.00302   2.02824
   R25        3.85827   0.00193   0.00000  -0.01044  -0.01041   3.84786
    A1        1.95849   0.00170   0.00000   0.00263   0.00263   1.96112
    A2        1.93268  -0.00109   0.00000  -0.00374  -0.00374   1.92893
    A3        1.90350  -0.00043   0.00000  -0.00203  -0.00203   1.90147
    A4        1.89162  -0.00020   0.00000   0.00156   0.00157   1.89319
    A5        1.89069  -0.00073   0.00000   0.00110   0.00111   1.89180
    A6        1.88501   0.00074   0.00000   0.00053   0.00052   1.88553
    A7        1.94668  -0.00140   0.00000   0.00277   0.00255   1.94923
    A8        2.00762  -0.00147   0.00000   0.01333   0.01323   2.02086
    A9        1.90938   0.00253   0.00000   0.00104   0.00095   1.91034
   A10        1.47923  -0.00002   0.00000   0.00856   0.00855   1.48778
   A11        1.94784   0.00191   0.00000   0.01188   0.01160   1.95945
   A12        1.76966  -0.00024   0.00000  -0.02061  -0.02050   1.74916
   A13        2.71840   0.00247   0.00000  -0.02274  -0.02270   2.69570
   A14        1.86505  -0.00108   0.00000  -0.01392  -0.01379   1.85126
   A15        1.29970  -0.00237   0.00000  -0.00960  -0.00953   1.29016
   A16        0.96179   0.00251   0.00000  -0.00215  -0.00224   0.95954
   A17        1.94472   0.00013   0.00000   0.00110   0.00110   1.94582
   A18        1.91510   0.00056   0.00000  -0.00168  -0.00168   1.91341
   A19        1.93385   0.00004   0.00000  -0.00160  -0.00160   1.93225
   A20        1.88373  -0.00040   0.00000  -0.00118  -0.00118   1.88255
   A21        1.89713  -0.00009   0.00000   0.00264   0.00264   1.89977
   A22        1.88771  -0.00026   0.00000   0.00076   0.00076   1.88847
   A23        1.89209   0.00072   0.00000  -0.00106  -0.00107   1.89102
   A24        1.94591  -0.00026   0.00000  -0.00020  -0.00012   1.94579
   A25        1.96951   0.00061   0.00000   0.00178   0.00163   1.97114
   A26        1.88175  -0.00028   0.00000  -0.00207  -0.00208   1.87966
   A27        1.87400  -0.00065   0.00000   0.00037   0.00043   1.87443
   A28        1.89725  -0.00021   0.00000   0.00100   0.00104   1.89829
   A29        1.60282   0.01021   0.00000  -0.02606  -0.02608   1.57673
   A30        1.98508  -0.00610   0.00000  -0.02951  -0.02972   1.95537
   A31        1.72639   0.00019   0.00000  -0.03256  -0.03166   1.69473
   A32        1.83639  -0.00249   0.00000   0.00126   0.00040   1.83679
   A33        2.13851  -0.00258   0.00000   0.02294   0.02113   2.15963
   A34        2.10427   0.00224   0.00000   0.03399   0.03245   2.13671
   A35        1.90246   0.00128   0.00000  -0.00111  -0.00057   1.90189
   A36        2.03490  -0.00136   0.00000   0.01220   0.01150   2.04640
   A37        2.29083  -0.00057   0.00000  -0.01114  -0.01094   2.27990
   A38        1.88706   0.00038   0.00000  -0.00023  -0.00040   1.88666
   A39        2.22456  -0.00156   0.00000  -0.00344  -0.00336   2.22120
   A40        2.17149   0.00116   0.00000   0.00359   0.00367   2.17516
   A41        1.90727   0.00106   0.00000   0.00010   0.00002   1.90728
   A42        2.16688   0.00074   0.00000   0.00273   0.00276   2.16965
   A43        2.20899  -0.00178   0.00000  -0.00277  -0.00274   2.20625
   A44        1.88908  -0.00028   0.00000  -0.00008   0.00035   1.88943
   A45        2.17462   0.00154   0.00000   0.00282   0.00260   2.17722
   A46        2.21820  -0.00126   0.00000  -0.00268  -0.00289   2.21531
   A47        1.87547   0.00217   0.00000  -0.00008  -0.00016   1.87530
   A48        1.33191  -0.01021   0.00000  -0.01922  -0.01930   1.31260
   A49        0.96593   0.00034   0.00000  -0.00124  -0.00126   0.96467
   A50        2.27873  -0.00929   0.00000  -0.01620  -0.01657   2.26216
    D1        2.95191  -0.00073   0.00000  -0.00675  -0.00673   2.94518
    D2        0.71097  -0.00086   0.00000  -0.03763  -0.03759   0.67338
    D3       -1.38777  -0.00035   0.00000  -0.02942  -0.02941  -1.41718
    D4       -0.51327   0.00145   0.00000  -0.02771  -0.02779  -0.54106
    D5       -1.21503  -0.00058   0.00000  -0.00558  -0.00556  -1.22059
    D6        2.82722  -0.00071   0.00000  -0.03646  -0.03642   2.79080
    D7        0.72847  -0.00019   0.00000  -0.02825  -0.02824   0.70024
    D8        1.60298   0.00160   0.00000  -0.02654  -0.02663   1.57635
    D9        0.85694  -0.00060   0.00000  -0.00844  -0.00842   0.84852
   D10       -1.38400  -0.00073   0.00000  -0.03932  -0.03928  -1.42328
   D11        2.80044  -0.00021   0.00000  -0.03111  -0.03109   2.76935
   D12       -2.60824   0.00158   0.00000  -0.02940  -0.02948  -2.63772
   D13        3.02328   0.00127   0.00000  -0.00591  -0.00591   3.01737
   D14       -1.17469   0.00122   0.00000  -0.00779  -0.00779  -1.18248
   D15        0.90862   0.00128   0.00000  -0.00891  -0.00891   0.89971
   D16       -0.98748  -0.00031   0.00000   0.02485   0.02490  -0.96259
   D17        1.09773  -0.00037   0.00000   0.02297   0.02302   1.12075
   D18       -3.10214  -0.00031   0.00000   0.02184   0.02189  -3.08025
   D19        0.99266  -0.00093   0.00000   0.00286   0.00291   0.99557
   D20        3.07787  -0.00098   0.00000   0.00099   0.00104   3.07891
   D21       -1.12200  -0.00092   0.00000  -0.00014  -0.00009  -1.12209
   D22        0.76211   0.00004   0.00000   0.00960   0.00950   0.77161
   D23        2.84733  -0.00002   0.00000   0.00772   0.00762   2.85494
   D24       -1.35255   0.00004   0.00000   0.00659   0.00649  -1.34605
   D25        1.20114  -0.00060   0.00000   0.01244   0.01253   1.21367
   D26       -3.01331  -0.00063   0.00000   0.00912   0.00923  -3.00408
   D27       -0.87223  -0.00064   0.00000   0.01159   0.01172  -0.86052
   D28       -1.03922   0.00093   0.00000  -0.01392  -0.01401  -1.05322
   D29        1.02952   0.00089   0.00000  -0.01724  -0.01731   1.01222
   D30       -3.11259   0.00088   0.00000  -0.01477  -0.01482  -3.12741
   D31       -2.95909   0.00090   0.00000   0.01211   0.01202  -2.94707
   D32       -0.89035   0.00086   0.00000   0.00879   0.00872  -0.88163
   D33        1.25073   0.00085   0.00000   0.01126   0.01120   1.26193
   D34        2.53521  -0.00133   0.00000   0.01191   0.01193   2.54714
   D35       -1.67923  -0.00136   0.00000   0.00859   0.00863  -1.67061
   D36        0.46184  -0.00138   0.00000   0.01106   0.01111   0.47296
   D37        0.83956   0.00084   0.00000  -0.00100  -0.00069   0.83887
   D38       -1.03695  -0.00016   0.00000   0.01497   0.01498  -1.02197
   D39        2.99222   0.00037   0.00000   0.01240   0.01236   3.00458
   D40        2.89736   0.00017   0.00000  -0.00783  -0.00764   2.88972
   D41        1.02085  -0.00084   0.00000   0.00814   0.00803   1.02889
   D42       -1.23316  -0.00030   0.00000   0.00557   0.00541  -1.22775
   D43       -1.34432   0.00177   0.00000  -0.00904  -0.00863  -1.35295
   D44        3.06236   0.00077   0.00000   0.00693   0.00704   3.06940
   D45        0.80834   0.00130   0.00000   0.00436   0.00442   0.81276
   D46       -0.35889   0.00148   0.00000  -0.01051  -0.01020  -0.36910
   D47       -2.23540   0.00047   0.00000   0.00546   0.00547  -2.22993
   D48        1.79377   0.00100   0.00000   0.00289   0.00284   1.79661
   D49       -1.54441   0.00188   0.00000   0.02588   0.02572  -1.51869
   D50        1.78726  -0.00001   0.00000   0.00670   0.00651   1.79376
   D51        0.79309   0.00236   0.00000   0.01454   0.01442   0.80751
   D52       -2.15843   0.00047   0.00000  -0.00465  -0.00480  -2.16323
   D53        2.68268   0.00285   0.00000   0.01235   0.01233   2.69500
   D54       -0.26884   0.00096   0.00000  -0.00683  -0.00689  -0.27573
   D55        0.51647   0.00401   0.00000   0.02108   0.02086   0.53734
   D56       -2.43504   0.00212   0.00000   0.00189   0.00165  -2.43340
   D57       -0.59458   0.00063   0.00000  -0.01761  -0.01773  -0.61231
   D58       -2.67845  -0.00020   0.00000  -0.01761  -0.01765  -2.69609
   D59        1.57346   0.00057   0.00000  -0.01589  -0.01597   1.55749
   D60       -1.95512   0.00613   0.00000   0.04922   0.04919  -1.90593
   D61        0.87639   0.00429   0.00000   0.04655   0.04670   0.92309
   D62        0.05585   0.00255   0.00000   0.01024   0.01015   0.06600
   D63        2.88736   0.00071   0.00000   0.00757   0.00766   2.89502
   D64        2.55150  -0.00039   0.00000   0.10156   0.10175   2.65325
   D65       -0.90018  -0.00223   0.00000   0.09889   0.09926  -0.80092
   D66        1.70737   0.00520   0.00000  -0.05526  -0.05506   1.65231
   D67       -1.48550   0.00517   0.00000  -0.05414  -0.05390  -1.53940
   D68       -0.01993  -0.00318   0.00000  -0.01585  -0.01573  -0.03566
   D69        3.07039  -0.00321   0.00000  -0.01473  -0.01457   3.05582
   D70       -2.53117   0.00183   0.00000  -0.10027  -0.10088  -2.63205
   D71        0.55915   0.00180   0.00000  -0.09915  -0.09972   0.45943
   D72       -0.06873  -0.00077   0.00000  -0.00110  -0.00109  -0.06982
   D73        3.06008  -0.00239   0.00000  -0.00729  -0.00727   3.05282
   D74       -2.83889   0.00154   0.00000  -0.00404  -0.00403  -2.84292
   D75        0.28993  -0.00008   0.00000  -0.01023  -0.01021   0.27972
   D76       -0.67194   0.00807   0.00000  -0.04065  -0.04089  -0.71283
   D77       -0.46592   0.00441   0.00000  -0.06456  -0.06451  -0.53043
   D78        2.07578   0.00608   0.00000  -0.04021  -0.04025   2.03553
   D79        2.28180   0.00241   0.00000  -0.06413  -0.06387   2.21793
   D80        0.05690  -0.00125   0.00000  -0.00921  -0.00916   0.04773
   D81       -3.09499   0.00030   0.00000  -0.00314  -0.00317  -3.09815
   D82       -3.07240   0.00034   0.00000  -0.00319  -0.00313  -3.07552
   D83        0.05890   0.00188   0.00000   0.00288   0.00287   0.06177
   D84       -0.02054   0.00301   0.00000   0.01562   0.01552  -0.00502
   D85       -3.10922   0.00293   0.00000   0.01425   0.01411  -3.09510
   D86        3.13165   0.00139   0.00000   0.00932   0.00933   3.14098
   D87        0.04298   0.00131   0.00000   0.00796   0.00792   0.05090
   D88        0.38156  -0.00030   0.00000   0.00931   0.00936   0.39093
   D89        0.13752   0.00475   0.00000   0.03876   0.03836   0.17588
         Item               Value     Threshold  Converged?
 Maximum Force            0.051342     0.000450     NO 
 RMS     Force            0.005420     0.000300     NO 
 Maximum Displacement     0.155581     0.001800     NO 
 RMS     Displacement     0.029794     0.001200     NO 
 Predicted change in Energy= 2.927132D-03
 GradGradGradGradGradGradGradGradGradGradGradGradGradGradGradGradGradGrad

                          Input orientation:                          
 ---------------------------------------------------------------------
 Center     Atomic      Atomic             Coordinates (Angstroms)
 Number     Number       Type             X           Y           Z
 ---------------------------------------------------------------------
      1          6           0       -0.725833    1.111470   -0.862816
      2          6           0       -0.910319    0.060399    0.199337
      3          6           0       -1.611628   -1.171226   -0.345925
      4          6           0       -1.517389    0.537049    1.496223
      5          6           0        0.886517   -0.733445    0.680726
      6          6           0        1.454027    0.604041    0.804417
      7          6           0        2.298738    0.818267   -0.223450
      8          6           0        2.383729   -0.400123   -0.996128
      9          6           0        1.546572   -1.322938   -0.468656
     10          1           0       -0.407643    2.062910   -0.450959
     11          1           0        0.010889    0.789071   -1.593930
     12          1           0       -1.673688    1.260779   -1.381776
     13          1           0       -1.632570   -1.973623    0.385585
     14          1           0       -2.644036   -0.922984   -0.600401
     15          1           0       -1.117958   -1.527943   -1.243227
     16          1           0       -2.563496    0.789212    1.313667
     17          1           0       -1.492502   -0.238879    2.256064
     18          1           0       -1.032786    1.426178    1.888848
     19          1           0        0.552627   -1.320330    1.517710
     20          1           0        0.948574    1.290405    1.439539
     21          1           0        2.815911    1.728478   -0.460889
     22          1           0        3.016708   -0.529952   -1.854938
     23          1           0        1.415754   -2.336745   -0.795844
 ---------------------------------------------------------------------
                    Distance matrix (angstroms):
                    1          2          3          4          5
     1  C    0.000000
     2  C    1.505641   0.000000
     3  C    2.502501   1.518567   0.000000
     4  C    2.553739   1.509186   2.514079   0.000000
     5  C    2.895842   2.022510   2.736128   2.838654   0.000000
     6  C    2.790867   2.500360   3.724661   3.051621   1.458162
     7  C    3.105284   3.324329   4.389083   4.195138   2.284668
     8  C    3.460067   3.534399   4.120709   4.723222   2.272572
     9  C    3.353435   2.897611   3.164222   4.087561   1.450604
    10  H    1.084486   2.164629   3.452572   2.711329   3.282554
    11  H    1.086843   2.143687   2.834227   3.456615   2.873819
    12  H    1.090891   2.126867   2.644143   2.971715   3.845191
    13  H    3.449417   2.166467   1.085996   2.747773   2.823288
    14  H    2.808445   2.147649   1.091901   2.792286   3.760587
    15  H    2.695362   2.155675   1.084485   3.453741   2.889765
    16  H    2.866694   2.122709   2.739273   1.091445   3.823832
    17  H    3.484055   2.158386   2.766552   1.086297   2.895863
    18  H    2.786560   2.175959   3.475022   1.086069   3.131654
    19  H    3.635246   2.405147   2.859960   2.781238   1.075388
    20  H    2.852454   2.550785   3.975192   2.579096   2.162318
    21  H    3.617484   4.135599   5.293827   4.901762   3.329701
    22  H    4.205376   4.471030   4.910178   5.738188   3.317938
    23  H    4.059687   3.485297   3.275042   4.702721   2.242971
                    6          7          8          9         10
     6  C    0.000000
     7  C    1.347569   0.000000
     8  C    2.261560   1.445243   0.000000
     9  C    2.311391   2.282682   1.353014   0.000000
    10  H    2.677701   2.987540   3.762380   3.909378   0.000000
    11  H    2.805165   2.667081   2.720647   2.843439   1.761879
    12  H    3.872124   4.161455   4.401131   4.228410   1.764286
    13  H    4.043125   4.860119   4.529426   3.355602   4.300448
    14  H    4.593412   5.254052   5.070345   4.211711   3.733543
    15  H    3.918330   4.268309   3.687119   2.782392   3.745192
    16  H    4.053901   5.099500   5.587907   4.952828   3.063318
    17  H    3.391139   4.651779   5.062403   4.223180   3.715256
    18  H    2.834808   3.991292   4.830221   4.446184   2.504182
    19  H    2.241543   3.264068   3.243316   2.221167   4.030396
    20  H    1.062995   2.193488   3.293939   3.290649   2.451545
    21  H    2.172576   1.073466   2.237008   3.304909   3.240870
    22  H    3.286348   2.234934   1.074743   2.170693   4.518880
    23  H    3.348212   3.325867   2.174303   1.073299   4.775006
                   11         12         13         14         15
    11  H    0.000000
    12  H    1.762191   0.000000
    13  H    3.775171   3.686003   0.000000
    14  H    3.311624   2.514148   1.760419   0.000000
    15  H    2.601123   2.846929   1.765358   1.762985   0.000000
    16  H    3.883501   2.877420   3.059610   2.569388   3.741189
    17  H    4.259028   3.938995   2.554927   3.154905   3.747934
    18  H    3.691193   3.336929   3.765394   3.782994   4.306272
    19  H    3.798073   4.475000   2.546289   3.855248   3.233688
    20  H    3.214424   3.851877   4.292669   4.686928   4.405778
    21  H    3.167715   4.606872   5.849022   6.071304   5.166397
    22  H    3.292855   5.042858   5.359097   5.811399   4.297166
    23  H    3.518708   4.778090   3.289363   4.303348   2.697036
                   16         17         18         19         20
    16  H    0.000000
    17  H    1.758440   0.000000
    18  H    1.754888   1.765956   0.000000
    19  H    3.768557   2.428427   3.192896   0.000000
    20  H    3.549884   2.994040   2.036198   2.641746   0.000000
    21  H    5.741889   5.460288   4.519416   4.281651   2.700089
    22  H    6.551254   6.108849   5.851563   4.251017   4.294701
    23  H    5.482341   4.708836   5.230918   2.670322   4.286189
                   21         22         23
    21  H    0.000000
    22  H    2.661616   0.000000
    23  H    4.312618   2.636140   0.000000
 Symmetry turned off by external request.
 Stoichiometry    C9H14
 Framework group  C1[X(C9H14)]
 Deg. of freedom    63
 Full point group                 C1      NOp   1
 Rotational constants (GHZ):      2.7172950      1.3113522      1.1950165
 Standard basis: 3-21G* (6D, 7F)
   109 basis functions,   177 primitive gaussians,   109 cartesian basis functions
    34 alpha electrons       34 beta electrons
       nuclear repulsion energy       457.1733915252 Hartrees.
 NAtoms=   23 NActive=   23 NUniq=   23 SFac= 1.00D+00 NAtFMM=   60 NAOKFM=F Big=F
 Integral buffers will be    131072 words long.
 Raffenetti 1 integral format.
 Two-electron integral symmetry is turned off.
 One-electron integrals computed using PRISM.
 NBasis=   109 RedAO= T EigKep=  3.88D-03  NBF=   109
 NBsUse=   109 1.00D-06 EigRej= -1.00D+00 NBFU=   109
 Initial guess from the checkpoint file:  "/scratch/3499466.1.multiway.q/tmpjyoog8nu/Gau-49759.chk"
 B after Tr=    -0.005247   -0.001059    0.003947
         Rot=    1.000000   -0.000137   -0.000420    0.000364 Ang=  -0.07 deg.
 ExpMin= 1.83D-01 ExpMax= 1.72D+02 ExpMxC= 1.72D+02 IAcc=1 IRadAn=         1 AccDes= 0.00D+00
 Harris functional with IExCor=  205 and IRadAn=       1 diagonalized for initial guess.
 HarFok:  IExCor=  205 AccDes= 0.00D+00 IRadAn=         1 IDoV= 1 UseB2=F ITyADJ=14
 ICtDFT=  3500011 ScaDFX=  1.000000  1.000000  1.000000  1.000000
 FoFCou: FMM=F IPFlag=           0 FMFlag=      100000 FMFlg1=           0
         NFxFlg=           0 DoJE=T BraDBF=F KetDBF=T FulRan=T
         wScrn=  0.000000 ICntrl=     500 IOpCl=  0 I1Cent=   200000004 NGrid=           0
         NMat0=    1 NMatS0=      1 NMatT0=    0 NMatD0=    1 NMtDS0=    0 NMtDT0=    0
 Symmetry not used in FoFCou.
 Keep R1 ints in memory in canonical form, NReq=18899023.
 Requested convergence on RMS density matrix=1.00D-08 within 128 cycles.
 Requested convergence on MAX density matrix=1.00D-06.
 Requested convergence on             energy=1.00D-06.
 No special actions if energy rises.
 SCF Done:  E(RHF) =  -346.931709302     A.U. after   13 cycles
            NFock= 13  Conv=0.57D-08     -V/T= 2.0017
 Calling FoFJK, ICntrl=      2127 FMM=F ISym2X=0 I1Cent= 0 IOpClX= 0 NMat=1 NMatS=1 NMatT=0.
 -------------------------------------------------------------------
 Center     Atomic                   Forces (Hartrees/Bohr)
 Number     Number              X              Y              Z
 -------------------------------------------------------------------
      1        6          -0.000905993    0.006807647   -0.005653732
      2        6           0.051148525   -0.040740472    0.002421210
      3        6          -0.008205493   -0.004595820   -0.003012043
      4        6          -0.004938528    0.003672680    0.006517972
      5        6          -0.070097245    0.024535034   -0.007251981
      6        6           0.004175299    0.009105493    0.000237583
      7        6           0.005176131    0.013093392    0.014364512
      8        6           0.000678993   -0.014029286   -0.008865182
      9        6           0.007416588   -0.007827641   -0.011531041
     10        1          -0.001417596   -0.002414360   -0.001928797
     11        1          -0.001906751    0.000604369    0.002535959
     12        1           0.000971621    0.000124127    0.001043789
     13        1          -0.000014470    0.001287319   -0.001309989
     14        1           0.001071161   -0.000747416    0.000350803
     15        1          -0.001328383    0.000901855    0.002218123
     16        1           0.001615234   -0.000050359    0.000913904
     17        1          -0.000262099    0.001562944   -0.001489861
     18        1          -0.001643696   -0.002737302   -0.001352247
     19        1           0.006221889    0.000824838    0.000281277
     20        1           0.018518773    0.009058608    0.008266675
     21        1          -0.004274857   -0.001950057    0.000138706
     22        1          -0.002828764   -0.000303977    0.002804736
     23        1           0.000829663    0.003818383    0.000299624
 -------------------------------------------------------------------
 Cartesian Forces:  Max     0.070097245 RMS     0.013066314

 GradGradGradGradGradGradGradGradGradGradGradGradGradGradGradGradGradGrad
 Berny optimization.
 FormGI is forming the generalized inverse of G from B-inverse, IUseBI=4.
 Internal  Forces:  Max     0.046538993 RMS     0.004820385
 Search for a saddle point.
 Step number   2 out of a maximum of  100
 All quantities printed in internal units (Hartrees-Bohrs-Radians)
 Swapping is turned off.
 Update second derivatives using D2CorX and points    1    2
 ITU=  0  0
     Eigenvalues ---   -0.00492   0.00080   0.00222   0.00317   0.00413
     Eigenvalues ---    0.00718   0.01475   0.01606   0.01701   0.01755
     Eigenvalues ---    0.01844   0.02289   0.02761   0.03109   0.03421
     Eigenvalues ---    0.04234   0.04410   0.04492   0.04636   0.04652
     Eigenvalues ---    0.04724   0.04783   0.05095   0.05396   0.06248
     Eigenvalues ---    0.07329   0.09119   0.10396   0.11712   0.12453
     Eigenvalues ---    0.12753   0.13002   0.13505   0.14802   0.15205
     Eigenvalues ---    0.15734   0.18279   0.18456   0.18731   0.19575
     Eigenvalues ---    0.22230   0.27051   0.28620   0.31251   0.31789
     Eigenvalues ---    0.33027   0.34935   0.35181   0.35458   0.35707
     Eigenvalues ---    0.35728   0.36357   0.36581   0.36858   0.37395
     Eigenvalues ---    0.37479   0.38246   0.38851   0.39286   0.39735
     Eigenvalues ---    0.40005   0.51547   0.60557
 Eigenvectors required to have negative eigenvalues:
                          R7        D65       D64       D70       D71
   1                   -0.56904  -0.27644  -0.26058   0.25930   0.25330
                          D66       A29       D77       D67       D76
   1                    0.18054   0.17881   0.17491   0.17453   0.17224
 RFO step:  Lambda0=4.026936850D-02 Lambda=-2.58592682D-02.
 Linear search not attempted -- option 19 set.
 Maximum step size (   0.100) exceeded in Quadratic search.
    -- Step size scaled by   0.250
 Iteration  1 RMS(Cart)=  0.02529991 RMS(Int)=  0.00048648
 Iteration  2 RMS(Cart)=  0.00054714 RMS(Int)=  0.00024567
 Iteration  3 RMS(Cart)=  0.00000020 RMS(Int)=  0.00024567
 Variable       Old X    -DE/DX   Delta X   Delta X   Delta X     New X
                                 (Linear)    (Quad)   (Total)
    R1        2.84525   0.00600   0.00000  -0.00180  -0.00180   2.84345
    R2        2.04938  -0.00327   0.00000  -0.00236  -0.00236   2.04702
    R3        2.05384  -0.00318   0.00000  -0.00190  -0.00190   2.05193
    R4        2.06149  -0.00132   0.00000  -0.00043  -0.00043   2.06106
    R5        2.86968   0.00710   0.00000   0.00295   0.00295   2.87262
    R6        2.85195   0.00680   0.00000   0.00142   0.00148   2.85343
    R7        3.82199  -0.04654   0.00000   0.04770   0.04770   3.86969
    R8        4.82028   0.01060   0.00000   0.02594   0.02572   4.84600
    R9        2.05223  -0.00183   0.00000  -0.00171  -0.00171   2.05053
   R10        2.06339  -0.00126   0.00000   0.00005   0.00005   2.06344
   R11        2.04938  -0.00274   0.00000  -0.00292  -0.00292   2.04646
   R12        2.06253  -0.00171   0.00000  -0.00038  -0.00038   2.06216
   R13        2.05280  -0.00216   0.00000  -0.00166  -0.00166   2.05114
   R14        2.05237   0.00044   0.00000  -0.00067  -0.00064   2.05174
   R15        2.75553   0.01021   0.00000   0.00150   0.00181   2.75734
   R16        2.74124   0.01259   0.00000  -0.00295  -0.00274   2.73850
   R17        2.03219  -0.00216   0.00000  -0.00472  -0.00472   2.02747
   R18        2.54654  -0.00433   0.00000   0.00216   0.00203   2.54857
   R19        2.00877  -0.00636   0.00000  -0.00325  -0.00310   2.00567
   R20        2.73111   0.01447   0.00000   0.00136   0.00115   2.73227
   R21        2.02856  -0.00374   0.00000  -0.00239  -0.00239   2.02617
   R22        2.55683  -0.00373   0.00000   0.00279   0.00279   2.55961
   R23        2.03097  -0.00387   0.00000  -0.00222  -0.00222   2.02875
   R24        2.02824  -0.00380   0.00000  -0.00229  -0.00229   2.02595
   R25        3.84786   0.00209   0.00000  -0.00854  -0.00852   3.83934
    A1        1.96112   0.00128   0.00000   0.00190   0.00190   1.96302
    A2        1.92893  -0.00085   0.00000  -0.00329  -0.00329   1.92565
    A3        1.90147  -0.00027   0.00000  -0.00138  -0.00138   1.90009
    A4        1.89319  -0.00010   0.00000   0.00142   0.00143   1.89461
    A5        1.89180  -0.00062   0.00000   0.00137   0.00137   1.89317
    A6        1.88553   0.00056   0.00000   0.00001   0.00000   1.88553
    A7        1.94923  -0.00149   0.00000   0.00300   0.00288   1.95212
    A8        2.02086  -0.00160   0.00000   0.01235   0.01228   2.03314
    A9        1.91034   0.00239   0.00000   0.00053   0.00045   1.91078
   A10        1.48778   0.00018   0.00000   0.01115   0.01116   1.49893
   A11        1.95945   0.00137   0.00000   0.01024   0.00989   1.96933
   A12        1.74916   0.00044   0.00000  -0.01885  -0.01871   1.73045
   A13        2.69570   0.00267   0.00000  -0.02380  -0.02377   2.67193
   A14        1.85126  -0.00065   0.00000  -0.01331  -0.01321   1.83805
   A15        1.29016  -0.00189   0.00000  -0.01075  -0.01073   1.27943
   A16        0.95954   0.00209   0.00000  -0.00414  -0.00423   0.95531
   A17        1.94582   0.00003   0.00000   0.00119   0.00119   1.94701
   A18        1.91341   0.00060   0.00000  -0.00188  -0.00188   1.91153
   A19        1.93225  -0.00003   0.00000  -0.00128  -0.00129   1.93097
   A20        1.88255  -0.00034   0.00000  -0.00110  -0.00110   1.88145
   A21        1.89977  -0.00005   0.00000   0.00242   0.00242   1.90219
   A22        1.88847  -0.00023   0.00000   0.00068   0.00068   1.88915
   A23        1.89102   0.00072   0.00000  -0.00095  -0.00098   1.89004
   A24        1.94579  -0.00021   0.00000   0.00011   0.00021   1.94600
   A25        1.97114   0.00037   0.00000   0.00090   0.00075   1.97189
   A26        1.87966  -0.00023   0.00000  -0.00197  -0.00199   1.87767
   A27        1.87443  -0.00052   0.00000   0.00057   0.00064   1.87507
   A28        1.89829  -0.00016   0.00000   0.00119   0.00122   1.89951
   A29        1.57673   0.00994   0.00000  -0.02438  -0.02436   1.55237
   A30        1.95537  -0.00493   0.00000  -0.02494  -0.02507   1.93030
   A31        1.69473   0.00035   0.00000  -0.03317  -0.03243   1.66230
   A32        1.83679  -0.00209   0.00000   0.00141   0.00072   1.83751
   A33        2.15963  -0.00211   0.00000   0.01857   0.01681   2.17645
   A34        2.13671   0.00123   0.00000   0.02782   0.02637   2.16309
   A35        1.90189   0.00096   0.00000  -0.00087  -0.00040   1.90149
   A36        2.04640  -0.00133   0.00000   0.01244   0.01169   2.05809
   A37        2.27990  -0.00018   0.00000  -0.00901  -0.00872   2.27117
   A38        1.88666   0.00040   0.00000  -0.00052  -0.00068   1.88598
   A39        2.22120  -0.00124   0.00000  -0.00287  -0.00279   2.21841
   A40        2.17516   0.00082   0.00000   0.00331   0.00339   2.17855
   A41        1.90728   0.00076   0.00000   0.00002  -0.00003   1.90725
   A42        2.16965   0.00058   0.00000   0.00243   0.00244   2.17209
   A43        2.20625  -0.00133   0.00000  -0.00242  -0.00240   2.20384
   A44        1.88943  -0.00016   0.00000  -0.00023   0.00010   1.88953
   A45        2.17722   0.00116   0.00000   0.00248   0.00231   2.17953
   A46        2.21531  -0.00100   0.00000  -0.00234  -0.00250   2.21281
   A47        1.87530   0.00230   0.00000   0.00066   0.00052   1.87582
   A48        1.31260  -0.00921   0.00000  -0.01908  -0.01914   1.29346
   A49        0.96467  -0.00013   0.00000  -0.00333  -0.00336   0.96131
   A50        2.26216  -0.00884   0.00000  -0.01805  -0.01847   2.24368
    D1        2.94518  -0.00128   0.00000  -0.00926  -0.00929   2.93589
    D2        0.67338  -0.00033   0.00000  -0.03845  -0.03841   0.63497
    D3       -1.41718  -0.00020   0.00000  -0.02994  -0.02989  -1.44707
    D4       -0.54106   0.00130   0.00000  -0.02895  -0.02900  -0.57007
    D5       -1.22059  -0.00113   0.00000  -0.00846  -0.00849  -1.22908
    D6        2.79080  -0.00019   0.00000  -0.03765  -0.03762   2.75318
    D7        0.70024  -0.00006   0.00000  -0.02914  -0.02909   0.67114
    D8        1.57635   0.00144   0.00000  -0.02815  -0.02821   1.54815
    D9        0.84852  -0.00113   0.00000  -0.01125  -0.01127   0.83725
   D10       -1.42328  -0.00018   0.00000  -0.04044  -0.04040  -1.46368
   D11        2.76935  -0.00005   0.00000  -0.03193  -0.03188   2.73747
   D12       -2.63772   0.00145   0.00000  -0.03094  -0.03099  -2.66871
   D13        3.01737   0.00162   0.00000  -0.00351  -0.00352   3.01385
   D14       -1.18248   0.00160   0.00000  -0.00536  -0.00537  -1.18785
   D15        0.89971   0.00168   0.00000  -0.00651  -0.00652   0.89319
   D16       -0.96259  -0.00075   0.00000   0.02585   0.02589  -0.93670
   D17        1.12075  -0.00077   0.00000   0.02400   0.02404   1.14479
   D18       -3.08025  -0.00069   0.00000   0.02286   0.02289  -3.05736
   D19        0.99557  -0.00077   0.00000   0.00468   0.00468   1.00026
   D20        3.07891  -0.00079   0.00000   0.00283   0.00283   3.08174
   D21       -1.12209  -0.00071   0.00000   0.00168   0.00169  -1.12040
   D22        0.77161  -0.00034   0.00000   0.00395   0.00391   0.77552
   D23        2.85494  -0.00035   0.00000   0.00210   0.00206   2.85700
   D24       -1.34605  -0.00028   0.00000   0.00095   0.00091  -1.34514
   D25        1.21367  -0.00100   0.00000   0.01324   0.01332   1.22699
[...]
 000053,-0.00025718,-0.00049184,-0.00064668,0.00037717,0.02153617,-0.00
 746879,0.00451394,-0.08664712,0.09547892,0.00088024,0.00027343,-0.0002
 5491,-0.00656831,0.00092520,-0.00275350,-0.05612558,0.01885459,-0.0741
 0829,-0.00090185,0.00025350,-0.00035922,-0.00139217,0.00081291,0.00000
 500,0.00165095,0.00036565,0.00004366,-0.00026698,0.00027340,0.00083810
 ,-0.00012452,-0.00085965,0.00007159,0.00024144,0.00015939,-0.00012913,
 -0.00001800,-0.00007961,-0.00007678,0.00010650,0.00008950,0.00005860,0
 .00056954,0.00067370,0.00010878,-0.03038688,0.00992642,-0.00722656,0.0
 6472542,-0.02168543,0.07471709,0.00053311,0.00114022,-0.00040569,0.005
 37552,-0.01383884,-0.01954443,-0.09749295,0.06149187,0.08720315,-0.002
 18537,-0.00383709,-0.00012795,-0.00095586,-0.00221139,-0.00212276,-0.0
 0020461,0.00085120,-0.00051900,-0.00007126,0.00014646,0.00043929,-0.00
 011999,-0.00071475,-0.00000261,0.00012641,0.00000891,-0.00010026,-0.00
 012132,0.00020607,-0.00024211,0.00007525,-0.00010410,0.00037287,-0.000
 21022,0.00025800,0.00004435,-0.00123589,0.00079751,0.00021784,-0.01242
 915,0.01841067,0.02760429,0.10783912,0.00055798,0.00115823,-0.00046502
 ,0.01277868,-0.01657427,-0.02422396,0.05625328,-0.13913542,-0.11515319
 ,-0.00433779,-0.00523194,-0.00032785,0.00203871,-0.00077553,-0.0009295
 8,-0.00069022,0.00038700,-0.00024038,0.00042229,0.00043570,-0.00015078
 ,-0.00009344,0.00005935,0.00040903,0.00017343,0.00011153,0.00154093,0.
 00005034,0.00039135,0.00011260,-0.00060526,-0.00040297,0.00054259,0.00
 032199,-0.00024401,-0.00003485,-0.00895547,0.01398048,0.01821923,0.004
 26361,-0.00659277,-0.00876444,-0.06181799,0.15245636,-0.00045404,0.000
 79226,0.00068127,0.00359235,-0.00282702,-0.00570453,0.08197959,-0.1173
 1726,-0.23026808,-0.00147518,-0.00122150,0.00078866,-0.00003487,-0.000
 15956,-0.00016008,0.00040595,0.00033256,-0.00016459,0.00002279,0.00083
 028,0.00030538,-0.00011019,-0.00049085,0.00024716,0.00018938,0.0001910
 2,0.00046167,-0.00008028,-0.00001840,0.00003490,-0.00001213,-0.0001061
 8,0.00052872,-0.00011535,-0.00002913,-0.00001188,0.01158075,-0.0173861
 8,-0.02301494,-0.00368470,0.00636991,0.00882816,-0.09206093,0.13058884
 ,0.24749233,0.00047871,-0.00038459,-0.00098913,-0.01806583,0.00527219,
 -0.00151212,0.00034132,-0.00140811,-0.00145867,-0.30637546,0.03888559,
 -0.05958241,0.00236487,-0.00308328,-0.00115520,-0.00385051,0.00195215,
 0.00056228,0.00079275,0.00034838,-0.00135874,0.00028922,0.00171062,0.0
 0100701,-0.00150921,-0.00092210,0.00191238,-0.00028736,0.00003315,-0.0
 0000761,-0.00016752,0.00013991,0.00018577,0.00037454,-0.00003806,0.000
 80382,-0.00011402,0.00000813,0.00012398,0.00156929,-0.00003583,0.00023
 711,0.00053975,-0.00034703,0.00020506,0.34054204,-0.00034980,0.0002093
 0,0.00069131,0.01789760,-0.00586156,0.00253144,0.00121472,-0.00038912,
 0.00036360,0.03834626,-0.06612109,0.00860298,-0.00236133,0.00182974,0.
 00014019,0.00292981,0.00053965,-0.00100564,-0.00025251,-0.00047832,0.0
 0132610,-0.00010588,-0.00128599,-0.00099369,0.00157030,0.00102250,-0.0
 0077430,-0.00015579,-0.00013621,-0.00010783,0.00012583,-0.00022208,0.0
 0007328,-0.00008407,0.00021149,-0.00013183,0.00015766,-0.00015377,0.00
 003142,-0.00043376,-0.00067035,-0.00094095,-0.00027639,0.00034229,0.00
 019182,-0.04513235,0.06741934,-0.00000868,0.00035560,0.00150288,0.0273
 6437,-0.00859288,0.00193675,0.00078670,0.00002030,0.00081434,-0.058300
 62,0.00898488,-0.07145550,-0.00317955,0.00282429,0.00095020,0.00515328
 ,-0.00145420,-0.00117547,-0.00130289,0.00011104,0.00241387,-0.00024567
 ,-0.00292953,-0.00135187,0.00262366,0.00165588,-0.00213084,0.00012858,
 0.00003398,-0.00004634,-0.00003464,-0.00017651,0.00045270,-0.00009020,
 -0.00003315,-0.00038473,-0.00017163,0.00015225,-0.00012131,-0.00027359
 ,-0.00061345,-0.00024292,0.00003137,0.00049505,0.00009476,0.06495804,-
 0.00648637,0.07719105,-0.00098308,0.00215038,0.00226210,-0.00179440,-0
 .01007078,0.01686965,-0.00039300,-0.00030451,-0.00100193,-0.05741092,0
 .00738728,-0.01423263,-0.00059305,0.00043116,0.00027443,0.00116074,-0.
 00083672,0.00144679,-0.00047990,0.00023261,0.00012743,-0.00005990,-0.0
 0051888,-0.00034427,0.00039055,0.00020422,-0.00059121,0.00000054,0.000
 34798,-0.00030488,0.00024536,-0.00022157,0.00099732,0.00020665,-0.0000
 1700,0.00052892,0.00038872,-0.00006461,-0.00017130,0.00000048,0.000038
 45,-0.00017271,-0.00016156,-0.00008291,-0.00000799,-0.00126564,0.02043
 220,-0.03374669,0.06127342,0.00137925,-0.00210842,-0.00247611,-0.00039
 715,0.01099738,-0.01921808,0.00010185,0.00143316,0.00010033,0.00623974
 ,-0.13733152,0.12586439,0.00049842,-0.00011779,-0.00031225,-0.00082420
 ,0.00033359,0.00007121,0.00012048,-0.00022212,-0.00058127,0.00015063,0
 .00052624,0.00015572,-0.00043642,-0.00039194,0.00041385,0.00025986,0.0
 0036546,-0.00005323,0.00011678,0.00075820,-0.00078549,-0.00006669,0.00
 001041,-0.00007442,0.00006541,-0.00019455,-0.00004213,-0.00004551,-0.0
 0008427,-0.00005134,0.00014232,0.00020389,0.00018845,0.00017203,-0.003
 59716,0.00461545,-0.01009117,0.14633304,0.00338237,-0.00470375,-0.0032
 4805,-0.00213115,0.01763271,-0.02561524,-0.00005937,0.00120689,0.00080
 218,-0.01150525,0.12323503,-0.25927063,0.00057257,0.00031496,0.0004722
 4,-0.00107756,-0.00133224,-0.00020167,-0.00007121,0.00003102,0.0000312
 6,-0.00005073,-0.00007764,0.00026279,0.00003051,0.00017623,0.00011249,
 -0.00008287,-0.00009379,0.00043717,-0.00036976,0.00100575,-0.00132083,
 -0.00026609,-0.00006275,0.00019982,-0.00036442,-0.00115019,0.00037891,
 0.00022544,0.00004404,-0.00000238,0.00019529,-0.00022339,0.00048306,-0
 .00091060,0.00443396,-0.00733971,0.01170885,-0.13745714,0.28714125,-0.
 00011814,0.00029466,-0.00084445,0.00515578,0.01764817,0.00339089,-0.00
 035615,0.00089805,0.00235709,-0.11827212,-0.12023036,-0.01751809,-0.00
 008305,0.00007586,0.00010856,-0.00073451,0.00223128,0.00026368,0.00022
 834,-0.00015823,-0.00030540,0.00010207,0.00024020,0.00008477,0.0000303
 1,-0.00012495,0.00003089,0.00031067,-0.00004733,-0.00008528,0.00011636
 ,0.00016484,-0.00015114,-0.00003781,-0.00013743,-0.00013051,-0.0002571
 0,-0.00008371,0.00000072,0.00065529,0.00017861,0.00038142,0.00086285,0
 .00048578,0.00030826,-0.01615829,-0.03333644,-0.00399346,0.00034161,0.
 00300677,0.00029897,0.12949162,-0.00006760,0.00072954,0.00128341,-0.01
 080032,-0.01769164,-0.00149233,0.00291196,-0.00118369,-0.00343222,-0.1
 1418131,-0.28316403,-0.03078506,0.00012728,-0.00005795,0.00043482,-0.0
 0091343,-0.00008570,-0.00116558,0.00054132,0.00001215,-0.00006200,0.00
 011424,0.00014472,-0.00015944,0.00004334,0.00050923,0.00054537,0.00018
 918,0.00100459,-0.00043995,0.00013380,0.00038262,0.00023674,0.00010543
 ,-0.00005813,0.00023268,0.00018764,0.00044815,0.00010703,-0.00007140,0
 .00030643,0.00008317,-0.00083426,-0.00078335,-0.00037087,0.00300468,0.
 00716374,0.00087348,-0.00877592,-0.01680047,-0.00286669,0.12773945,0.3
 0911692,-0.00138058,-0.00120505,0.00116478,-0.01408443,-0.02619530,-0.
 00497626,0.00310504,-0.00280373,-0.00475520,-0.01453315,-0.02769259,-0
 .06259997,0.00057535,-0.00001538,-0.00005284,-0.00137484,-0.00037771,0
 .00021652,0.00023031,0.00012827,-0.00057490,0.00011020,0.00038663,-0.0
 0006553,-0.00025392,-0.00008007,0.00035931,0.00048534,0.00069287,-0.00
 062541,0.00010009,0.00025377,0.00039410,0.00009381,0.00001283,0.000043
 79,0.00004257,-0.00018085,0.00028874,0.00029614,0.00038097,0.00009275,
 -0.00083110,-0.00155087,-0.00003067,-0.00406664,-0.00800828,-0.0016180
 1,0.01604385,0.02991106,0.00572918,0.01569305,0.03588557,0.06680575,-0
 .00168550,0.00052618,0.00011252,0.00065410,0.01280704,-0.00330100,-0.0
 0126638,0.00145301,-0.00122027,-0.00054416,0.00008158,-0.00056627,-0.0
 9492916,-0.11216120,0.08231920,-0.01094010,-0.00098494,0.00415561,0.00
 328928,-0.00118445,-0.00443848,0.00299304,0.00467658,0.00675284,-0.004
 14422,-0.01694394,0.00886616,-0.00014470,-0.00005556,-0.00009049,0.000
 25255,-0.00010628,0.00010585,0.00009548,0.00032839,-0.00045767,-0.0023
 0833,0.00058426,-0.00064944,0.00087724,0.00022871,0.00004207,0.0001197
 0,-0.00025849,-0.00009842,-0.00010306,0.00004260,0.00030661,0.00006632
 ,-0.00009108,0.00027007,0.00000212,-0.00014593,-0.00006559,0.10934007,
 0.00076854,-0.00017888,-0.00022369,-0.00177063,-0.00547250,0.00159122,
 -0.00204797,-0.00034210,0.00009560,0.00054822,-0.00029193,0.00048072,-
 0.10332560,-0.23885509,0.13038739,-0.00764627,-0.00956190,0.02036643,-
 0.00137543,-0.00497584,-0.00119063,0.00070758,-0.00173843,-0.00394945,
 0.00400193,0.01236463,-0.00731168,0.00002286,0.00005131,0.00006610,-0.
 00007920,0.00008834,-0.00010859,0.00006390,-0.00015724,0.00025483,-0.0
 0004880,0.00118850,-0.00085556,-0.00033925,0.00042456,-0.00051089,-0.0
 0004788,0.00011234,0.00018236,0.00013676,-0.00004251,-0.00024999,0.000
 18669,-0.00008272,-0.00037453,-0.00005061,0.00013553,-0.00002654,0.110
 87007,0.24691396,-0.00095253,-0.00000980,0.00018258,0.00098469,0.00777
 949,-0.00169419,0.00143902,0.00005442,0.00015071,-0.00071854,0.0000408
 2,-0.00015793,0.09278523,0.12252043,-0.16773162,-0.01261183,-0.0102697
 7,0.01332191,0.00056896,-0.00507417,-0.00346531,0.00514062,0.00089942,
 -0.00366521,0.00485066,0.02301312,0.00034347,-0.00006093,-0.00006250,0
 .00000560,0.00029639,-0.00008974,0.00014404,-0.00003349,0.00020861,-0.
 00025545,-0.00015526,-0.00051732,0.00114191,0.00071137,-0.00032196,0.0
 0051259,-0.00019439,0.00015362,-0.00074066,-0.00015222,0.00014127,0.00
 019643,0.00005204,-0.00001835,0.00001419,-0.00001712,-0.00009735,-0.00
 012529,-0.09119018,-0.13982194,0.16077163,-0.00076692,0.00027701,0.000
 26792,-0.00334018,-0.00907320,-0.01051926,-0.00172332,0.00136008,-0.00
 073479,-0.00221710,-0.00024086,-0.00174311,-0.00779867,0.00250302,-0.0
 0304389,-0.05090376,0.01812102,0.07242400,0.00065443,0.01153073,0.0230
 6520,-0.00100302,-0.00894808,0.00307872,0.00350091,0.00003053,-0.00413
 126,-0.00003137,0.00018918,-0.00006588,0.00024250,-0.00026481,0.000158
 94,0.00003389,0.00015831,-0.00031273,0.00004244,0.00000512,0.00008077,
 -0.00037357,-0.00064529,-0.00026706,0.00009450,0.00010027,0.00006066,0
 .00072183,-0.00032784,-0.00010058,-0.00116232,-0.00034361,0.00033390,-
 0.00117022,0.00063095,-0.00040024,-0.00004064,0.00006251,-0.00004571,0
 .06615428,0.00004291,0.00010722,-0.00003328,0.00196575,0.00242353,0.00
 358368,0.00085032,-0.00042892,0.00003094,0.00067465,0.00070420,-0.0005
 5873,0.01348223,-0.00062691,-0.03008820,0.00290034,-0.10129957,-0.1014
 3812,0.00170773,0.01273524,0.01296876,-0.00454483,0.00040480,0.0033162
 3,-0.00302839,-0.00779700,-0.00051184,0.00001279,-0.00003758,0.0000567
 6,-0.00020510,0.00003506,-0.00003074,-0.00000053,0.00000388,0.00007276
 ,-0.00007336,-0.00012318,-0.00001761,0.00010108,0.00023207,0.00012962,
 -0.00010006,-0.00011445,0.00003037,-0.00032290,0.00018238,0.00038593,-
 0.00039645,-0.00001317,0.00022624,0.00128977,-0.00023752,0.00045938,0.
 00022986,0.00013390,0.00126375,-0.01620911,0.09259056,-0.00052951,-0.0
 0008996,0.00016205,-0.00098084,-0.00553875,-0.00660590,-0.00101035,0.0
 0081988,-0.00022094,0.00331818,-0.00155223,0.00069145,-0.00326052,0.00
 475367,0.00053162,0.07795269,-0.09895060,-0.34897647,-0.00319172,-0.01
 143612,-0.00491982,0.00264629,-0.00128831,-0.00214310,0.00137689,0.001
 24510,-0.00101048,0.00001570,0.00013791,-0.00014002,0.00023065,-0.0000
 7024,0.00029498,-0.00007765,0.00015726,-0.00018667,0.00001149,-0.00001
 960,0.00003693,-0.00034070,-0.00031858,-0.00015698,0.00007853,0.000134
 22,0.00007626,0.00102060,0.00006343,0.00035928,0.00028115,-0.00023468,
 0.00093115,0.00010614,0.00116404,0.00027162,-0.00041806,-0.00087844,-0
 .00017252,-0.07745167,0.11176332,0.36124980,0.00019311,-0.00070965,0.0
 0024755,0.00175148,-0.00130254,0.00053010,-0.00022540,0.00034999,-0.00
 003616,-0.00026706,-0.00019339,-0.00025471,-0.00047118,-0.00118438,0.0
 0561694,-0.00370309,-0.01856217,-0.00524295,-0.08688192,-0.11122382,0.
 00757744,0.00585864,0.00896335,-0.00044545,0.00329709,0.00046897,0.002
 41668,-0.00047674,0.00054509,-0.00004072,0.00006305,-0.00022310,-0.000
 00395,0.00017117,0.00040924,-0.00012560,0.00002428,0.00001008,-0.00000
 288,-0.00010753,-0.00013376,-0.00006345,0.00002701,-0.00006130,-0.0000
 4656,-0.00008199,0.00009443,0.00006839,0.00009647,0.00005809,-0.000067
 57,-0.00010774,0.00007241,0.00015062,0.00112780,-0.00141806,-0.0002092
 5,-0.00221407,0.00143300,-0.00071599,0.08320435,-0.00043615,-0.0002005
 0,-0.00007508,0.00088280,0.00027942,0.00025975,-0.00009127,0.00013346,
 -0.00006028,-0.00034285,-0.00003696,-0.00017971,-0.00094419,-0.0001292
 6,0.00004562,0.00109110,-0.00517579,-0.00535132,-0.11336931,-0.3463884
 7,-0.02462787,-0.00876996,-0.01053887,0.00653042,-0.00050110,-0.000962
 74,-0.00304048,-0.00003679,0.00018007,0.00003145,0.00006629,-0.0000345
 3,0.00010369,-0.00006826,0.00010585,-0.00008885,0.00002071,0.00000004,
 -0.00001217,-0.00009111,-0.00000555,-0.00001340,0.00002260,0.00000303,
 0.00003664,-0.00007229,0.00008387,0.00009062,0.00001319,-0.00000391,0.
 00002547,-0.00004196,0.00006187,0.00003165,-0.00070291,0.00003249,-0.0
 0039392,0.00061582,-0.00024826,0.00111959,0.12199984,0.36341280,0.0003
 0040,-0.00034786,0.00015130,-0.00012789,0.00004985,0.00023954,0.000026
 97,0.00007782,-0.00008386,-0.00016105,0.00008532,-0.00012727,0.0052199
 3,0.00219209,-0.00341212,0.00464642,0.02416682,0.00834822,0.00995620,-
 0.02471124,-0.06288053,-0.01277166,-0.02321223,0.00637007,0.00335956,-
 0.00481440,-0.00308442,-0.00030123,0.00031398,0.00013727,0.00009913,-0
 .00029975,-0.00000944,0.00013664,0.00016836,-0.00001603,-0.00000554,0.
 00001106,0.00004546,-0.00000073,-0.00006662,0.00000533,0.00004747,-0.0
 0001548,-0.00003877,-0.00004553,-0.00000426,0.00003466,0.00001580,0.00
 001204,-0.00002669,0.00002062,-0.00004336,0.00005163,0.00094126,0.0006
 3835,0.00106407,-0.00200330,-0.00035088,-0.00022598,-0.00769715,0.0255
 6039,0.05321604,-0.00004328,0.00033681,-0.00016974,0.00126004,-0.00006
 951,-0.00113710,0.00006478,-0.00003367,-0.00001893,0.00036434,-0.00001
 093,-0.00000328,0.00308021,-0.00552395,0.00230267,0.00547710,0.0001577
 6,0.00312886,0.00247792,-0.00318263,0.00320056,-0.16221442,-0.03692292
 ,0.15081352,-0.00209418,0.00176713,0.01251573,-0.00002612,0.00001074,0
 .00006869,-0.00042001,-0.00029300,0.00023293,0.00003819,0.00005985,-0.
 00011479,0.00007303,0.00000717,-0.00002734,-0.00003186,0.00003642,0.00
 006237,0.00001715,0.00001422,0.00004915,0.00003900,-0.00010842,-0.0000
 4990,0.00007549,-0.00000946,-0.00002604,0.00000990,-0.00003913,0.00002
 315,-0.00023918,0.00050301,0.00108488,-0.00028619,-0.00062416,0.000342
 41,-0.00238354,0.00160396,-0.00146806,0.15686146,-0.00006445,-0.000019
 20,0.00014104,-0.00031528,-0.00092527,0.00017577,-0.00024714,0.0000975
 4,-0.00001210,-0.00009574,-0.00000392,-0.00003600,-0.00571638,-0.00441
 216,0.00176575,0.00000538,-0.00320107,-0.00639156,0.01422703,0.0127516
 4,-0.01722325,-0.03726240,-0.08293334,0.03836537,-0.01453671,0.0071405
 7,0.02384351,0.00001605,0.00000972,-0.00007084,0.00007045,0.00010374,0
 .00002037,-0.00001978,0.00001002,0.00005767,0.00001535,0.00003419,-0.0
 0003716,-0.00009462,-0.00002999,-0.00005377,0.00002027,0.00001343,0.00
 002741,-0.00000601,0.00004414,0.00003073,-0.00001945,-0.00002365,0.000
 01848,-0.00001103,0.00005569,-0.00000275,-0.00070400,0.00042034,0.0010
 4334,0.00080167,0.00112662,-0.00077318,0.00051635,-0.00011492,0.001811
 33,0.04179770,0.06977990,0.00037163,0.00006579,-0.00015487,-0.00019494
 ,0.00005722,-0.00098225,0.00018926,-0.00019192,0.00003392,0.00049666,-
 0.00006953,0.00018187,0.00203738,-0.00208244,0.00151878,0.00419498,-0.
 00271753,-0.00154491,0.01284699,0.01134288,-0.00759853,0.15098406,0.03
 809850,-0.26523694,0.00000575,-0.00379824,0.00219629,0.00001918,-0.000
 01869,-0.00002551,-0.00000425,0.00003314,0.00005348,0.00006693,-0.0000
 2384,0.00004994,0.00001236,-0.00001295,-0.00000002,0.00009747,0.000048
 60,0.00006038,-0.00002055,0.00001753,0.00000532,0.00014902,-0.00012576
 ,-0.00007225,-0.00000868,-0.00001098,0.00004776,-0.00002365,0.00000353
 ,-0.00000283,0.00019522,0.00017679,0.00045816,0.00063634,0.00017822,-0
 .00023847,-0.00203042,-0.00000185,-0.00070786,-0.16882681,-0.04238906,
 0.27281097,-0.00029346,-0.00013307,0.00009131,0.00176113,0.00014833,0.
 00102153,0.00019469,0.00039763,0.00043455,-0.00025482,-0.00000889,-0.0
 0027642,0.00243553,0.01678668,0.00811289,-0.00025486,-0.00202677,0.005
 56738,0.00150685,-0.00399597,0.00172740,0.00477744,-0.01166556,-0.0124
 2662,-0.04934036,-0.00110240,0.01977900,0.00006895,-0.00006732,-0.0000
 9927,0.00009484,0.00032960,-0.00008393,-0.00000049,0.00009164,-0.00010
 089,0.00007693,0.00004691,-0.00010233,0.00000298,-0.00015258,-0.000213
 86,-0.00042218,-0.00021068,-0.00021333,-0.00007443,0.00011316,0.000077
 12,0.00005742,-0.00000631,-0.00003535,-0.00001180,0.00002760,0.0000409
 6,-0.00247227,0.00027761,-0.00157242,0.00158659,0.00081443,0.00059629,
 0.00110582,-0.00084815,-0.00018828,-0.00209982,0.00162277,-0.00119395,
 0.04155534,0.00038205,0.00007677,-0.00022589,-0.00106384,0.00050361,-0
 .00038290,0.00030792,-0.00052580,-0.00024495,0.00025038,0.00005927,0.0
 0023066,-0.00098518,0.00434286,0.00381671,-0.00211188,0.00106811,0.000
 85265,-0.00389563,-0.00372731,0.00077305,0.00698385,-0.01220491,-0.019
 01295,-0.00136949,-0.28705569,-0.15277916,-0.00010616,0.00008735,0.000
 08778,-0.00018806,-0.00023570,-0.00002353,0.00006548,-0.00006458,0.000
 07894,-0.00004063,0.00002405,0.00008550,0.00009842,0.00017613,0.000139
 00,0.00028663,0.00019972,0.00016503,0.00008896,-0.00009029,-0.00009337
 ,-0.00002419,0.00001032,-0.00000864,-0.00003140,-0.00000871,-0.0000039
 1,0.00151050,-0.00016675,-0.00044146,-0.00033341,0.00024710,-0.0002077
 3,0.00009134,-0.00045313,-0.00122131,0.00052301,0.00007599,0.00142060,
 -0.00043866,0.29766160,0.00019954,-0.00002891,0.00016594,-0.00073718,0
 .00003898,0.00001759,0.00010633,-0.00004931,-0.00001786,0.00015013,0.0
 0000857,0.00003407,-0.00499853,-0.02582338,-0.00694805,0.00441973,-0.0
 0062502,-0.00421358,0.00340324,0.00216926,0.00107321,-0.00146807,0.010
 11304,0.00902438,0.02201236,-0.15228809,-0.15965083,0.00007156,-0.0000
 5087,-0.00006745,0.00009584,0.00009409,-0.00003643,0.00005082,-0.00008
 144,0.00005973,0.00005484,0.00006544,-0.00008340,0.00003845,0.00003540
 ,-0.00003138,-0.00006269,-0.00013386,0.00010657,0.00007380,-0.00001187
 ,-0.00000796,-0.00002602,-0.00001704,-0.00001825,0.00002402,0.00006502
 ,0.00000876,-0.00157155,0.00126215,-0.00029911,0.00071302,-0.00143656,
 0.00039219,0.00037508,0.00000964,0.00094937,-0.00198294,-0.00031110,-0
 .00085242,-0.02094179,0.16699588,0.16039491\\0.00000373,-0.00000018,0.
 00000683,-0.00001595,-0.00000403,-0.00000208,-0.00000141,0.00000126,-0
 .00000146,-0.00000163,-0.00001059,-0.00000414,0.00000350,0.00004197,-0
 .00000537,0.00000574,-0.00000199,0.00000833,-0.00001792,-0.00000448,0.
 00001079,-0.00000490,-0.00003034,-0.00001345,0.00001313,0.00000905,-0.
 00000640,-0.00000106,0.00000222,0.00000100,0.00000179,0.00000043,0.000
 00170,0.00000060,-0.00000148,-0.00000034,-0.00000006,-0.00000015,-0.00
 000042,-0.00000101,0.00000010,0.00000076,-0.00000061,0.00000014,-0.000
 00121,-0.00000083,-0.00000168,-0.00000024,-0.00000255,0.00000003,-0.00
 000035,0.00001294,0.00000381,-0.00000728,0.00000678,0.00000370,0.00000
 147,-0.00000032,-0.00000454,0.00000964,0.00000152,-0.00000171,0.000002
 68,-0.00000163,-0.00000080,-0.00000136,0.00000013,-0.00000073,0.000000
 89\\\@


      HUMANKIND PERIODICALLY GOES THROUGH A SPEEDUP OF ITS AFFAIRS, 
      THEREBY EXPERIENCING THE RACE BETWEEN THE RENEWABLE VITALITY
      OF THE LIVING, AND THE BECKONING VITIATION OF DECADENCE.
      IN THIS PERIODIC RACE, ANY PAUSE BECOMES A LUXURY.
      ONLY THEN CAN ONE REFLECT THAT ALL IS PERMITTED;
      ALL IS POSSIBLE.

                              -- THE APOCRYPHA OF MUAD'DIB
                                 CHILDREN OF DUNE, BY FRANK HERBERT
 Job cpu time:       0 days  0 hours  0 minutes 41.4 seconds.
 File lengths (MBytes):  RWF=     44 Int=      0 D2E=      0 Chk=      3 Scr=      1
 Normal termination of Gaussian 09 at Thu May  7 11:25:45 2020.
