
                                 *****************
                                 * O   R   C   A *
                                 *****************

           --- An Ab Initio, DFT and Semiempirical electronic structure package ---

                  #######################################################
                  #                        -***-                        #
                  #          Department of theory and spectroscopy      #
                  #               Directorship: Frank Neese             #
                  #        Max Planck Institute fuer Kohlenforschung    #
                  #                Kaiser Wilhelm Platz 1               #
                  #                 D-45470 Muelheim/Ruhr               #
                  #                      Germany                        #
                  #                                                     #
                  #                  All rights reserved                #
                  #                        -***-                        #
                  #######################################################


                         Program Version 4.1.1  - RELEASE  -


 With contributions from (in alphabetic order):
   Daniel Aravena         : Magnetic Properties
   Michael Atanasov       : Ab Initio Ligand Field Theory
   Alexander A. Auer      : GIAO ZORA
   Ute Becker             : Parallelization
   Giovanni Bistoni       : ED, Open-shell LED
   Martin Brehm           : Molecular dynamics
   Dmytro Bykov           : SCF Hessian
   Vijay G. Chilkuri      : MRCI spin determinant printing
   Dipayan Datta          : RHF DLPNO-CCSD density
   Achintya Kumar Dutta   : EOM-CC, STEOM-CC
   Dmitry Ganyushin       : Spin-Orbit,Spin-Spin,Magnetic field MRCI
   Miquel Garcia          : C-PCM Hessian
   Yang Guo               : DLPNO-NEVPT2, CIM, IAO-localization
   Andreas Hansen         : Spin unrestricted coupled pair/coupled cluster methods
   Benjamin Helmich-Paris : CASSCF linear response (MC-RPA)
   Lee Huntington         : MR-EOM, pCC
   Robert Izsak           : Overlap fitted RIJCOSX, COSX-SCS-MP3, EOM
   Christian Kollmar      : KDIIS, OOCD, Brueckner-CCSD(T), CCSD density
   Simone Kossmann        : Meta GGA functionals, TD-DFT gradient, OOMP2, MP2 Hessian
   Martin Krupicka        : AUTO-CI
   Lucas Lang             : DCDCAS
   Dagmar Lenk            : GEPOL surface, SMD
   Dimitrios Liakos       : Extrapolation schemes; parallel MDCI
   Dimitrios Manganas     : ROCIS; embedding schemes
   Dimitrios Pantazis     : SARC Basis sets
   Taras Petrenko         : DFT Hessian,TD-DFT gradient, ASA, ECA, R-Raman, ABS, FL, XAS/XES, NRVS
   Peter Pinski           : DLPNO-MP2, DLPNO-MP2 Gradient
   Christoph Reimann      : Effective Core Potentials
   Marius Retegan         : Local ZFS, SOC
   Christoph Riplinger    : Optimizer, TS searches, QM/MM, DLPNO-CCSD(T), (RO)-DLPNO pert. Triples
   Tobias Risthaus        : Range-separated hybrids, TD-DFT gradient, RPA, STAB
   Michael Roemelt        : Restricted open shell CIS
   Masaaki Saitow         : Open-shell DLPNO
   Barbara Sandhoefer     : DKH picture change effects
   Avijit Sen             : IP-ROCIS
   Kantharuban Sivalingam : CASSCF convergence, NEVPT2, FIC-MRCI
   Bernardo de Souza      : ESD, SOC TD-DFT
   Georgi Stoychev        : AutoAux, RI-MP2 NMR
   Willem Van den Heuvel  : Paramagnetic NMR
   Boris Wezisla          : Elementary symmetry handling
   Frank Wennmohs         : Technical directorship


 We gratefully acknowledge several colleagues who have allowed us to
 interface, adapt or use parts of their codes:
   Stefan Grimme, W. Hujo, H. Kruse,             : VdW corrections, initial TS optimization,
                  C. Bannwarth                     DFT functionals, gCP, sTDA/sTD-DF
   Ed Valeev                                     : LibInt (2-el integral package), F12 methods
   Garnet Chan, S. Sharma, J. Yang, R. Olivares  : DMRG
   Ulf Ekstrom                                   : XCFun DFT Library
   Mihaly Kallay                                 : mrcc  (arbitrary order and MRCC methods)
   Andreas Klamt, Michael Diedenhofen            : otool_cosmo (COSMO solvation model)
   Jiri Pittner, Ondrej Demel                    : Mk-CCSD
   Frank Weinhold                                : gennbo (NPA and NBO analysis)
   Christopher J. Cramer and Donald G. Truhlar   : smd solvation model
   Lars Goerigk                                  : TD-DFT with DH, B97 family of functionals
   V. Asgeirsson, H. Jonsson                     : NEB implementation
   FAccTs GmbH                                   : IRC, NEB, NEB-TS, Multilevel


 Your calculation uses the libint2 library for the computation of 2-el integrals
 For citations please refer to: http://libint.valeyev.net

 This ORCA versions uses:
   CBLAS   interface :  Fast vector & matrix operations
   LAPACKE interface :  Fast linear algebra routines
   SCALAPACK package :  Parallel linear algebra routines


Your calculation utilizes the atom-pairwise dispersion correction
with the Becke-Johnson damping scheme (D3BJ)
Cite in your paper:
S.Grimme, S.Ehrlich, L.Goerigk, J Comput Chem, (2011), 32, 1456–1465 
S.Grimme, J.Antony, S.Ehrlich and H.Krieg, J.Chem.Phys., 132, (2010), 154104 
   

----- Orbital basis set information -----
Your calculation utilizes the basis: def2-SVP
   F. Weigend and R. Ahlrichs, Phys. Chem. Chem. Phys. 7, 3297 (2005).

----- AuxJ basis set information -----
Your calculation utilizes the auxiliary basis: def2/J
   F. Weigend, Phys. Chem. Chem. Phys. 8, 1057 (2006).

================================================================================
                                        WARNINGS
                       Please study these warnings very carefully!
================================================================================


WARNING: your system is open-shell and RHF/RKS was chosen
  ===> : WILL SWITCH to UHF/UKS


WARNING: Geometry Optimization
  ===> : Switching off AutoStart
         For restart on a previous wavefunction, please use MOREAD

INFO   : the flag for use of LIBINT has been found!

================================================================================
                                       INPUT FILE
================================================================================
NAME = h3_subst_scan1_orca.inp
|  1> ! LooseOpt PBE RI D3BJ def2-SVP def2/J
|  2> %geom Constraints
|  3> { B 1 2 0.925 C }
|  4>     end
|  5> end
|  6> %geom MaxIter 100 end
|  7> %pal nprocs 8
|  8> end
|  9> %scf 
| 10> maxiter 250 
| 11> end
| 12> % maxcore 1000
| 13> *xyz 0 2
| 14> H  -0.14178600 -0.00000000  0.00000000 
| 15> H   0.77089300  0.00000000 -0.00000000 
| 16> H   1.77089300 -0.00000000  0.00000000 
| 17> *
| 18> 
| 19>                          ****END OF INPUT****
================================================================================

                       *****************************
                       * Geometry Optimization Run *
                       *****************************

Geometry optimization settings:
Update method            Update   .... BFGS
Choice of coordinates    CoordSys .... Z-matrix Internals
Initial Hessian          InHess   .... Almoef's Model

Convergence Tolerances:
Energy Change            TolE     ....  3.0000e-05 Eh
Max. Gradient            TolMAXG  ....  2.0000e-03 Eh/bohr
RMS Gradient             TolRMSG  ....  5.0000e-04 Eh/bohr
Max. Displacement        TolMAXD  ....  1.0000e-02 bohr
RMS Displacement         TolRMSD  ....  7.0000e-03 bohr

------------------------------------------------------------------------------
                        ORCA OPTIMIZATION COORDINATE SETUP
------------------------------------------------------------------------------

The optimization will be done in new redundant internal coordinates
Making redundant internal coordinates   ...  (new redundants) done
Evaluating the initial hessian          ...  (Almloef) done
Evaluating the coordinates              ...  done
Calculating the B-matrix                .... done
Calculating the G-matrix                .... done
Diagonalizing the G-matrix              .... done
Imposing constraints:
 Iter   0:  RMS(Cart)=    0.0385738742 RMS(Int)=    0.0000000000
 Iter   1:  RMS(Cart)=    0.0000000000 RMS(Int)=    0.0000000000
CONVERGED
The first mode is                       ....    0
The number of degrees of freedom        ....    4
Storing new coordinates                 .... done

    -----------------------------------------------------------------
                    Redundant Internal Coordinates


    -----------------------------------------------------------------
         Definition                    Initial Value    Approx d2E/dq
    -----------------------------------------------------------------
      1. B(H   1,H   0)                  0.9127         0.132246   
      2. B(H   2,H   1)                  0.9250         0.095955 C 
      3. L(H   0,H   1,H   2, 1)       180.0000         0.165260   
      4. L(H   0,H   1,H   2, 2)       180.0000         0.165260   
    -----------------------------------------------------------------

Number of atoms                         .... 3
Number of degrees of freedom            .... 4

         *************************************************************
         *                GEOMETRY OPTIMIZATION CYCLE   1            *
         *************************************************************
---------------------------------
CARTESIAN COORDINATES (ANGSTROEM)
---------------------------------
  H     -0.116786    0.000000    0.000000
  H      0.795893    0.000000    0.000000
  H      1.720893    0.000000    0.000000

----------------------------
CARTESIAN COORDINATES (A.U.)
----------------------------
  NO LB      ZA    FRAG     MASS         X           Y           Z
   0 H     1.0000    0     1.008   -0.220694    0.000000    0.000000
   1 H     1.0000    0     1.008    1.504020    0.000000    0.000000
   2 H     1.0000    0     1.008    3.252016    0.000000    0.000000

--------------------------------
INTERNAL COORDINATES (ANGSTROEM)
--------------------------------
 H      0   0   0     0.000000000000     0.00000000     0.00000000
 H      1   0   0     0.912679000000     0.00000000     0.00000000
 H      2   1   0     1.000000000000   180.00000000     0.00000000

---------------------------
INTERNAL COORDINATES (A.U.)
---------------------------
 H      0   0   0     0.000000000000     0.00000000     0.00000000
 H      1   0   0     1.724713358181     0.00000000     0.00000000
 H      2   1   0     1.889726133921   180.00000000     0.00000000

---------------------
BASIS SET INFORMATION
---------------------
There are 1 groups of distinct atoms

 Group   1 Type H   : 4s1p contracted to 2s1p pattern {31/1}

Atom   0H    basis set group =>   1
Atom   1H    basis set group =>   1
Atom   2H    basis set group =>   1
-------------------------------
AUXILIARY BASIS SET INFORMATION
-------------------------------
There are 1 groups of distinct atoms

 Group   1 Type H   : 5s2p1d contracted to 3s1p1d pattern {311/2/1}

Atom   0H    basis set group =>   1
Atom   1H    basis set group =>   1
Atom   2H    basis set group =>   1


           ************************************************************
           *        Program running with 8 parallel MPI-processes     *
           *              working on a common directory               *
           ************************************************************
------------------------------------------------------------------------------
                           ORCA GTO INTEGRAL CALCULATION
                           -- RI-GTO INTEGRALS CHOSEN --
------------------------------------------------------------------------------

                         BASIS SET STATISTICS AND STARTUP INFO

Gaussian basis set:
 # of primitive gaussian shells          ...   15
 # of primitive gaussian functions       ...   21
 # of contracted shells                  ...    9
 # of contracted basis functions         ...   15
 Highest angular momentum                ...    1
 Maximum contraction depth               ...    3
Auxiliary gaussian basis set:
 # of primitive gaussian shells          ...   24
 # of primitive gaussian functions       ...   48
 # of contracted shells                  ...   15
 # of contracted aux-basis functions     ...   33
 Highest angular momentum                ...    2
 Maximum contraction depth               ...    3
Ratio of auxiliary to basis functions    ...  2.20
Integral package used                  ... LIBINT
 One Electron integrals                  ... done
 Ordering auxiliary basis shells         ... done
 Integral threshhold             Thresh  ...  2.500e-11
 Primitive cut-off               TCut    ...  2.500e-12
 Pre-screening matrix                    ... done
 Shell pair data                         ... 
 Ordering of the shell pairs             ... done (   0.000 sec) 45 of 45 pairs
 Determination of significant pairs      ... done (   0.000 sec)
 Creation of shell pair data             ... done (   0.000 sec)
 Storage of shell pair data              ... done (   0.001 sec)
 Shell pair data done in (   0.001 sec)
 Computing two index integrals           ... done
 Cholesky decomposition of the V-matrix  ... done


Timings:
 Total evaluation time                   ...   0.169 sec (  0.003 min)
 One electron matrix time                ...   0.012 sec (  0.000 min) =  7.3%
 Schwartz matrix evaluation time         ...   0.146 sec (  0.002 min) = 86.3%
 Two index repulsion integral time       ...   0.000 sec (  0.000 min) =  0.2%
 Cholesky decomposition of V             ...   0.001 sec (  0.000 min) =  0.4%
 Three index repulsion integral time     ...   0.000 sec (  0.000 min) =  0.0%



           ************************************************************
           *        Program running with 8 parallel MPI-processes     *
           *              working on a common directory               *
           ************************************************************
-------------------------------------------------------------------------------
                                 ORCA SCF
-------------------------------------------------------------------------------

------------
SCF SETTINGS
------------
Hamiltonian:
 Density Functional     Method          .... DFT(GTOs)
 Exchange Functional    Exchange        .... PBE
   PBE kappa parameter   XKappa         ....  0.804000
   PBE mue parameter    XMuePBE         ....  0.219520
 Correlation Functional Correlation     .... PBE
   PBE beta parameter  CBetaPBE         ....  0.066725
 LDA part of GGA corr.  LDAOpt          .... PW91-LDA
 Gradients option       PostSCFGGA      .... off
   Density functional embedding theory  .... OFF
   NL short-range parameter             ....  6.400000
 RI-approximation to the Coulomb term is turned on
   Number of auxiliary basis functions  .... 33


General Settings:
 Integral files         IntName         .... h3_subst_scan1_orca
 Hartree-Fock type      HFTyp           .... UHF
 Total Charge           Charge          ....    0
 Multiplicity           Mult            ....    2
 Number of Electrons    NEL             ....    3
 Basis Dimension        Dim             ....   15
 Nuclear Repulsion      ENuc            ....      1.4398495057 Eh

Convergence Acceleration:
 DIIS                   CNVDIIS         .... on
   Start iteration      DIISMaxIt       ....    12
   Startup error        DIISStart       ....  0.200000
   # of expansion vecs  DIISMaxEq       ....     5
   Bias factor          DIISBfac        ....   1.050
   Max. coefficient     DIISMaxC        ....  10.000
 Newton-Raphson         CNVNR           .... off
 SOSCF                  CNVSOSCF        .... off
 Level Shifting         CNVShift        .... on
   Level shift para.    LevelShift      ....    0.2500
   Turn off err/grad.   ShiftErr        ....    0.0010
 Zerner damping         CNVZerner       .... off
 Static damping         CNVDamp         .... on
   Fraction old density DampFac         ....    0.7000
   Max. Damping (<1)    DampMax         ....    0.9800
   Min. Damping (>=0)   DampMin         ....    0.0000
   Turn off err/grad.   DampErr         ....    0.1000
 Fernandez-Rico         CNVRico         .... off

SCF Procedure:
 Maximum # iterations   MaxIter         ....   250
 SCF integral mode      SCFMode         .... Direct
   Integral package                     .... LIBINT
 Reset frequency        DirectResetFreq ....    20
 Integral Threshold     Thresh          ....  2.500e-11 Eh
 Primitive CutOff       TCut            ....  2.500e-12 Eh

Convergence Tolerance:
 Convergence Check Mode ConvCheckMode   .... Total+1el-Energy
 Convergence forced     ConvForced      .... 0
 Energy Change          TolE            ....  1.000e-08 Eh
 1-El. energy change                    ....  1.000e-05 Eh
 DIIS Error             TolErr          ....  5.000e-07


Diagonalization of the overlap matrix:
Smallest eigenvalue                        ... 2.645e-02
Time for diagonalization                   ...    0.001 sec
Threshold for overlap eigenvalues          ... 1.000e-08
Number of eigenvalues below threshold      ... 0
Time for construction of square roots      ...    0.001 sec
Total time needed                          ...    0.001 sec

-------------------
DFT GRID GENERATION
-------------------

General Integration Accuracy     IntAcc      ...  4.340
Radial Grid Type                 RadialGrid  ... Gauss-Chebyshev
Angular Grid (max. acc.)         AngularGrid ... Lebedev-110
Angular grid pruning method      GridPruning ... 3 (G Style)
Weight generation scheme         WeightScheme... Becke
Basis function cutoff            BFCut       ...    1.0000e-11
Integration weight cutoff        WCut        ...    1.0000e-14
Grids for H and He will be reduced by one unit

# of grid points (after initial pruning)     ...   2382 (   0.0 sec)
# of grid points (after weights+screening)   ...   2336 (   0.0 sec)
nearest neighbour list constructed           ...    0.0 sec
Grid point re-assignment to atoms done       ...    0.0 sec
Grid point division into batches done        ...    0.0 sec
Reduced shell lists constructed in    0.0 sec

Total number of grid points                  ...     2336
Total number of batches                      ...       39
Average number of points per batch           ...       59
Average number of grid points per atom       ...      779
Average number of shells per batch           ...     7.33 (81.48%)
Average number of basis functions per batch  ...    12.00 (80.00%)
Average number of large shells per batch     ...     7.00 (95.45%)
Average number of large basis fcns per batch ...    11.33 (94.44%)
Maximum spatial batch extension              ...  12.23, 21.59, 21.59 au
Average spatial batch extension              ...   1.12,  2.11,  2.36 au

Time for grid setup =    0.009 sec

------------------------------
INITIAL GUESS: MODEL POTENTIAL
------------------------------
Loading Hartree-Fock densities                     ... done
Calculating cut-offs                               ... done
Setting up the integral package                    ... done
Initializing the effective Hamiltonian             ... done
Starting the Coulomb interaction                   ... done (   0.0 sec)
Reading the grid                                   ... done
Mapping shells                                     ... done
Starting the XC term evaluation                    ... done (   0.0 sec)
  promolecular density results
     # of electrons  =      2.992346974
     EX              =     -0.837472530
     EC              =     -0.065794375
     EX+EC           =     -0.903266905
Transforming the Hamiltonian                       ... done (   0.0 sec)
Diagonalizing the Hamiltonian                      ... done (   0.0 sec)
Back transforming the eigenvectors                 ... done (   0.0 sec)
Now organizing SCF variables                       ... done
                      ------------------
                      INITIAL GUESS DONE (   0.1 sec)
                      ------------------
--------------
SCF ITERATIONS
--------------
ITER       Energy         Delta-E        Max-DP      RMS-DP      [F,P]     Damp
               ***  Starting incremental Fock matrix formation  ***
  0     -1.6499850128   0.000000000000 0.01146371  0.00088702  0.0366554 0.7000
  1     -1.6510616605  -0.001076647774 0.00995111  0.00086159  0.0249170 0.7000
                               ***Turning on DIIS***
  2     -1.6518260797  -0.000764419175 0.02372355  0.00220683  0.0148864 0.0000
  3     -1.6535391962  -0.001713116468 0.00564299  0.00043631  0.0068711 0.0000
  4     -1.6536394450  -0.000100248858 0.00292037  0.00028686  0.0019342 0.0000
  5     -1.6536641219  -0.000024676886 0.00196154  0.00020148  0.0005559 0.0000
  6     -1.6536688258  -0.000004703857 0.00017457  0.00002036  0.0000483 0.0000
  7     -1.6536688938  -0.000000068064 0.00002506  0.00000327  0.0000248 0.0000
                 **** Energy Check signals convergence ****

               *****************************************************
               *                     SUCCESS                       *
               *           SCF CONVERGED AFTER   8 CYCLES          *
               *****************************************************

Setting up the final grid:

General Integration Accuracy     IntAcc      ...  4.670
Radial Grid Type                 RadialGrid  ... Gauss-Chebyshev
Angular Grid (max. acc.)         AngularGrid ... Lebedev-302
Angular grid pruning method      GridPruning ... 3 (G Style)
Weight generation scheme         WeightScheme... Becke
Basis function cutoff            BFCut       ...    1.0000e-11
Integration weight cutoff        WCut        ...    1.0000e-14
Grids for H and He will be reduced by one unit

# of grid points (after initial pruning)     ...  10182 (   0.0 sec)
# of grid points (after weights+screening)   ...  10064 (   0.0 sec)
nearest neighbour list constructed           ...    0.0 sec
Grid point re-assignment to atoms done       ...    0.0 sec
Grid point division into batches done        ...    0.0 sec
Reduced shell lists constructed in    0.0 sec

Total number of grid points                  ...    10064
Total number of batches                      ...      159
Average number of points per batch           ...       63
Average number of grid points per atom       ...     3355
Average number of shells per batch           ...     6.14 (68.25%)
Average number of basis functions per batch  ...     9.19 (61.27%)
Average number of large shells per batch     ...     5.43 (88.37%)
Average number of large basis fcns per batch ...     8.00 (87.05%)
Maximum spatial batch extension              ...  12.49, 15.43, 15.43 au
Average spatial batch extension              ...   0.92,  1.09,  1.03 au

Final grid set up in    0.0 sec
Final integration                            ... done (   0.0 sec)
Change in XC energy                          ...    -0.000819862
Integrated number of electrons               ...     3.000000443
Previous integrated no of electrons          ...     2.994521551

----------------
TOTAL SCF ENERGY
----------------

Total Energy       :           -1.65448876 Eh             -45.02093 eV

Components:
Nuclear Repulsion  :            1.43984951 Eh              39.18030 eV
Electronic Energy  :           -3.09433826 Eh             -84.20122 eV
One Electron Energy:           -4.39421670 Eh            -119.57272 eV
Two Electron Energy:            1.29987844 Eh              35.37149 eV

Virial components:
Potential Energy   :           -3.25859782 Eh             -88.67095 eV
Kinetic Energy     :            1.60410906 Eh              43.65003 eV
Virial Ratio       :            2.03140665


DFT components:
N(Alpha)           :        2.000000481223 electrons
N(Beta)            :        0.999999962254 electrons
N(Total)           :        3.000000443477 electrons
E(X)               :       -0.937261586869 Eh       
E(C)               :       -0.063397783225 Eh       
E(XC)              :       -1.000659370093 Eh       
DFET-embed. en.    :        0.000000000000 Eh       

---------------
SCF CONVERGENCE
---------------

  Last Energy change         ...   -1.0582e-09  Tolerance :   1.0000e-08
  Last MAX-Density change    ...    1.4309e-05  Tolerance :   1.0000e-07
  Last RMS-Density change    ...    1.5136e-06  Tolerance :   5.0000e-09
  Last DIIS Error            ...    7.5489e-06  Tolerance :   5.0000e-07

             **** THE GBW FILE WAS UPDATED (h3_subst_scan1_orca.gbw) ****
             **** DENSITY FILE WAS UPDATED (h3_subst_scan1_orca.scfp.tmp) ****
             **** ENERGY FILE WAS UPDATED (h3_subst_scan1_orca.en.tmp) ****
----------------------
UHF SPIN CONTAMINATION
----------------------

Warning: in a DFT calculation there is little theoretical justification to 
         calculate <S**2> as in Hartree-Fock theory. We will do it anyways
         but you should keep in mind that the values have only limited relevance

Expectation value of <S**2>     :     0.756526
Ideal value S*(S+1) for S=0.5   :     0.750000
Deviation                       :     0.006526

----------------
ORBITAL ENERGIES
----------------
                 SPIN UP ORBITALS
  NO   OCC          E(Eh)            E(eV) 
   0   1.0000      -0.453831       -12.3494 
   1   1.0000      -0.213160        -5.8004 
   2   0.0000       0.090750         2.4694 
   3   0.0000       0.385147        10.4804 
   4   0.0000       0.388373        10.5682 
   5   0.0000       0.653699        17.7881 
   6   0.0000       0.989640        26.9295 
   7   0.0000       0.989640        26.9295 
   8   0.0000       1.311789        35.6956 
   9   0.0000       1.311789        35.6956 
  10   0.0000       1.477425        40.2028 
  11   0.0000       1.954360        53.1808 
  12   0.0000       1.954360        53.1808 
  13   0.0000       2.367298        64.4174 
  14   0.0000       3.513137        95.5973 

                 SPIN DOWN ORBITALS
  NO   OCC          E(Eh)            E(eV) 
   0   1.0000      -0.412394       -11.2218 
   1   0.0000      -0.120139        -3.2692 
   2   0.0000       0.137378         3.7383 
   3   0.0000       0.417916        11.3721 
   4   0.0000       0.456539        12.4230 
   5   0.0000       0.713139        19.4055 
   6   0.0000       1.027766        27.9669 
   7   0.0000       1.027766        27.9669 
   8   0.0000       1.412579        38.4382 
   9   0.0000       1.412579        38.4382 
  10   0.0000       1.565462        42.5984 
  11   0.0000       2.007117        54.6164 
  12   0.0000       2.007117        54.6164 
  13   0.0000       2.451432        66.7069 
  14   0.0000       3.572086        97.2014 

                    ********************************
                    * MULLIKEN POPULATION ANALYSIS *
                    ********************************

--------------------------------------------
MULLIKEN ATOMIC CHARGES AND SPIN POPULATIONS
--------------------------------------------
   0 H :    0.004755    0.560173
   1 H :   -0.007922   -0.139391
   2 H :    0.003167    0.579218
Sum of atomic charges         :    0.0000000
Sum of atomic spin populations:    1.0000000

-----------------------------------------------------
MULLIKEN REDUCED ORBITAL CHARGES AND SPIN POPULATIONS
-----------------------------------------------------
CHARGE
  0 H s       :     0.986290  s :     0.986290
      pz      :     0.000000  p :     0.008955
      px      :     0.008955
      py      :     0.000000
  1 H s       :     0.990630  s :     0.990630
      pz      :    -0.000000  p :     0.017292
      px      :     0.017292
      py      :    -0.000000
  2 H s       :     0.988032  s :     0.988032
      pz      :     0.000000  p :     0.008801
      px      :     0.008801
      py      :     0.000000

SPIN
  0 H s       :     0.561421  s :     0.561421
      pz      :     0.000000  p :    -0.001248
      px      :    -0.001248
      py      :    -0.000000
  1 H s       :    -0.156682  s :    -0.156682
      pz      :    -0.000000  p :     0.017292
      px      :     0.017292
      py      :     0.000000
  2 H s       :     0.580352  s :     0.580352
      pz      :     0.000000  p :    -0.001134
      px      :    -0.001134
      py      :     0.000000


                     *******************************
                     * LOEWDIN POPULATION ANALYSIS *
                     *******************************

-------------------------------------------
LOEWDIN ATOMIC CHARGES AND SPIN POPULATIONS
-------------------------------------------
   0 H :    0.003721    0.467954
   1 H :   -0.006730    0.045675
   2 H :    0.003009    0.486371

----------------------------------------------------
LOEWDIN REDUCED ORBITAL CHARGES AND SPIN POPULATIONS
----------------------------------------------------
CHARGE
  0 H s       :     0.962803  s :     0.962803
      pz      :     0.000000  p :     0.033475
      px      :     0.033475
      py      :     0.000000
  1 H s       :     0.900608  s :     0.900608
      pz      :     0.000000  p :     0.106123
      px      :     0.106123
      py      :     0.000000
  2 H s       :     0.963751  s :     0.963751
      pz      :     0.000000  p :     0.033240
      px      :     0.033240
      py      :     0.000000

SPIN
  0 H s       :     0.467749  s :     0.467749
      pz      :     0.000000  p :     0.000204
      px      :     0.000204
      py      :    -0.000000
  1 H s       :    -0.060439  s :    -0.060439
      pz      :     0.000000  p :     0.106114
      px      :     0.106114
      py      :     0.000000
  2 H s       :     0.485884  s :     0.485884
      pz      :     0.000000  p :     0.000487
      px      :     0.000487
      py      :     0.000000


                      *****************************
                      * MAYER POPULATION ANALYSIS *
                      *****************************

  NA   - Mulliken gross atomic population
  ZA   - Total nuclear charge
  QA   - Mulliken gross atomic charge
  VA   - Mayer's total valence
  BVA  - Mayer's bonded valence
  FA   - Mayer's free valence

  ATOM       NA         ZA         QA         VA         BVA        FA
  0 H      0.9952     1.0000     0.0048     0.9471     0.6307     0.3164
  1 H      1.0079     1.0000    -0.0079     1.0326     1.0093     0.0233
  2 H      0.9968     1.0000     0.0032     0.9471     0.6088     0.3384

  Mayer bond orders larger than 0.1
B(  0-H ,  1-H ) :   0.5156 B(  0-H ,  2-H ) :   0.1151 B(  1-H ,  2-H ) :   0.4937 


-------
TIMINGS
-------

Total SCF time: 0 days 0 hours 0 min 1 sec 

Total time                  ....       1.216 sec
Sum of individual times     ....       1.106 sec  ( 90.9%)

Fock matrix formation       ....       0.953 sec  ( 78.3%)
  Split-RI-J                ....       0.875 sec  ( 91.8% of F)
  XC integration            ....       0.070 sec  (  7.4% of F)
    Basis function eval.    ....       0.004 sec  (  5.3% of XC)
    Density eval.           ....       0.003 sec  (  3.9% of XC)
    XC-Functional eval.     ....       0.004 sec  (  5.3% of XC)
    XC-Potential eval.      ....       0.001 sec  (  1.8% of XC)
Diagonalization             ....       0.001 sec  (  0.1%)
Density matrix formation    ....       0.000 sec  (  0.0%)
Population analysis         ....       0.002 sec  (  0.2%)
Initial guess               ....       0.114 sec  (  9.3%)
Orbital Transformation      ....       0.000 sec  (  0.0%)
Orbital Orthonormalization  ....       0.000 sec  (  0.0%)
DIIS solution               ....       0.001 sec  (  0.1%)
Grid generation             ....       0.035 sec  (  2.9%)


-------------------------------------------------------------------------------
                          DFT DISPERSION CORRECTION                            
                                                                               
                              DFTD3 V3.1  Rev 1                                
                          USING Becke-Johnson damping                          
-------------------------------------------------------------------------------
The PBE functional is recognized
Active option DFTDOPT                   ...         4   

molecular C6(AA) [au] = 53.766974 


            DFT-D V3
 parameters
 s6 scaling factor         :     1.0000 
 a1 scaling factor         :     0.4289 
 s8 scaling factor         :     0.7875 
 a2 scaling factor         :     4.4407 
 ad hoc parameters k1-k3   :    16.0000     1.3333    -4.0000 

 Edisp/kcal,au: -0.322815796316  -0.000514439662 
 E6   /kcal   :  -0.253548457 
 E8   /kcal   :  -0.069267339 
 % E8         :  21.457233457 

-------------------------   ----------------
Dispersion correction           -0.000514440
-------------------------   ----------------


-------------------------   --------------------
FINAL SINGLE POINT ENERGY        -1.655003196381
-------------------------   --------------------



           ************************************************************
           *        Program running with 8 parallel MPI-processes     *
           *              working on a common directory               *
           ************************************************************
------------------------------------------------------------------------------
                         ORCA SCF GRADIENT CALCULATION
------------------------------------------------------------------------------

Gradient of the Kohn-Sham DFT energy:
Kohn-Sham wavefunction type      ... UKS
Hartree-Fock exchange scaling    ...    0.000
Number of operators              ...    2
Number of atoms                  ...    3
Basis set dimensions             ...   15
Integral neglect threshold       ... 2.5e-11
Integral primitive cutoff        ... 2.5e-12

Nuclear repulsion gradient       ... done
One Electron Gradient            ... done
Pre-screening matrix             ... done
RI-J gradient                    ... done
Exchange-correlation gradient    ... done
Dispersion correction            ... done

------------------
CARTESIAN GRADIENT
------------------

   1   H   :    0.011254536    0.000000000    0.000000000
   2   H   :   -0.000727524   -0.000000000   -0.000000000
   3   H   :   -0.010527012   -0.000000000    0.000000000

Difference to translation invariance:
           :   -0.0000000000    0.0000000000    0.0000000000

Norm of the cartesian gradient     ...    0.0154276324
RMS gradient                       ...    0.0051425441
MAX gradient                       ...    0.0112545357

-------
TIMINGS
-------

Total SCF gradient time            ...        0.311 sec

One electron gradient       ....       0.002 sec  (  0.5%)
Prescreening matrices       ....       0.000 sec  (  0.0%)
RI-J Coulomb gradient       ....       0.085 sec  ( 27.4%)
XC gradient                 ....       0.008 sec  (  2.5%)
------------------------------------------------------------------------------
                         ORCA GEOMETRY RELAXATION STEP
------------------------------------------------------------------------------

Reading the OPT-File                    .... done
Getting information on internals        .... done
Copying old internal coords+grads       .... done
Making the new internal coordinates     .... (new redundants).... done
Validating the new internal coordinates .... (new redundants).... done
Calculating the B-matrix                .... done
Calculating the G,G- and P matrices     .... done
Transforming gradient to internals      .... done
Projecting the internal gradient        .... done
Number of atoms                         ....   3
Number of internal coordinates          ....   4
Current Energy                          ....    -1.655003196 Eh
Current gradient norm                   ....     0.015427632 Eh/bohr
Maximum allowed component of the step   ....  0.300
Current trust radius                    ....  0.300
Evaluating the initial hessian          ....  (Almloef) done
Projecting the Hessian                  .... done
Forming the augmented Hessian           .... done
Diagonalizing the augmented Hessian     .... done
Last element of RFO vector              ....  0.996449240
Lowest eigenvalues of augmented Hessian:
 -0.000950960  0.133196543  0.170166561  0.170166561
Length of the computed step             ....  0.084495704
The final length of the internal step   ....  0.084495704
Converting the step to cartesian space:
 Initial RMS(Int)=    0.0422478521
Transforming coordinates:
 Iter   0:  RMS(Cart)=    0.0229968179 RMS(Int)=    0.0422478521
 Iter   1:  RMS(Cart)=    0.0000000000 RMS(Int)=    0.0000000000
Imposing constraints:
 Iter   0:  RMS(Cart)=    0.0000000000 RMS(Int)=    0.0000000000
CONVERGED
done
Storing new coordinates                 .... done

                                .--------------------.
          ----------------------|Geometry convergence|-------------------------
          Item                value                   Tolerance       Converged
          ---------------------------------------------------------------------
          RMS gradient        0.0056272678            0.0005000000      NO
          MAX gradient        0.0112545357            0.0020000000      NO
          RMS step            0.0422478521            0.0070000000      NO
          MAX step            0.0844957042            0.0100000000      NO
          ........................................................
          Max(Bonds)      0.0447      Max(Angles)    0.00
          Max(Dihed)        0.00      Max(Improp)    0.00
          ---------------------------------------------------------------------

The optimization has not yet converged - more geometry cycles are needed


    ---------------------------------------------------------------------------
                         Redundant Internal Coordinates
                            (Angstroem and degrees)

        Definition                    Value    dE/dq     Step     New-Value
    ----------------------------------------------------------------------------
     1. B(H   1,H   0)                0.9127 -0.011255  0.0447    0.9574   
     2. B(H   2,H   1)                0.9250 -0.010527  0.0000    0.9250 C 
     3. L(H   0,H   1,H   2, 1)       180.00  0.000000   -0.00    180.00   
     4. L(H   0,H   1,H   2, 2)       180.00 -0.000000    0.00    180.00   
    ----------------------------------------------------------------------------

         *************************************************************
         *                GEOMETRY OPTIMIZATION CYCLE   2            *
         *************************************************************
---------------------------------
CARTESIAN COORDINATES (ANGSTROEM)
---------------------------------
  H     -0.146595   -0.000000   -0.000000
  H      0.810797    0.000000    0.000000
  H      1.735797   -0.000000   -0.000000

----------------------------
CARTESIAN COORDINATES (A.U.)
----------------------------
  NO LB      ZA    FRAG     MASS         X           Y           Z
   0 H     1.0000    0     1.008   -0.277024   -0.000000   -0.000000
   1 H     1.0000    0     1.008    1.532185    0.000000    0.000000
   2 H     1.0000    0     1.008    3.280182   -0.000000   -0.000000

--------------------------------
INTERNAL COORDINATES (ANGSTROEM)
--------------------------------
 H      0   0   0     0.000000000000     0.00000000     0.00000000
 H      1   0   0     0.957392200873     0.00000000     0.00000000
 H      2   1   0     0.924999997948   179.99999829     0.00000000

---------------------------
INTERNAL COORDINATES (A.U.)
---------------------------
 H      0   0   0     0.000000000000     0.00000000     0.00000000
 H      1   0   0     1.809209062403     0.00000000     0.00000000
 H      2   1   0     1.747996670000   179.99999829     0.00000000



           ************************************************************
           *        Program running with 8 parallel MPI-processes     *
           *              working on a common directory               *
           ************************************************************
 One Electron integrals                  ... done
 Pre-screening matrix                    ... done


           ************************************************************
           *        Program running with 8 parallel MPI-processes     *
           *              working on a common directory               *
           ************************************************************

Diagonalization of the overlap matrix:
Smallest eigenvalue                        ... 2.849e-02
Time for diagonalization                   ...    0.000 sec
Threshold for overlap eigenvalues          ... 1.000e-08
Number of eigenvalues below threshold      ... 0
Time for construction of square roots      ...    0.000 sec
Total time needed                          ...    0.001 sec

-------------------
DFT GRID GENERATION
-------------------

General Integration Accuracy     IntAcc      ...  4.340
Radial Grid Type                 RadialGrid  ... Gauss-Chebyshev
Angular Grid (max. acc.)         AngularGrid ... Lebedev-110
Angular grid pruning method      GridPruning ... 3 (G Style)
Weight generation scheme         WeightScheme... Becke
Basis function cutoff            BFCut       ...    1.0000e-11
Integration weight cutoff        WCut        ...    1.0000e-14
Grids for H and He will be reduced by one unit

# of grid points (after initial pruning)     ...   2382 (   0.0 sec)
# of grid points (after weights+screening)   ...   2338 (   0.0 sec)
nearest neighbour list constructed           ...    0.0 sec
Grid point re-assignment to atoms done       ...    0.0 sec
Grid point division into batches done        ...    0.0 sec
Reduced shell lists constructed in    0.0 sec

Total number of grid points                  ...     2338
Total number of batches                      ...       39
Average number of points per batch           ...       59
Average number of grid points per atom       ...      779
Average number of shells per batch           ...     7.33 (81.48%)
Average number of basis functions per batch  ...    12.00 (80.00%)
Average number of large shells per batch     ...     7.00 (95.45%)
Average number of large basis fcns per batch ...    11.33 (94.44%)
Maximum spatial batch extension              ...  12.23, 21.59, 21.59 au
Average spatial batch extension              ...   1.12,  2.11,  2.36 au

Time for grid setup =    0.006 sec

--------------
SCF ITERATIONS
--------------
ITER       Energy         Delta-E        Max-DP      RMS-DP      [F,P]     Damp
               ***  Starting incremental Fock matrix formation  ***
  0     -1.6539944404   0.000000000000 0.00226886  0.00021732  0.0091933 0.7000
  1     -1.6540648807  -0.000070440338 0.00219877  0.00022429  0.0072968 0.7000
                               ***Turning on DIIS***
  2     -1.6541213722  -0.000056491482 0.00670355  0.00068175  0.0054661 0.0000
  3     -1.6542610360  -0.000139663770 0.00210673  0.00023860  0.0013587 0.0000
  4     -1.6542688404  -0.000007804488 0.00220909  0.00023543  0.0007181 0.0000
  5     -1.6542718159  -0.000002975437 0.00045128  0.00005517  0.0002634 0.0000
  6     -1.6542719808  -0.000000164896 0.00004686  0.00000724  0.0000619 0.0000
                 **** Energy Check signals convergence ****

               *****************************************************
               *                     SUCCESS                       *
               *           SCF CONVERGED AFTER   7 CYCLES          *
               *****************************************************

Setting up the final grid:

General Integration Accuracy     IntAcc      ...  4.670
Radial Grid Type                 RadialGrid  ... Gauss-Chebyshev
Angular Grid (max. acc.)         AngularGrid ... Lebedev-302
Angular grid pruning method      GridPruning ... 3 (G Style)
Weight generation scheme         WeightScheme... Becke
Basis function cutoff            BFCut       ...    1.0000e-11
Integration weight cutoff        WCut        ...    1.0000e-14
Grids for H and He will be reduced by one unit

# of grid points (after initial pruning)     ...  10182 (   0.0 sec)
# of grid points (after weights+screening)   ...  10066 (   0.0 sec)
nearest neighbour list constructed           ...    0.0 sec
Grid point re-assignment to atoms done       ...    0.0 sec
Grid point division into batches done        ...    0.0 sec
Reduced shell lists constructed in    0.0 sec

Total number of grid points                  ...    10066
Total number of batches                      ...      158
Average number of points per batch           ...       63
Average number of grid points per atom       ...     3355
Average number of shells per batch           ...     6.05 (67.20%)
Average number of basis functions per batch  ...     8.90 (59.37%)
Average number of large shells per batch     ...     5.24 (86.61%)
Average number of large basis fcns per batch ...     7.43 (83.42%)
Maximum spatial batch extension              ...  11.63, 15.43, 15.43 au
Average spatial batch extension              ...   0.92,  1.08,  1.02 au

Final grid set up in    0.0 sec
Final integration                            ... done (   0.0 sec)
Change in XC energy                          ...    -0.000786435
Integrated number of electrons               ...     3.000000705
Previous integrated no of electrons          ...     2.994398758
Total Energy       :           -1.65505843 Eh             -45.03643 eV
  Last Energy change         ...   -9.5702e-09  Tolerance :   1.0000e-08
  Last MAX-Density change    ...    6.4808e-06  Tolerance :   1.0000e-07
             **** THE GBW FILE WAS UPDATED (h3_subst_scan1_orca.gbw) ****
             **** DENSITY FILE WAS UPDATED (h3_subst_scan1_orca.scfp.tmp) ****
             **** ENERGY FILE WAS UPDATED (h3_subst_scan1_orca.en.tmp) ****
----------------------
UHF SPIN CONTAMINATION
----------------------

Warning: in a DFT calculation there is little theoretical justification to 
         calculate <S**2> as in Hartree-Fock theory. We will do it anyways
         but you should keep in mind that the values have only limited relevance

Expectation value of <S**2>     :     0.757088
Ideal value S*(S+1) for S=0.5   :     0.750000
Deviation                       :     0.007088

Total SCF time: 0 days 0 hours 0 min 1 sec 


-------------------------------------------------------------------------------
                          DFT DISPERSION CORRECTION                            
                                                                               
                              DFTD3 V3.1  Rev 1                                
                          USING Becke-Johnson damping                          
-------------------------------------------------------------------------------
-------------------------   ----------------
Dispersion correction           -0.000558560
-------------------------   ----------------


-------------------------   --------------------
FINAL SINGLE POINT ENERGY        -1.655616985199
-------------------------   --------------------



           ************************************************************
           *        Program running with 8 parallel MPI-processes     *
           *              working on a common directory               *
           ************************************************************
------------------------------------------------------------------------------
                         ORCA SCF GRADIENT CALCULATION
------------------------------------------------------------------------------

Gradient of the Kohn-Sham DFT energy:
Kohn-Sham wavefunction type      ... UKS
Hartree-Fock exchange scaling    ...    0.000
Number of operators              ...    2
Number of atoms                  ...    3
Basis set dimensions             ...   15
Integral neglect threshold       ... 2.5e-11
Integral primitive cutoff        ... 2.5e-12

Nuclear repulsion gradient       ... done
One Electron Gradient            ... done
Pre-screening matrix             ... done
RI-J gradient                    ... done
Exchange-correlation gradient    ... done
Dispersion correction            ... done

------------------
CARTESIAN GRADIENT
------------------

   1   H   :    0.002942489    0.000000000   -0.000000000
   2   H   :    0.000784247   -0.000000000   -0.000000000
   3   H   :   -0.003726736    0.000000000    0.000000000

Difference to translation invariance:
           :   -0.0000000000   -0.0000000000    0.0000000000

Norm of the cartesian gradient     ...    0.0048126753
RMS gradient                       ...    0.0016042251
MAX gradient                       ...    0.0037267359

-------
TIMINGS
-------

Total SCF gradient time            ...        0.337 sec

One electron gradient       ....       0.000 sec  (  0.0%)
Prescreening matrices       ....       0.000 sec  (  0.0%)
RI-J Coulomb gradient       ....       0.085 sec  ( 25.3%)
XC gradient                 ....       0.012 sec  (  3.6%)
------------------------------------------------------------------------------
                         ORCA GEOMETRY RELAXATION STEP
------------------------------------------------------------------------------

Reading the OPT-File                    .... done
Getting information on internals        .... done
Copying old internal coords+grads       .... done
Making the new internal coordinates     .... (new redundants).... done
Validating the new internal coordinates .... (new redundants).... done
Calculating the B-matrix                .... done
Calculating the G,G- and P matrices     .... done
Transforming gradient to internals      .... done
Projecting the internal gradient        .... done
Number of atoms                         ....   3
Number of internal coordinates          ....   4
Current Energy                          ....    -1.655616985 Eh
Current gradient norm                   ....     0.004812675 Eh/bohr
Maximum allowed component of the step   ....  0.300
Current trust radius                    ....  0.300
Updating the Hessian (BFGS)             .... done
Forming the augmented Hessian           .... done
Diagonalizing the augmented Hessian     .... done
Last element of RFO vector              ....  0.999553742
Lowest eigenvalues of augmented Hessian:
 -0.000087936  0.098460357  0.170166561  0.170166561
Length of the computed step             ....  0.029885010
The final length of the internal step   ....  0.029885010
Converting the step to cartesian space:
 Initial RMS(Int)=    0.0149425048
Transforming coordinates:
 Iter   0:  RMS(Cart)=    0.0081336694 RMS(Int)=    0.0149425048
 Iter   1:  RMS(Cart)=    0.0000000049 RMS(Int)=    0.0000000044
Imposing constraints:
 Iter   0:  RMS(Cart)=    0.0000000000 RMS(Int)=    0.0000000000
CONVERGED
done
Storing new coordinates                 .... done

                                .--------------------.
          ----------------------|Geometry convergence|-------------------------
          Item                value                   Tolerance       Converged
          ---------------------------------------------------------------------
          Energy change      -0.0006137888            0.0000300000      NO
          RMS gradient        0.0014712444            0.0005000000      NO
          MAX gradient        0.0029424887            0.0020000000      NO
          RMS step            0.0149425048            0.0070000000      NO
          MAX step            0.0298850097            0.0100000000      NO
          ........................................................
          Max(Bonds)      0.0158      Max(Angles)    0.00
          Max(Dihed)        0.00      Max(Improp)    0.00
          ---------------------------------------------------------------------

The optimization has not yet converged - more geometry cycles are needed


    ---------------------------------------------------------------------------
                         Redundant Internal Coordinates
                            (Angstroem and degrees)

        Definition                    Value    dE/dq     Step     New-Value
    ----------------------------------------------------------------------------
     1. B(H   1,H   0)                0.9574 -0.002942  0.0158    0.9732   
     2. B(H   2,H   1)                0.9250 -0.003727  0.0000    0.9250 C 
     3. L(H   0,H   1,H   2, 1)       180.00  0.000000   -0.00    180.00   
     4. L(H   0,H   1,H   2, 2)       180.00 -0.000000    0.00    180.00   
    ----------------------------------------------------------------------------

         *************************************************************
         *                GEOMETRY OPTIMIZATION CYCLE   3            *
         *************************************************************
---------------------------------
CARTESIAN COORDINATES (ANGSTROEM)
---------------------------------
  H     -0.157138   -0.000000   -0.000000
  H      0.816069    0.000000    0.000000
  H      1.741069   -0.000000   -0.000000

----------------------------
CARTESIAN COORDINATES (A.U.)
----------------------------
  NO LB      ZA    FRAG     MASS         X           Y           Z
   0 H     1.0000    0     1.008   -0.296947   -0.000000   -0.000000
   1 H     1.0000    0     1.008    1.542147    0.000000    0.000000
   2 H     1.0000    0     1.008    3.290143   -0.000000   -0.000000

--------------------------------
INTERNAL COORDINATES (ANGSTROEM)
--------------------------------
 H      0   0   0     0.000000000000     0.00000000     0.00000000
 H      1   0   0     0.973206666856     0.00000000     0.00000000
 H      2   1   0     0.924999997948   179.99999915     0.00000000

---------------------------
INTERNAL COORDINATES (A.U.)
---------------------------
 H      0   0   0     0.000000000000     0.00000000     0.00000000
 H      1   0   0     1.839094072064     0.00000000     0.00000000
 H      2   1   0     1.747996670000   179.99999915     0.00000000



           ************************************************************
           *        Program running with 8 parallel MPI-processes     *
           *              working on a common directory               *
           ************************************************************
 One Electron integrals                  ... done
 Pre-screening matrix                    ... done


           ************************************************************
           *        Program running with 8 parallel MPI-processes     *
           *              working on a common directory               *
           ************************************************************

Diagonalization of the overlap matrix:
Smallest eigenvalue                        ... 2.922e-02
Time for diagonalization                   ...    0.000 sec
Threshold for overlap eigenvalues          ... 1.000e-08
Number of eigenvalues below threshold      ... 0
Time for construction of square roots      ...    0.000 sec
Total time needed                          ...    0.001 sec

-------------------
DFT GRID GENERATION
-------------------

General Integration Accuracy     IntAcc      ...  4.340
Radial Grid Type                 RadialGrid  ... Gauss-Chebyshev
Angular Grid (max. acc.)         AngularGrid ... Lebedev-110
Angular grid pruning method      GridPruning ... 3 (G Style)
Weight generation scheme         WeightScheme... Becke
Basis function cutoff            BFCut       ...    1.0000e-11
Integration weight cutoff        WCut        ...    1.0000e-14
Grids for H and He will be reduced by one unit

# of grid points (after initial pruning)     ...   2382 (   0.0 sec)
# of grid points (after weights+screening)   ...   2338 (   0.0 sec)
nearest neighbour list constructed           ...    0.0 sec
Grid point re-assignment to atoms done       ...    0.0 sec
Grid point division into batches done        ...    0.0 sec
Reduced shell lists constructed in    0.0 sec

Total number of grid points                  ...     2338
Total number of batches                      ...       39
Average number of points per batch           ...       59
Average number of grid points per atom       ...      779
Average number of shells per batch           ...     7.33 (81.48%)
Average number of basis functions per batch  ...    12.00 (80.00%)
Average number of large shells per batch     ...     7.00 (95.45%)
Average number of large basis fcns per batch ...    11.33 (94.44%)
Maximum spatial batch extension              ...  12.23, 21.59, 21.59 au
Average spatial batch extension              ...   1.12,  2.11,  2.36 au

Time for grid setup =    0.006 sec

--------------
SCF ITERATIONS
--------------
ITER       Energy         Delta-E        Max-DP      RMS-DP      [F,P]     Damp
               ***  Starting incremental Fock matrix formation  ***
  0     -1.6543152273   0.000000000000 0.00079323  0.00007393  0.0031417 0.7000
  1     -1.6543235657  -0.000008338393 0.00076950  0.00007693  0.0025223 0.7000
                               ***Turning on DIIS***
  2     -1.6543303148  -0.000006749127 0.00226595  0.00023490  0.0018973 0.0000
  3     -1.6543471767  -0.000016861847 0.00149728  0.00015788  0.0004636 0.0000
  4     -1.6543483576  -0.000001180907 0.00021655  0.00002388  0.0002185 0.0000
  5     -1.6543485357  -0.000000178150 0.00016934  0.00002064  0.0001205 0.0000
  6     -1.6543485645  -0.000000028794 0.00001231  0.00000174  0.0000222 0.0000
                 **** Energy Check signals convergence ****

               *****************************************************
               *                     SUCCESS                       *
               *           SCF CONVERGED AFTER   7 CYCLES          *
               *****************************************************

Setting up the final grid:

General Integration Accuracy     IntAcc      ...  4.670
Radial Grid Type                 RadialGrid  ... Gauss-Chebyshev
Angular Grid (max. acc.)         AngularGrid ... Lebedev-302
Angular grid pruning method      GridPruning ... 3 (G Style)
Weight generation scheme         WeightScheme... Becke
Basis function cutoff            BFCut       ...    1.0000e-11
Integration weight cutoff        WCut        ...    1.0000e-14
Grids for H and He will be reduced by one unit

# of grid points (after initial pruning)     ...  10182 (   0.0 sec)
# of grid points (after weights+screening)   ...  10066 (   0.0 sec)
nearest neighbour list constructed           ...    0.0 sec
Grid point re-assignment to atoms done       ...    0.0 sec
Grid point division into batches done        ...    0.0 sec
Reduced shell lists constructed in    0.0 sec

Total number of grid points                  ...    10066
Total number of batches                      ...      158
Average number of points per batch           ...       63
Average number of grid points per atom       ...     3355
Average number of shells per batch           ...     6.05 (67.20%)
Average number of basis functions per batch  ...     8.90 (59.37%)
Average number of large shells per batch     ...     5.19 (85.83%)
Average number of large basis fcns per batch ...     7.29 (81.82%)
Maximum spatial batch extension              ...  11.63, 15.43, 15.43 au
Average spatial batch extension              ...   0.92,  1.08,  1.03 au

Final grid set up in    0.0 sec
Final integration                            ... done (   0.0 sec)
Change in XC energy                          ...    -0.000767230
Integrated number of electrons               ...     3.000000874
Previous integrated no of electrons          ...     2.994388396
Total Energy       :           -1.65511580 Eh             -45.03799 eV
  Last Energy change         ...   -9.7759e-10  Tolerance :   1.0000e-08
  Last MAX-Density change    ...    3.1261e-06  Tolerance :   1.0000e-07
             **** THE GBW FILE WAS UPDATED (h3_subst_scan1_orca.gbw) ****
             **** DENSITY FILE WAS UPDATED (h3_subst_scan1_orca.scfp.tmp) ****
             **** ENERGY FILE WAS UPDATED (h3_subst_scan1_orca.en.tmp) ****
----------------------
UHF SPIN CONTAMINATION
----------------------

Warning: in a DFT calculation there is little theoretical justification to 
         calculate <S**2> as in Hartree-Fock theory. We will do it anyways
         but you should keep in mind that the values have only limited relevance

Expectation value of <S**2>     :     0.757263
Ideal value S*(S+1) for S=0.5   :     0.750000
Deviation                       :     0.007263

Total SCF time: 0 days 0 hours 0 min 1 sec 


-------------------------------------------------------------------------------
                          DFT DISPERSION CORRECTION                            
                                                                               
                              DFTD3 V3.1  Rev 1                                
                          USING Becke-Johnson damping                          
-------------------------------------------------------------------------------
-------------------------   ----------------
Dispersion correction           -0.000567446
-------------------------   ----------------


-------------------------   --------------------
FINAL SINGLE POINT ENERGY        -1.655683242273
-------------------------   --------------------



           ************************************************************
           *        Program running with 8 parallel MPI-processes     *
           *              working on a common directory               *
           ************************************************************
------------------------------------------------------------------------------
                         ORCA SCF GRADIENT CALCULATION
------------------------------------------------------------------------------

Gradient of the Kohn-Sham DFT energy:
Kohn-Sham wavefunction type      ... UKS
Hartree-Fock exchange scaling    ...    0.000
Number of operators              ...    2
Number of atoms                  ...    3
Basis set dimensions             ...   15
Integral neglect threshold       ... 2.5e-11
Integral primitive cutoff        ... 2.5e-12

Nuclear repulsion gradient       ... done
One Electron Gradient            ... done
Pre-screening matrix             ... done
RI-J gradient                    ... done
Exchange-correlation gradient    ... done
Dispersion correction            ... done

------------------
CARTESIAN GRADIENT
------------------

   1   H   :    0.000708201   -0.000000000   -0.000000000
   2   H   :    0.000647633    0.000000000    0.000000000
   3   H   :   -0.001355834   -0.000000000   -0.000000000

Difference to translation invariance:
           :   -0.0000000000   -0.0000000000   -0.0000000000

Norm of the cartesian gradient     ...    0.0016611027
RMS gradient                       ...    0.0005537009
MAX gradient                       ...    0.0013558338

-------
TIMINGS
-------

Total SCF gradient time            ...        0.314 sec

One electron gradient       ....       0.002 sec  (  0.5%)
Prescreening matrices       ....       0.000 sec  (  0.0%)
RI-J Coulomb gradient       ....       0.085 sec  ( 27.1%)
XC gradient                 ....       0.007 sec  (  2.4%)
------------------------------------------------------------------------------
                         ORCA GEOMETRY RELAXATION STEP
------------------------------------------------------------------------------

Reading the OPT-File                    .... done
Getting information on internals        .... done
Copying old internal coords+grads       .... done
Making the new internal coordinates     .... (new redundants).... done
Validating the new internal coordinates .... (new redundants).... done
Calculating the B-matrix                .... done
Calculating the G,G- and P matrices     .... done
Transforming gradient to internals      .... done
Projecting the internal gradient        .... done
Number of atoms                         ....   3
Number of internal coordinates          ....   4
Current Energy                          ....    -1.655683242 Eh
Current gradient norm                   ....     0.001661103 Eh/bohr
Maximum allowed component of the step   ....  0.300
Current trust radius                    ....  0.300
Updating the Hessian (BFGS)             .... done
Forming the augmented Hessian           .... done
Diagonalizing the augmented Hessian     .... done
Last element of RFO vector              ....  0.999955146
Lowest eigenvalues of augmented Hessian:
 -0.000006708  0.074769527  0.170166561  0.170166561
Length of the computed step             ....  0.009471789
The final length of the internal step   ....  0.009471789
Converting the step to cartesian space:
 Initial RMS(Int)=    0.0047358944
Transforming coordinates:
 Iter   0:  RMS(Cart)=    0.0025778944 RMS(Int)=    0.0047358944
 Iter   1:  RMS(Cart)=    0.0000000021 RMS(Int)=    0.0000000000
Imposing constraints:
 Iter   0:  RMS(Cart)=    0.0000000000 RMS(Int)=    0.0000000000
CONVERGED
done
Storing new coordinates                 .... done

                                .--------------------.
          ----------------------|Geometry convergence|-------------------------
          Item                value                   Tolerance       Converged
          ---------------------------------------------------------------------
          Energy change      -0.0000662571            0.0000300000      NO
          RMS gradient        0.0003541006            0.0005000000      YES
          MAX gradient        0.0007082012            0.0020000000      YES
          RMS step            0.0047358944            0.0070000000      YES
          MAX step            0.0094717887            0.0100000000      YES
          ........................................................
          Max(Bonds)      0.0050      Max(Angles)    0.00
          Max(Dihed)        0.00      Max(Improp)    0.00
          ---------------------------------------------------------------------

       Everything but the energy has converged. However, the energy
       appears to be close enough to convergence to make sure that the
       final evaluation at the new geometry represents the equilibrium energy.
       Convergence will therefore be signaled now


                    ***********************HURRAY********************
                    ***        THE OPTIMIZATION HAS CONVERGED     ***
                    *************************************************


    ---------------------------------------------------------------------------
                         Redundant Internal Coordinates

                          --- Optimized Parameters ---  
                            (Angstroem and degrees)

        Definition                    OldVal   dE/dq     Step     FinalVal
    ----------------------------------------------------------------------------
     1. B(H   1,H   0)                0.9732 -0.000708  0.0050    0.9782   
     2. B(H   2,H   1)                0.9250 -0.001356 -0.0000    0.9250 C 
     3. L(H   0,H   1,H   2, 1)       180.00 -0.000000    0.00    180.00   
     4. L(H   0,H   1,H   2, 2)       180.00  0.000000   -0.00    180.00   
    ----------------------------------------------------------------------------
                 *******************************************************
                 *** FINAL ENERGY EVALUATION AT THE STATIONARY POINT ***
                 ***               (AFTER    3 CYCLES)               ***
                 *******************************************************
---------------------------------
CARTESIAN COORDINATES (ANGSTROEM)
---------------------------------
  H     -0.160479   -0.000000   -0.000000
  H      0.817740    0.000000    0.000000
  H      1.742740   -0.000000   -0.000000

----------------------------
CARTESIAN COORDINATES (A.U.)
----------------------------
  NO LB      ZA    FRAG     MASS         X           Y           Z
   0 H     1.0000    0     1.008   -0.303262   -0.000000   -0.000000
   1 H     1.0000    0     1.008    1.545304    0.000000    0.000000
   2 H     1.0000    0     1.008    3.293301   -0.000000   -0.000000

--------------------------------
INTERNAL COORDINATES (ANGSTROEM)
--------------------------------
 H      0   0   0     0.000000000000     0.00000000     0.00000000
 H      1   0   0     0.978218921558     0.00000000     0.00000000
 H      2   1   0     0.924999997948   179.99999809     0.00000000

---------------------------
INTERNAL COORDINATES (A.U.)
---------------------------
 H      0   0   0     0.000000000000     0.00000000     0.00000000
 H      1   0   0     1.848565860765     0.00000000     0.00000000
 H      2   1   0     1.747996670000   179.99999809     0.00000000

---------------------
BASIS SET INFORMATION
---------------------
There are 1 groups of distinct atoms

 Group   1 Type H   : 4s1p contracted to 2s1p pattern {31/1}

Atom   0H    basis set group =>   1
Atom   1H    basis set group =>   1
Atom   2H    basis set group =>   1
-------------------------------
AUXILIARY BASIS SET INFORMATION
-------------------------------
There are 1 groups of distinct atoms

 Group   1 Type H   : 5s2p1d contracted to 3s1p1d pattern {311/2/1}

Atom   0H    basis set group =>   1
Atom   1H    basis set group =>   1
Atom   2H    basis set group =>   1


           ************************************************************
           *        Program running with 8 parallel MPI-processes     *
           *              working on a common directory               *
           ************************************************************
------------------------------------------------------------------------------
                           ORCA GTO INTEGRAL CALCULATION
                           -- RI-GTO INTEGRALS CHOSEN --
------------------------------------------------------------------------------

                         BASIS SET STATISTICS AND STARTUP INFO

Gaussian basis set:
 # of primitive gaussian shells          ...   15
 # of primitive gaussian functions       ...   21
 # of contracted shells                  ...    9
 # of contracted basis functions         ...   15
 Highest angular momentum                ...    1
 Maximum contraction depth               ...    3
Auxiliary gaussian basis set:
 # of primitive gaussian shells          ...   24
 # of primitive gaussian functions       ...   48
 # of contracted shells                  ...   15
 # of contracted aux-basis functions     ...   33
 Highest angular momentum                ...    2
 Maximum contraction depth               ...    3
Ratio of auxiliary to basis functions    ...  2.20
Integral package used                  ... LIBINT
 One Electron integrals                  ... done
 Ordering auxiliary basis shells         ... done
 Integral threshhold             Thresh  ...  2.500e-11
 Primitive cut-off               TCut    ...  2.500e-12
 Pre-screening matrix                    ... done
 Shell pair data                         ... 
 Ordering of the shell pairs             ... done (   0.000 sec) 45 of 45 pairs
 Determination of significant pairs      ... done (   0.000 sec)
 Creation of shell pair data             ... done (   0.000 sec)
 Storage of shell pair data              ... done (   0.033 sec)
 Shell pair data done in (   0.033 sec)
 Computing two index integrals           ... done
 Cholesky decomposition of the V-matrix  ... done


Timings:
 Total evaluation time                   ...   0.164 sec (  0.003 min)
 One electron matrix time                ...   0.012 sec (  0.000 min) =  7.3%
 Schwartz matrix evaluation time         ...   0.107 sec (  0.002 min) = 65.2%
 Two index repulsion integral time       ...   0.000 sec (  0.000 min) =  0.1%
 Cholesky decomposition of V             ...   0.000 sec (  0.000 min) =  0.2%
 Three index repulsion integral time     ...   0.000 sec (  0.000 min) =  0.0%



           ************************************************************
           *        Program running with 8 parallel MPI-processes     *
           *              working on a common directory               *
           ************************************************************
-------------------------------------------------------------------------------
                                 ORCA SCF
-------------------------------------------------------------------------------

------------
SCF SETTINGS
------------
Hamiltonian:
 Density Functional     Method          .... DFT(GTOs)
 Exchange Functional    Exchange        .... PBE
   PBE kappa parameter   XKappa         ....  0.804000
   PBE mue parameter    XMuePBE         ....  0.219520
 Correlation Functional Correlation     .... PBE
   PBE beta parameter  CBetaPBE         ....  0.066725
 LDA part of GGA corr.  LDAOpt          .... PW91-LDA
 Gradients option       PostSCFGGA      .... off
   Density functional embedding theory  .... OFF
   NL short-range parameter             ....  6.400000
 RI-approximation to the Coulomb term is turned on
   Number of auxiliary basis functions  .... 33


General Settings:
 Integral files         IntName         .... h3_subst_scan1_orca
 Hartree-Fock type      HFTyp           .... UHF
 Total Charge           Charge          ....    0
 Multiplicity           Mult            ....    2
 Number of Electrons    NEL             ....    3
 Basis Dimension        Dim             ....   15
 Nuclear Repulsion      ENuc            ....      1.3910866361 Eh

Convergence Acceleration:
 DIIS                   CNVDIIS         .... on
   Start iteration      DIISMaxIt       ....    12
   Startup error        DIISStart       ....  0.200000
   # of expansion vecs  DIISMaxEq       ....     5
   Bias factor          DIISBfac        ....   1.050
   Max. coefficient     DIISMaxC        ....  10.000
 Newton-Raphson         CNVNR           .... off
 SOSCF                  CNVSOSCF        .... off
 Level Shifting         CNVShift        .... on
   Level shift para.    LevelShift      ....    0.2500
   Turn off err/grad.   ShiftErr        ....    0.0010
 Zerner damping         CNVZerner       .... off
 Static damping         CNVDamp         .... on
   Fraction old density DampFac         ....    0.7000
   Max. Damping (<1)    DampMax         ....    0.9800
   Min. Damping (>=0)   DampMin         ....    0.0000
   Turn off err/grad.   DampErr         ....    0.1000
 Fernandez-Rico         CNVRico         .... off

SCF Procedure:
 Maximum # iterations   MaxIter         ....   250
 SCF integral mode      SCFMode         .... Direct
   Integral package                     .... LIBINT
 Reset frequency        DirectResetFreq ....    20
 Integral Threshold     Thresh          ....  2.500e-11 Eh
 Primitive CutOff       TCut            ....  2.500e-12 Eh

Convergence Tolerance:
 Convergence Check Mode ConvCheckMode   .... Total+1el-Energy
 Convergence forced     ConvForced      .... 0
 Energy Change          TolE            ....  1.000e-08 Eh
 1-El. energy change                    ....  1.000e-05 Eh
 DIIS Error             TolErr          ....  5.000e-07


Diagonalization of the overlap matrix:
Smallest eigenvalue                        ... 2.944e-02
Time for diagonalization                   ...    0.000 sec
Threshold for overlap eigenvalues          ... 1.000e-08
Number of eigenvalues below threshold      ... 0
Time for construction of square roots      ...    0.001 sec
Total time needed                          ...    0.001 sec

---------------------
INITIAL GUESS: MOREAD
---------------------
Guess MOs are being read from file: h3_subst_scan1_orca.gbw
Input Geometry matches current geometry (good)
Input basis set matches current basis set (good)
MOs were renormalized
MOs were reorthogonalized (Cholesky)
                      ------------------
                      INITIAL GUESS DONE (   0.0 sec)
                      ------------------
-------------------
DFT GRID GENERATION
-------------------

General Integration Accuracy     IntAcc      ...  4.340
Radial Grid Type                 RadialGrid  ... Gauss-Chebyshev
Angular Grid (max. acc.)         AngularGrid ... Lebedev-110
Angular grid pruning method      GridPruning ... 3 (G Style)
Weight generation scheme         WeightScheme... Becke
Basis function cutoff            BFCut       ...    1.0000e-11
Integration weight cutoff        WCut        ...    1.0000e-14
Grids for H and He will be reduced by one unit

# of grid points (after initial pruning)     ...   2382 (   0.0 sec)
# of grid points (after weights+screening)   ...   2338 (   0.0 sec)
nearest neighbour list constructed           ...    0.0 sec
Grid point re-assignment to atoms done       ...    0.0 sec
Grid point division into batches done        ...    0.0 sec
Reduced shell lists constructed in    0.0 sec

Total number of grid points                  ...     2338
Total number of batches                      ...       39
Average number of points per batch           ...       59
Average number of grid points per atom       ...      779
Average number of shells per batch           ...     7.33 (81.48%)
Average number of basis functions per batch  ...    12.00 (80.00%)
Average number of large shells per batch     ...     7.00 (95.45%)
Average number of large basis fcns per batch ...    11.33 (94.44%)
Maximum spatial batch extension              ...  12.23, 21.59, 21.59 au
Average spatial batch extension              ...   1.12,  2.11,  2.36 au

Time for grid setup =    0.007 sec

--------------
SCF ITERATIONS
--------------
ITER       Energy         Delta-E        Max-DP      RMS-DP      [F,P]     Damp
               ***  Starting incremental Fock matrix formation  ***
  0     -1.6543574181   0.000000000000 0.00025043  0.00002314  0.0009882 0.7000
  1     -1.6543582418  -0.000000823710 0.00024301  0.00002413  0.0007942 0.7000
                               ***Turning on DIIS***
  2     -1.6543589105  -0.000000668647 0.00095774  0.00009313  0.0005981 0.0000
  3     -1.6543606408  -0.000001730344 0.00025201  0.00002949  0.0001628 0.0000
  4     -1.6543607097  -0.000000068893 0.00006308  0.00000686  0.0000640 0.0000
  5     -1.6543607246  -0.000000014892 0.00004632  0.00000566  0.0000337 0.0000
                 **** Energy Check signals convergence ****

               *****************************************************
               *                     SUCCESS                       *
               *           SCF CONVERGED AFTER   6 CYCLES          *
               *****************************************************

Setting up the final grid:

General Integration Accuracy     IntAcc      ...  4.670
Radial Grid Type                 RadialGrid  ... Gauss-Chebyshev
Angular Grid (max. acc.)         AngularGrid ... Lebedev-302
Angular grid pruning method      GridPruning ... 3 (G Style)
Weight generation scheme         WeightScheme... Becke
Basis function cutoff            BFCut       ...    1.0000e-11
Integration weight cutoff        WCut        ...    1.0000e-14
Grids for H and He will be reduced by one unit

# of grid points (after initial pruning)     ...  10182 (   0.0 sec)
# of grid points (after weights+screening)   ...  10066 (   0.0 sec)
nearest neighbour list constructed           ...    0.0 sec
Grid point re-assignment to atoms done       ...    0.0 sec
Grid point division into batches done        ...    0.0 sec
Reduced shell lists constructed in    0.0 sec

Total number of grid points                  ...    10066
Total number of batches                      ...      158
Average number of points per batch           ...       63
Average number of grid points per atom       ...     3355
Average number of shells per batch           ...     5.95 (66.14%)
Average number of basis functions per batch  ...     8.62 (57.46%)
Average number of large shells per batch     ...     5.19 (87.20%)
Average number of large basis fcns per batch ...     7.29 (84.53%)
Maximum spatial batch extension              ...  11.63, 15.43, 15.43 au
Average spatial batch extension              ...   0.92,  1.08,  1.03 au

Final grid set up in    0.0 sec
Final integration                            ... done (   0.0 sec)
Change in XC energy                          ...    -0.000760366
Integrated number of electrons               ...     3.000000932
Previous integrated no of electrons          ...     2.994388839

----------------
TOTAL SCF ENERGY
----------------

Total Energy       :           -1.65512109 Eh             -45.03813 eV

Components:
Nuclear Repulsion  :            1.39108664 Eh              37.85339 eV
Electronic Energy  :           -3.04620773 Eh             -82.89153 eV
One Electron Energy:           -4.32030634 Eh            -117.56151 eV
Two Electron Energy:            1.27409861 Eh              34.66999 eV

Virial components:
Potential Energy   :           -3.22999345 Eh             -87.89259 eV
Kinetic Energy     :            1.57487236 Eh              42.85446 eV
Virial Ratio       :            2.05095571


DFT components:
N(Alpha)           :        2.000000867167 electrons
N(Beta)            :        1.000000064971 electrons
N(Total)           :        3.000000932138 electrons
E(X)               :       -0.927278019840 Eh       
E(C)               :       -0.062691588471 Eh       
E(XC)              :       -0.989969608311 Eh       
DFET-embed. en.    :        0.000000000000 Eh       

---------------
SCF CONVERGENCE
---------------

  Last Energy change         ...   -2.3308e-09  Tolerance :   1.0000e-08
  Last MAX-Density change    ...    3.0598e-06  Tolerance :   1.0000e-07
  Last RMS-Density change    ...    4.9644e-07  Tolerance :   5.0000e-09
  Last DIIS Error            ...    5.2053e-06  Tolerance :   5.0000e-07

             **** THE GBW FILE WAS UPDATED (h3_subst_scan1_orca.gbw) ****
             **** DENSITY FILE WAS UPDATED (h3_subst_scan1_orca.scfp.tmp) ****
             **** ENERGY FILE WAS UPDATED (h3_subst_scan1_orca.en.tmp) ****
----------------------
UHF SPIN CONTAMINATION
----------------------

Warning: in a DFT calculation there is little theoretical justification to 
         calculate <S**2> as in Hartree-Fock theory. We will do it anyways
         but you should keep in mind that the values have only limited relevance

Expectation value of <S**2>     :     0.757315
Ideal value S*(S+1) for S=0.5   :     0.750000
Deviation                       :     0.007315

----------------
ORBITAL ENERGIES
----------------
                 SPIN UP ORBITALS
  NO   OCC          E(Eh)            E(eV) 
   0   1.0000      -0.443637       -12.0720 
   1   1.0000      -0.218171        -5.9367 
   2   0.0000       0.084520         2.2999 
   3   0.0000       0.384635        10.4664 
   4   0.0000       0.391012        10.6400 
   5   0.0000       0.634216        17.2579 
   6   0.0000       0.998255        27.1639 
   7   0.0000       0.998255        27.1639 
   8   0.0000       1.307261        35.5724 
   9   0.0000       1.307261        35.5724 
  10   0.0000       1.434391        39.0318 
  11   0.0000       1.915170        52.1144 
  12   0.0000       1.915170        52.1144 
  13   0.0000       2.273174        61.8562 
  14   0.0000       3.405063        92.6565 

                 SPIN DOWN ORBITALS
  NO   OCC          E(Eh)            E(eV) 
   0   1.0000      -0.402791       -10.9605 
   1   0.0000      -0.124697        -3.3932 
   2   0.0000       0.130540         3.5522 
   3   0.0000       0.419519        11.4157 
   4   0.0000       0.459749        12.5104 
   5   0.0000       0.688414        18.7327 
   6   0.0000       1.036156        28.1952 
   7   0.0000       1.036156        28.1952 
   8   0.0000       1.409811        38.3629 
   9   0.0000       1.409811        38.3629 
  10   0.0000       1.520580        41.3771 
  11   0.0000       1.966835        53.5203 
  12   0.0000       1.966835        53.5203 
  13   0.0000       2.357593        64.1534 
  14   0.0000       3.462319        94.2145 

                    ********************************
                    * MULLIKEN POPULATION ANALYSIS *
                    ********************************

--------------------------------------------
MULLIKEN ATOMIC CHARGES AND SPIN POPULATIONS
--------------------------------------------
   0 H :    0.004174    0.612671
   1 H :   -0.014186   -0.143540
   2 H :    0.010013    0.530869
Sum of atomic charges         :   -0.0000000
Sum of atomic spin populations:    1.0000000

-----------------------------------------------------
MULLIKEN REDUCED ORBITAL CHARGES AND SPIN POPULATIONS
-----------------------------------------------------
CHARGE
  0 H s       :     0.988084  s :     0.988084
      pz      :     0.000000  p :     0.007742
      px      :     0.007742
      py      :     0.000000
  1 H s       :     0.998475  s :     0.998475
      pz      :     0.000000  p :     0.015712
      px      :     0.015712
      py      :     0.000000
  2 H s       :     0.981619  s :     0.981619
      pz      :     0.000000  p :     0.008368
      px      :     0.008368
      py      :     0.000000

SPIN
  0 H s       :     0.613640  s :     0.613640
      pz      :     0.000000  p :    -0.000968
      px      :    -0.000968
      py      :     0.000000
  1 H s       :    -0.159251  s :    -0.159251
      pz      :    -0.000000  p :     0.015711
      px      :     0.015711
      py      :    -0.000000
  2 H s       :     0.532270  s :     0.532270
      pz      :     0.000000  p :    -0.001401
      px      :    -0.001401
      py      :     0.000000


                     *******************************
                     * LOEWDIN POPULATION ANALYSIS *
                     *******************************

-------------------------------------------
LOEWDIN ATOMIC CHARGES AND SPIN POPULATIONS
-------------------------------------------
   0 H :    0.002400    0.524717
   1 H :   -0.006903    0.030265
   2 H :    0.004504    0.445019

----------------------------------------------------
LOEWDIN REDUCED ORBITAL CHARGES AND SPIN POPULATIONS
----------------------------------------------------
CHARGE
  0 H s       :     0.968423  s :     0.968423
      pz      :     0.000000  p :     0.029177
      px      :     0.029177
      py      :     0.000000
  1 H s       :     0.910950  s :     0.910950
      pz      :     0.000000  p :     0.095954
      px      :     0.095954
      py      :     0.000000
  2 H s       :     0.965109  s :     0.965109
      pz      :     0.000000  p :     0.030388
      px      :     0.030388
      py      :     0.000000

SPIN
  0 H s       :     0.524831  s :     0.524831
      pz      :    -0.000000  p :    -0.000115
      px      :    -0.000115
      py      :    -0.000000
  1 H s       :    -0.065534  s :    -0.065534
      pz      :     0.000000  p :     0.095799
      px      :     0.095799
      py      :     0.000000
  2 H s       :     0.446219  s :     0.446219
      pz      :    -0.000000  p :    -0.001200
      px      :    -0.001200
      py      :    -0.000000


                      *****************************
                      * MAYER POPULATION ANALYSIS *
                      *****************************

  NA   - Mulliken gross atomic population
  ZA   - Total nuclear charge
  QA   - Mulliken gross atomic charge
  VA   - Mayer's total valence
  BVA  - Mayer's bonded valence
  FA   - Mayer's free valence

  ATOM       NA         ZA         QA         VA         BVA        FA
  0 H      0.9958     1.0000     0.0042     0.9502     0.5718     0.3784
  1 H      1.0142     1.0000    -0.0142     1.0293     1.0053     0.0240
  2 H      0.9900     1.0000     0.0100     0.9504     0.6667     0.2837

  Mayer bond orders larger than 0.1
B(  0-H ,  1-H ) :   0.4552 B(  0-H ,  2-H ) :   0.1166 B(  1-H ,  2-H ) :   0.5501 


-------
TIMINGS
-------

Total SCF time: 0 days 0 hours 0 min 1 sec 

Total time                  ....       1.002 sec
Sum of individual times     ....       0.894 sec  ( 89.3%)

Fock matrix formation       ....       0.848 sec  ( 84.7%)
  Split-RI-J                ....       0.667 sec  ( 78.7% of F)
  XC integration            ....       0.115 sec  ( 13.6% of F)
    Basis function eval.    ....       0.003 sec  (  2.4% of XC)
    Density eval.           ....       0.002 sec  (  2.1% of XC)
    XC-Functional eval.     ....       0.003 sec  (  2.8% of XC)
    XC-Potential eval.      ....       0.001 sec  (  1.0% of XC)
Diagonalization             ....       0.001 sec  (  0.1%)
Density matrix formation    ....       0.000 sec  (  0.0%)
Population analysis         ....       0.002 sec  (  0.2%)
Initial guess               ....       0.002 sec  (  0.2%)
Orbital Transformation      ....       0.000 sec  (  0.0%)
Orbital Orthonormalization  ....       0.000 sec  (  0.0%)
DIIS solution               ....       0.001 sec  (  0.1%)
Grid generation             ....       0.041 sec  (  4.1%)


-------------------------------------------------------------------------------
                          DFT DISPERSION CORRECTION                            
                                                                               
                              DFTD3 V3.1  Rev 1                                
                          USING Becke-Johnson damping                          
-------------------------------------------------------------------------------
The PBE functional is recognized
Active option DFTDOPT                   ...         4   

molecular C6(AA) [au] = 59.534427 


            DFT-D V3
 parameters
 s6 scaling factor         :     1.0000 
 a1 scaling factor         :     0.4289 
 s8 scaling factor         :     0.7875 
 a2 scaling factor         :     4.4407 
 ad hoc parameters k1-k3   :    16.0000     1.3333    -4.0000 

 Edisp/kcal,au: -0.357518735280  -0.000569742310 
 E6   /kcal   :  -0.280737806 
 E8   /kcal   :  -0.076780929 
 % E8         :  21.476057506 

-------------------------   ----------------
Dispersion correction           -0.000569742
-------------------------   ----------------


-------------------------   --------------------
FINAL SINGLE POINT ENERGY        -1.655690835140
-------------------------   --------------------

                                *** OPTIMIZATION RUN DONE ***

                            ***************************************
                            *     ORCA property calculations      *
                            ***************************************

                                    ---------------------
                                    Active property flags
                                    ---------------------
   (+) Dipole Moment


------------------------------------------------------------------------------
                       ORCA ELECTRIC PROPERTIES CALCULATION
------------------------------------------------------------------------------

Dipole Moment Calculation                       ... on
Quadrupole Moment Calculation                   ... off
Polarizability Calculation                      ... off
GBWName                                         ... h3_subst_scan1_orca.gbw
Electron density file                           ... h3_subst_scan1_orca.scfp.tmp
The origin for moment calculation is the CENTER OF MASS  = ( 1.511781, -0.000000 -0.000000)

-------------
DIPOLE MOMENT
-------------
                                X             Y             Z
Electronic contribution:      0.01259      -0.00000      -0.00000
Nuclear contribution   :      0.00000       0.00000       0.00000
                        -----------------------------------------
Total Dipole Moment    :      0.01259      -0.00000      -0.00000
                        -----------------------------------------
Magnitude (a.u.)       :      0.01259
Magnitude (Debye)      :      0.03201



--------------------
Rotational spectrum 
--------------------
 
Rotational constants in cm-1:     0.000000     9.231573     9.231573 
Rotational constants in MHz :     0.000000 276755.587135 276755.587135 

 Dipole components along the rotational axes: 
x,y,z [a.u.] :     0.012593     0.000000    -0.000000 
x,y,z [Debye]:     0.032009     0.000000    -0.000000 

 

Timings for individual modules:

Sum of individual times         ...       15.324 sec (=   0.255 min)
GTO integral calculation        ...        4.050 sec (=   0.067 min)  26.4 %
SCF iterations                  ...        7.643 sec (=   0.127 min)  49.9 %
SCF Gradient evaluation         ...        3.527 sec (=   0.059 min)  23.0 %
Geometry relaxation             ...        0.104 sec (=   0.002 min)   0.7 %
                             ****ORCA TERMINATED NORMALLY****
TOTAL RUN TIME: 0 days 0 hours 0 minutes 16 seconds 630 msec
