
                                 *****************
                                 * O   R   C   A *
                                 *****************

           --- An Ab Initio, DFT and Semiempirical electronic structure package ---

                  #######################################################
                  #                        -***-                        #
                  #          Department of theory and spectroscopy      #
                  #               Directorship: Frank Neese             #
                  #        Max Planck Institute fuer Kohlenforschung    #
                  #                Kaiser Wilhelm Platz 1               #
                  #                 D-45470 Muelheim/Ruhr               #
                  #                      Germany                        #
                  #                                                     #
                  #                  All rights reserved                #
                  #                        -***-                        #
                  #######################################################


                         Program Version 4.1.1  - RELEASE  -


 With contributions from (in alphabetic order):
   Daniel Aravena         : Magnetic Properties
   Michael Atanasov       : Ab Initio Ligand Field Theory
   Alexander A. Auer      : GIAO ZORA
   Ute Becker             : Parallelization
   Giovanni Bistoni       : ED, Open-shell LED
   Martin Brehm           : Molecular dynamics
   Dmytro Bykov           : SCF Hessian
   Vijay G. Chilkuri      : MRCI spin determinant printing
   Dipayan Datta          : RHF DLPNO-CCSD density
   Achintya Kumar Dutta   : EOM-CC, STEOM-CC
   Dmitry Ganyushin       : Spin-Orbit,Spin-Spin,Magnetic field MRCI
   Miquel Garcia          : C-PCM Hessian
   Yang Guo               : DLPNO-NEVPT2, CIM, IAO-localization
   Andreas Hansen         : Spin unrestricted coupled pair/coupled cluster methods
   Benjamin Helmich-Paris : CASSCF linear response (MC-RPA)
   Lee Huntington         : MR-EOM, pCC
   Robert Izsak           : Overlap fitted RIJCOSX, COSX-SCS-MP3, EOM
   Christian Kollmar      : KDIIS, OOCD, Brueckner-CCSD(T), CCSD density
   Simone Kossmann        : Meta GGA functionals, TD-DFT gradient, OOMP2, MP2 Hessian
   Martin Krupicka        : AUTO-CI
   Lucas Lang             : DCDCAS
   Dagmar Lenk            : GEPOL surface, SMD
   Dimitrios Liakos       : Extrapolation schemes; parallel MDCI
   Dimitrios Manganas     : ROCIS; embedding schemes
   Dimitrios Pantazis     : SARC Basis sets
   Taras Petrenko         : DFT Hessian,TD-DFT gradient, ASA, ECA, R-Raman, ABS, FL, XAS/XES, NRVS
   Peter Pinski           : DLPNO-MP2, DLPNO-MP2 Gradient
   Christoph Reimann      : Effective Core Potentials
   Marius Retegan         : Local ZFS, SOC
   Christoph Riplinger    : Optimizer, TS searches, QM/MM, DLPNO-CCSD(T), (RO)-DLPNO pert. Triples
   Tobias Risthaus        : Range-separated hybrids, TD-DFT gradient, RPA, STAB
   Michael Roemelt        : Restricted open shell CIS
   Masaaki Saitow         : Open-shell DLPNO
   Barbara Sandhoefer     : DKH picture change effects
   Avijit Sen             : IP-ROCIS
   Kantharuban Sivalingam : CASSCF convergence, NEVPT2, FIC-MRCI
   Bernardo de Souza      : ESD, SOC TD-DFT
   Georgi Stoychev        : AutoAux, RI-MP2 NMR
   Willem Van den Heuvel  : Paramagnetic NMR
   Boris Wezisla          : Elementary symmetry handling
   Frank Wennmohs         : Technical directorship


 We gratefully acknowledge several colleagues who have allowed us to
 interface, adapt or use parts of their codes:
   Stefan Grimme, W. Hujo, H. Kruse,             : VdW corrections, initial TS optimization,
                  C. Bannwarth                     DFT functionals, gCP, sTDA/sTD-DF
   Ed Valeev                                     : LibInt (2-el integral package), F12 methods
   Garnet Chan, S. Sharma, J. Yang, R. Olivares  : DMRG
   Ulf Ekstrom                                   : XCFun DFT Library
   Mihaly Kallay                                 : mrcc  (arbitrary order and MRCC methods)
   Andreas Klamt, Michael Diedenhofen            : otool_cosmo (COSMO solvation model)
   Jiri Pittner, Ondrej Demel                    : Mk-CCSD
   Frank Weinhold                                : gennbo (NPA and NBO analysis)
   Christopher J. Cramer and Donald G. Truhlar   : smd solvation model
   Lars Goerigk                                  : TD-DFT with DH, B97 family of functionals
   V. Asgeirsson, H. Jonsson                     : NEB implementation
   FAccTs GmbH                                   : IRC, NEB, NEB-TS, Multilevel


 Your calculation uses the libint2 library for the computation of 2-el integrals
 For citations please refer to: http://libint.valeyev.net

 This ORCA versions uses:
   CBLAS   interface :  Fast vector & matrix operations
   LAPACKE interface :  Fast linear algebra routines
   SCALAPACK package :  Parallel linear algebra routines


Your calculation utilizes the atom-pairwise dispersion correction
with the Becke-Johnson damping scheme (D3BJ)
Cite in your paper:
S.Grimme, S.Ehrlich, L.Goerigk, J Comput Chem, (2011), 32, 1456–1465 
S.Grimme, J.Antony, S.Ehrlich and H.Krieg, J.Chem.Phys., 132, (2010), 154104 
   

----- Orbital basis set information -----
Your calculation utilizes the basis: def2-SVP
   F. Weigend and R. Ahlrichs, Phys. Chem. Chem. Phys. 7, 3297 (2005).

----- AuxJ basis set information -----
Your calculation utilizes the auxiliary basis: def2/J
   F. Weigend, Phys. Chem. Chem. Phys. 8, 1057 (2006).

================================================================================
                                        WARNINGS
                       Please study these warnings very carefully!
================================================================================


WARNING: your system is open-shell and RHF/RKS was chosen
  ===> : WILL SWITCH to UHF/UKS


WARNING: Geometry Optimization
  ===> : Switching off AutoStart
         For restart on a previous wavefunction, please use MOREAD

INFO   : the flag for use of LIBINT has been found!

================================================================================
                                       INPUT FILE
================================================================================
NAME = h3_subst_scan0_orca.inp
|  1> ! LooseOpt PBE RI D3BJ def2-SVP def2/J
|  2> %geom Constraints
|  3> { B 1 2 1.0 C }
|  4>     end
|  5> end
|  6> %geom MaxIter 100 end
|  7> %pal nprocs 8
|  8> end
|  9> %scf 
| 10> maxiter 250 
| 11> end
| 12> % maxcore 1000
| 13> *xyz 0 2
| 14> H   0.00000000  0.00000000  0.00000000 
| 15> H   0.70000000  0.00000000  0.00000000 
| 16> H   1.70000000  0.00000000  0.00000000 
| 17> *
| 18> 
| 19>                          ****END OF INPUT****
================================================================================

                       *****************************
                       * Geometry Optimization Run *
                       *****************************

Geometry optimization settings:
Update method            Update   .... BFGS
Choice of coordinates    CoordSys .... Z-matrix Internals
Initial Hessian          InHess   .... Almoef's Model

Convergence Tolerances:
Energy Change            TolE     ....  3.0000e-05 Eh
Max. Gradient            TolMAXG  ....  2.0000e-03 Eh/bohr
RMS Gradient             TolRMSG  ....  5.0000e-04 Eh/bohr
Max. Displacement        TolMAXD  ....  1.0000e-02 bohr
RMS Displacement         TolRMSD  ....  7.0000e-03 bohr

------------------------------------------------------------------------------
                        ORCA OPTIMIZATION COORDINATE SETUP
------------------------------------------------------------------------------

The optimization will be done in new redundant internal coordinates
Making redundant internal coordinates   ...  (new redundants) done
Evaluating the initial hessian          ...  (Almloef) done
Evaluating the coordinates              ...  done
Calculating the B-matrix                .... done
Calculating the G-matrix                .... done
Diagonalizing the G-matrix              .... done
Imposing constraints:
 Iter   0:  RMS(Cart)=    0.0000000011 RMS(Int)=    0.0000000000
CONVERGED
The first mode is                       ....    0
The number of degrees of freedom        ....    4
Storing new coordinates                 .... done

    -----------------------------------------------------------------
                    Redundant Internal Coordinates


    -----------------------------------------------------------------
         Definition                    Initial Value    Approx d2E/dq
    -----------------------------------------------------------------
      1. B(H   1,H   0)                  0.7000         0.288866   
      2. B(H   2,H   1)                  1.0000         0.095955 C 
      3. L(H   0,H   1,H   2, 1)       180.0000         0.180011   
      4. L(H   0,H   1,H   2, 2)       180.0000         0.180011   
    -----------------------------------------------------------------

Number of atoms                         .... 3
Number of degrees of freedom            .... 4

         *************************************************************
         *                GEOMETRY OPTIMIZATION CYCLE   1            *
         *************************************************************
---------------------------------
CARTESIAN COORDINATES (ANGSTROEM)
---------------------------------
  H      0.000000    0.000000    0.000000
  H      0.700000    0.000000    0.000000
  H      1.700000    0.000000    0.000000

----------------------------
CARTESIAN COORDINATES (A.U.)
----------------------------
  NO LB      ZA    FRAG     MASS         X           Y           Z
   0 H     1.0000    0     1.008    0.000000    0.000000    0.000000
   1 H     1.0000    0     1.008    1.322808    0.000000    0.000000
   2 H     1.0000    0     1.008    3.212534    0.000000    0.000000

--------------------------------
INTERNAL COORDINATES (ANGSTROEM)
--------------------------------
 H      0   0   0     0.000000000000     0.00000000     0.00000000
 H      1   0   0     0.700000000000     0.00000000     0.00000000
 H      2   1   0     1.000000000000   179.99999879     0.00000000

---------------------------
INTERNAL COORDINATES (A.U.)
---------------------------
 H      0   0   0     0.000000000000     0.00000000     0.00000000
 H      1   0   0     1.322808293745     0.00000000     0.00000000
 H      2   1   0     1.889726133921   179.99999879     0.00000000

---------------------
BASIS SET INFORMATION
---------------------
There are 1 groups of distinct atoms

 Group   1 Type H   : 4s1p contracted to 2s1p pattern {31/1}

Atom   0H    basis set group =>   1
Atom   1H    basis set group =>   1
Atom   2H    basis set group =>   1
-------------------------------
AUXILIARY BASIS SET INFORMATION
-------------------------------
There are 1 groups of distinct atoms

 Group   1 Type H   : 5s2p1d contracted to 3s1p1d pattern {311/2/1}

Atom   0H    basis set group =>   1
Atom   1H    basis set group =>   1
Atom   2H    basis set group =>   1


           ************************************************************
           *        Program running with 8 parallel MPI-processes     *
           *              working on a common directory               *
           ************************************************************
------------------------------------------------------------------------------
                           ORCA GTO INTEGRAL CALCULATION
                           -- RI-GTO INTEGRALS CHOSEN --
------------------------------------------------------------------------------

                         BASIS SET STATISTICS AND STARTUP INFO

Gaussian basis set:
 # of primitive gaussian shells          ...   15
 # of primitive gaussian functions       ...   21
 # of contracted shells                  ...    9
 # of contracted basis functions         ...   15
 Highest angular momentum                ...    1
 Maximum contraction depth               ...    3
Auxiliary gaussian basis set:
 # of primitive gaussian shells          ...   24
 # of primitive gaussian functions       ...   48
 # of contracted shells                  ...   15
 # of contracted aux-basis functions     ...   33
 Highest angular momentum                ...    2
 Maximum contraction depth               ...    3
Ratio of auxiliary to basis functions    ...  2.20
Integral package used                  ... LIBINT
 One Electron integrals                  ... done
 Ordering auxiliary basis shells         ... done
 Integral threshhold             Thresh  ...  2.500e-11
 Primitive cut-off               TCut    ...  2.500e-12
 Pre-screening matrix                    ... done
 Shell pair data                         ... 
 Ordering of the shell pairs             ... done (   0.000 sec) 45 of 45 pairs
 Determination of significant pairs      ... done (   0.000 sec)
 Creation of shell pair data             ... done (   0.000 sec)
 Storage of shell pair data              ... done (   0.036 sec)
 Shell pair data done in (   0.036 sec)
 Computing two index integrals           ... done
 Cholesky decomposition of the V-matrix  ... done


Timings:
 Total evaluation time                   ...   0.162 sec (  0.003 min)
 One electron matrix time                ...   0.005 sec (  0.000 min) =  3.3%
 Schwartz matrix evaluation time         ...   0.106 sec (  0.002 min) = 65.4%
 Two index repulsion integral time       ...   0.000 sec (  0.000 min) =  0.1%
 Cholesky decomposition of V             ...   0.001 sec (  0.000 min) =  0.4%
 Three index repulsion integral time     ...   0.000 sec (  0.000 min) =  0.0%



           ************************************************************
           *        Program running with 8 parallel MPI-processes     *
           *              working on a common directory               *
           ************************************************************
-------------------------------------------------------------------------------
                                 ORCA SCF
-------------------------------------------------------------------------------

------------
SCF SETTINGS
------------
Hamiltonian:
 Density Functional     Method          .... DFT(GTOs)
 Exchange Functional    Exchange        .... PBE
   PBE kappa parameter   XKappa         ....  0.804000
   PBE mue parameter    XMuePBE         ....  0.219520
 Correlation Functional Correlation     .... PBE
   PBE beta parameter  CBetaPBE         ....  0.066725
 LDA part of GGA corr.  LDAOpt          .... PW91-LDA
 Gradients option       PostSCFGGA      .... off
   Density functional embedding theory  .... OFF
   NL short-range parameter             ....  6.400000
 RI-approximation to the Coulomb term is turned on
   Number of auxiliary basis functions  .... 33


General Settings:
 Integral files         IntName         .... h3_subst_scan0_orca
 Hartree-Fock type      HFTyp           .... UHF
 Total Charge           Charge          ....    0
 Multiplicity           Mult            ....    2
 Number of Electrons    NEL             ....    3
 Basis Dimension        Dim             ....   15
 Nuclear Repulsion      ENuc            ....      1.5964253610 Eh

Convergence Acceleration:
 DIIS                   CNVDIIS         .... on
   Start iteration      DIISMaxIt       ....    12
   Startup error        DIISStart       ....  0.200000
   # of expansion vecs  DIISMaxEq       ....     5
   Bias factor          DIISBfac        ....   1.050
   Max. coefficient     DIISMaxC        ....  10.000
 Newton-Raphson         CNVNR           .... off
 SOSCF                  CNVSOSCF        .... off
 Level Shifting         CNVShift        .... on
   Level shift para.    LevelShift      ....    0.2500
   Turn off err/grad.   ShiftErr        ....    0.0010
 Zerner damping         CNVZerner       .... off
 Static damping         CNVDamp         .... on
   Fraction old density DampFac         ....    0.7000
   Max. Damping (<1)    DampMax         ....    0.9800
   Min. Damping (>=0)   DampMin         ....    0.0000
   Turn off err/grad.   DampErr         ....    0.1000
 Fernandez-Rico         CNVRico         .... off

SCF Procedure:
 Maximum # iterations   MaxIter         ....   250
 SCF integral mode      SCFMode         .... Direct
   Integral package                     .... LIBINT
 Reset frequency        DirectResetFreq ....    20
 Integral Threshold     Thresh          ....  2.500e-11 Eh
 Primitive CutOff       TCut            ....  2.500e-12 Eh

Convergence Tolerance:
 Convergence Check Mode ConvCheckMode   .... Total+1el-Energy
 Convergence forced     ConvForced      .... 0
 Energy Change          TolE            ....  1.000e-08 Eh
 1-El. energy change                    ....  1.000e-05 Eh
 DIIS Error             TolErr          ....  5.000e-07


Diagonalization of the overlap matrix:
Smallest eigenvalue                        ... 1.821e-02
Time for diagonalization                   ...    0.000 sec
Threshold for overlap eigenvalues          ... 1.000e-08
Number of eigenvalues below threshold      ... 0
Time for construction of square roots      ...    0.001 sec
Total time needed                          ...    0.001 sec

-------------------
DFT GRID GENERATION
-------------------

General Integration Accuracy     IntAcc      ...  4.340
Radial Grid Type                 RadialGrid  ... Gauss-Chebyshev
Angular Grid (max. acc.)         AngularGrid ... Lebedev-110
Angular grid pruning method      GridPruning ... 3 (G Style)
Weight generation scheme         WeightScheme... Becke
Basis function cutoff            BFCut       ...    1.0000e-11
Integration weight cutoff        WCut        ...    1.0000e-14
Grids for H and He will be reduced by one unit

# of grid points (after initial pruning)     ...   2382 (   0.0 sec)
# of grid points (after weights+screening)   ...   2334 (   0.0 sec)
nearest neighbour list constructed           ...    0.0 sec
Grid point re-assignment to atoms done       ...    0.0 sec
Grid point division into batches done        ...    0.0 sec
Reduced shell lists constructed in    0.0 sec

Total number of grid points                  ...     2334
Total number of batches                      ...       39
Average number of points per batch           ...       59
Average number of grid points per atom       ...      778
Average number of shells per batch           ...     7.33 (81.48%)
Average number of basis functions per batch  ...    12.00 (80.00%)
Average number of large shells per batch     ...     7.17 (97.73%)
Average number of large basis fcns per batch ...    11.83 (98.61%)
Maximum spatial batch extension              ...  12.23, 21.59, 21.59 au
Average spatial batch extension              ...   1.16,  2.11,  2.36 au

Time for grid setup =    0.009 sec

------------------------------
INITIAL GUESS: MODEL POTENTIAL
------------------------------
Loading Hartree-Fock densities                     ... done
Calculating cut-offs                               ... done
Setting up the integral package                    ... done
Initializing the effective Hamiltonian             ... done
Starting the Coulomb interaction                   ... done (   0.0 sec)
Reading the grid                                   ... done
Mapping shells                                     ... done
Starting the XC term evaluation                    ... done (   0.0 sec)
  promolecular density results
     # of electrons  =      2.996703914
     EX              =     -0.850808282
     EC              =     -0.066985183
     EX+EC           =     -0.917793466
Transforming the Hamiltonian                       ... done (   0.0 sec)
Diagonalizing the Hamiltonian                      ... done (   0.0 sec)
Back transforming the eigenvectors                 ... done (   0.0 sec)
Now organizing SCF variables                       ... done
                      ------------------
                      INITIAL GUESS DONE (   0.1 sec)
                      ------------------
--------------
SCF ITERATIONS
--------------
ITER       Energy         Delta-E        Max-DP      RMS-DP      [F,P]     Damp
               ***  Starting incremental Fock matrix formation  ***
  0     -1.6332355816   0.000000000000 0.01097587  0.00143646  0.0478377 0.7000
  1     -1.6349292604  -0.001693678806 0.01198676  0.00143827  0.0328093 0.7000
                               ***Turning on DIIS***
  2     -1.6360403876  -0.001111127145 0.03090442  0.00360240  0.0203253 0.0000
  3     -1.6382049996  -0.002164611989 0.00499930  0.00055791  0.0097333 0.0000
  4     -1.6383665720  -0.000161572460 0.00287618  0.00026302  0.0028249 0.0000
  5     -1.6383886952  -0.000022123196 0.00102812  0.00011577  0.0010002 0.0000
  6     -1.6383924025  -0.000003707273 0.00051360  0.00006397  0.0003460 0.0000
  7     -1.6383929614  -0.000000558917 0.00009782  0.00001112  0.0000255 0.0000
  8     -1.6383929715  -0.000000010063 0.00001538  0.00000158  0.0000098 0.0000
                 **** Energy Check signals convergence ****

               *****************************************************
               *                     SUCCESS                       *
               *           SCF CONVERGED AFTER   9 CYCLES          *
               *****************************************************

Setting up the final grid:

General Integration Accuracy     IntAcc      ...  4.670
Radial Grid Type                 RadialGrid  ... Gauss-Chebyshev
Angular Grid (max. acc.)         AngularGrid ... Lebedev-302
Angular grid pruning method      GridPruning ... 3 (G Style)
Weight generation scheme         WeightScheme... Becke
Basis function cutoff            BFCut       ...    1.0000e-11
Integration weight cutoff        WCut        ...    1.0000e-14
Grids for H and He will be reduced by one unit

# of grid points (after initial pruning)     ...  10182 (   0.0 sec)
# of grid points (after weights+screening)   ...  10054 (   0.0 sec)
nearest neighbour list constructed           ...    0.0 sec
Grid point re-assignment to atoms done       ...    0.0 sec
Grid point division into batches done        ...    0.0 sec
Reduced shell lists constructed in    0.0 sec

Total number of grid points                  ...    10054
Total number of batches                      ...      158
Average number of points per batch           ...       63
Average number of grid points per atom       ...     3351
Average number of shells per batch           ...     6.14 (68.25%)
Average number of basis functions per batch  ...     9.19 (61.27%)
Average number of large shells per batch     ...     5.43 (88.37%)
Average number of large basis fcns per batch ...     8.00 (87.05%)
Maximum spatial batch extension              ...  13.96, 15.43, 15.43 au
Average spatial batch extension              ...   0.97,  1.07,  1.01 au

Final grid set up in    0.0 sec
Final integration                            ... done (   0.0 sec)
Change in XC energy                          ...    -0.000435952
Integrated number of electrons               ...     3.000001161
Previous integrated no of electrons          ...     2.996851889

----------------
TOTAL SCF ENERGY
----------------

Total Energy       :           -1.63882892 Eh             -44.59480 eV

Components:
Nuclear Repulsion  :            1.59642536 Eh              43.44094 eV
Electronic Energy  :           -3.23525429 Eh             -88.03574 eV
One Electron Energy:           -4.60015495 Eh            -125.17658 eV
Two Electron Energy:            1.36490066 Eh              37.14084 eV

Virial components:
Potential Energy   :           -3.36146517 Eh             -91.47012 eV
Kinetic Energy     :            1.72263624 Eh              46.87532 eV
Virial Ratio       :            1.95134938


DFT components:
N(Alpha)           :        2.000001208948 electrons
N(Beta)            :        0.999999951677 electrons
N(Total)           :        3.000001160625 electrons
E(X)               :       -0.978319614602 Eh       
E(C)               :       -0.063651706773 Eh       
E(XC)              :       -1.041971321375 Eh       
DFET-embed. en.    :        0.000000000000 Eh       

---------------
SCF CONVERGENCE
---------------

  Last Energy change         ...   -7.6241e-10  Tolerance :   1.0000e-08
  Last MAX-Density change    ...    5.7569e-06  Tolerance :   1.0000e-07
  Last RMS-Density change    ...    7.4058e-07  Tolerance :   5.0000e-09
  Last DIIS Error            ...    1.5693e-06  Tolerance :   5.0000e-07

             **** THE GBW FILE WAS UPDATED (h3_subst_scan0_orca.gbw) ****
             **** DENSITY FILE WAS UPDATED (h3_subst_scan0_orca.scfp.tmp) ****
             **** ENERGY FILE WAS UPDATED (h3_subst_scan0_orca.en.tmp) ****
----------------------
UHF SPIN CONTAMINATION
----------------------

Warning: in a DFT calculation there is little theoretical justification to 
         calculate <S**2> as in Hartree-Fock theory. We will do it anyways
         but you should keep in mind that the values have only limited relevance

Expectation value of <S**2>     :     0.753564
Ideal value S*(S+1) for S=0.5   :     0.750000
Deviation                       :     0.003564

----------------
ORBITAL ENERGIES
----------------
                 SPIN UP ORBITALS
  NO   OCC          E(Eh)            E(eV) 
   0   1.0000      -0.479286       -13.0420 
   1   1.0000      -0.206311        -5.6140 
   2   0.0000       0.109337         2.9752 
   3   0.0000       0.363937         9.9032 
   4   0.0000       0.397562        10.8182 
   5   0.0000       0.739710        20.1285 
   6   0.0000       0.989025        26.9127 
   7   0.0000       0.989025        26.9127 
   8   0.0000       1.325406        36.0661 
   9   0.0000       1.325406        36.0661 
  10   0.0000       1.569518        42.7087 
  11   0.0000       2.063372        56.1472 
  12   0.0000       2.063372        56.1472 
  13   0.0000       2.601798        70.7985 
  14   0.0000       4.131354       112.4199 

                 SPIN DOWN ORBITALS
  NO   OCC          E(Eh)            E(eV) 
   0   1.0000      -0.440858       -11.9964 
   1   0.0000      -0.101145        -2.7523 
   2   0.0000       0.152278         4.1437 
   3   0.0000       0.392662        10.6849 
   4   0.0000       0.481106        13.0916 
   5   0.0000       0.800890        21.7933 
   6   0.0000       1.027277        27.9536 
   7   0.0000       1.027277        27.9536 
   8   0.0000       1.435332        39.0574 
   9   0.0000       1.435332        39.0574 
  10   0.0000       1.667111        45.3644 
  11   0.0000       2.112851        57.4936 
  12   0.0000       2.112851        57.4936 
  13   0.0000       2.684579        73.0511 
  14   0.0000       4.182757       113.8186 

                    ********************************
                    * MULLIKEN POPULATION ANALYSIS *
                    ********************************

--------------------------------------------
MULLIKEN ATOMIC CHARGES AND SPIN POPULATIONS
--------------------------------------------
   0 H :    0.010673    0.333327
   1 H :    0.023603   -0.104204
   2 H :   -0.034276    0.770876
Sum of atomic charges         :    0.0000000
Sum of atomic spin populations:    1.0000000

-----------------------------------------------------
MULLIKEN REDUCED ORBITAL CHARGES AND SPIN POPULATIONS
-----------------------------------------------------
CHARGE
  0 H s       :     0.975901  s :     0.975901
      pz      :     0.000000  p :     0.013427
      px      :     0.013427
      py      :     0.000000
  1 H s       :     0.955656  s :     0.955656
      pz      :    -0.000000  p :     0.020741
      px      :     0.020741
      py      :    -0.000000
  2 H s       :     1.025098  s :     1.025098
      pz      :     0.000000  p :     0.009177
      px      :     0.009177
      py      :    -0.000000

SPIN
  0 H s       :     0.335966  s :     0.335966
      pz      :     0.000000  p :    -0.002639
      px      :    -0.002639
      py      :     0.000000
  1 H s       :    -0.124577  s :    -0.124577
      pz      :    -0.000000  p :     0.020373
      px      :     0.020373
      py      :    -0.000000
  2 H s       :     0.770547  s :     0.770547
      pz      :     0.000000  p :     0.000329
      px      :     0.000329
      py      :    -0.000000


                     *******************************
                     * LOEWDIN POPULATION ANALYSIS *
                     *******************************

-------------------------------------------
LOEWDIN ATOMIC CHARGES AND SPIN POPULATIONS
-------------------------------------------
   0 H :    0.014225    0.256900
   1 H :   -0.003050    0.074365
   2 H :   -0.011175    0.668735

----------------------------------------------------
LOEWDIN REDUCED ORBITAL CHARGES AND SPIN POPULATIONS
----------------------------------------------------
CHARGE
  0 H s       :     0.945032  s :     0.945032
      pz      :     0.000000  p :     0.040743
      px      :     0.040743
      py      :     0.000000
  1 H s       :     0.889926  s :     0.889926
      pz      :     0.000000  p :     0.113124
      px      :     0.113124
      py      :     0.000000
  2 H s       :     0.974367  s :     0.974367
      pz      :     0.000000  p :     0.036809
      px      :     0.036809
      py      :     0.000000

SPIN
  0 H s       :     0.258409  s :     0.258409
      pz      :     0.000000  p :    -0.001509
      px      :    -0.001509
      py      :     0.000000
  1 H s       :    -0.033206  s :    -0.033206
      pz      :     0.000000  p :     0.107571
      px      :     0.107571
      py      :    -0.000000
  2 H s       :     0.663011  s :     0.663011
      pz      :     0.000000  p :     0.005724
      px      :     0.005724
      py      :     0.000000


                      *****************************
                      * MAYER POPULATION ANALYSIS *
                      *****************************

  NA   - Mulliken gross atomic population
  ZA   - Total nuclear charge
  QA   - Mulliken gross atomic charge
  VA   - Mayer's total valence
  BVA  - Mayer's bonded valence
  FA   - Mayer's free valence

  ATOM       NA         ZA         QA         VA         BVA        FA
  0 H      0.9893     1.0000     0.0107     0.9431     0.8320     0.1111
  1 H      0.9764     1.0000     0.0236     1.0295     1.0134     0.0162
  2 H      1.0343     1.0000    -0.0343     0.9488     0.3479     0.6009

  Mayer bond orders larger than 0.1
B(  0-H ,  1-H ) :   0.7487 B(  1-H ,  2-H ) :   0.2647 

-------
TIMINGS
-------

Total SCF time: 0 days 0 hours 0 min 1 sec 

Total time                  ....       1.185 sec
Sum of individual times     ....       1.081 sec  ( 91.2%)

Fock matrix formation       ....       0.947 sec  ( 79.9%)
  Split-RI-J                ....       0.909 sec  ( 96.0% of F)
  XC integration            ....       0.024 sec  (  2.5% of F)
    Basis function eval.    ....       0.002 sec  (  8.7% of XC)
    Density eval.           ....       0.002 sec  (  8.7% of XC)
    XC-Functional eval.     ....       0.003 sec  ( 11.7% of XC)
    XC-Potential eval.      ....       0.001 sec  (  3.5% of XC)
Diagonalization             ....       0.001 sec  (  0.1%)
Density matrix formation    ....       0.000 sec  (  0.0%)
Population analysis         ....       0.001 sec  (  0.1%)
Initial guess               ....       0.096 sec  (  8.1%)
Orbital Transformation      ....       0.000 sec  (  0.0%)
Orbital Orthonormalization  ....       0.000 sec  (  0.0%)
DIIS solution               ....       0.001 sec  (  0.1%)
Grid generation             ....       0.033 sec  (  2.8%)


-------------------------------------------------------------------------------
                          DFT DISPERSION CORRECTION                            
                                                                               
                              DFTD3 V3.1  Rev 1                                
                          USING Becke-Johnson damping                          
-------------------------------------------------------------------------------
The PBE functional is recognized
Active option DFTDOPT                   ...         4   

molecular C6(AA) [au] = 38.289327 


            DFT-D V3
 parameters
 s6 scaling factor         :     1.0000 
 a1 scaling factor         :     0.4289 
 s8 scaling factor         :     0.7875 
 a2 scaling factor         :     4.4407 
 ad hoc parameters k1-k3   :    16.0000     1.3333    -4.0000 

 Edisp/kcal,au: -0.225801218487  -0.000359837108 
 E6   /kcal   :  -0.177458021 
 E8   /kcal   :  -0.048343198 
 % E8         :  21.409626627 

-------------------------   ----------------
Dispersion correction           -0.000359837
-------------------------   ----------------


-------------------------   --------------------
FINAL SINGLE POINT ENERGY        -1.639188761177
-------------------------   --------------------



           ************************************************************
           *        Program running with 8 parallel MPI-processes     *
           *              working on a common directory               *
           ************************************************************
------------------------------------------------------------------------------
                         ORCA SCF GRADIENT CALCULATION
------------------------------------------------------------------------------

Gradient of the Kohn-Sham DFT energy:
Kohn-Sham wavefunction type      ... UKS
Hartree-Fock exchange scaling    ...    0.000
Number of operators              ...    2
Number of atoms                  ...    3
Basis set dimensions             ...   15
Integral neglect threshold       ... 2.5e-11
Integral primitive cutoff        ... 2.5e-12

Nuclear repulsion gradient       ... done
One Electron Gradient            ... done
Pre-screening matrix             ... done
RI-J gradient                    ... done
Exchange-correlation gradient    ... done
Dispersion correction            ... done

------------------
CARTESIAN GRADIENT
------------------

   1   H   :    0.106475338   -0.000000000   -0.000000000
   2   H   :   -0.076915493    0.000000000   -0.000000000
   3   H   :   -0.029559844   -0.000000000    0.000000000

Difference to translation invariance:
           :   -0.0000000000   -0.0000000000   -0.0000000000

Norm of the cartesian gradient     ...    0.1346357122
RMS gradient                       ...    0.0448785707
MAX gradient                       ...    0.1064753375

-------
TIMINGS
-------

Total SCF gradient time            ...        0.303 sec

One electron gradient       ....       0.002 sec  (  0.5%)
Prescreening matrices       ....       0.000 sec  (  0.0%)
RI-J Coulomb gradient       ....       0.086 sec  ( 28.4%)
XC gradient                 ....       0.008 sec  (  2.5%)
------------------------------------------------------------------------------
                         ORCA GEOMETRY RELAXATION STEP
------------------------------------------------------------------------------

Reading the OPT-File                    .... done
Getting information on internals        .... done
Copying old internal coords+grads       .... done
Making the new internal coordinates     .... (new redundants).... done
Validating the new internal coordinates .... (new redundants).... done
Calculating the B-matrix                .... done
Calculating the G,G- and P matrices     .... done
Transforming gradient to internals      .... done
Projecting the internal gradient        .... done
Number of atoms                         ....   3
Number of internal coordinates          ....   4
Current Energy                          ....    -1.639188761 Eh
Current gradient norm                   ....     0.134635712 Eh/bohr
Maximum allowed component of the step   ....  0.300
Current trust radius                    ....  0.300
Evaluating the initial hessian          ....  (Almloef) done
Projecting the Hessian                  .... done
Forming the augmented Hessian           .... done
Diagonalizing the augmented Hessian     .... done
Last element of RFO vector              ....  0.949979044
Lowest eigenvalues of augmented Hessian:
 -0.035004668  0.180011022  0.180011022  0.323871016
Length of the computed step             ....  0.328758464
Warning: the length of the step is outside the trust region - taking restricted step instead
The input lambda is                     ....    -0.035005
   iter:   1  x=   -0.062096  g=    0.667439 f(x)=     0.018082
   iter:   2  x=   -0.065986  g=    0.524499 f(x)=     0.002040
   iter:   3  x=   -0.066051  g=    0.507442 f(x)=     0.000033
   iter:   4  x=   -0.066051  g=    0.507160 f(x)=     0.000000
   iter:   5  x=   -0.066051  g=    0.507160 f(x)=     0.000000
The output lambda is                    ....    -0.066051 (5 iterations)
The final length of the internal step   ....  0.300000000
Converting the step to cartesian space:
 Initial RMS(Int)=    0.1500000000
Transforming coordinates:
 Iter   0:  RMS(Cart)=    0.0544331054 RMS(Int)=    0.1000000000
 Iter   1:  RMS(Cart)=    0.0272165527 RMS(Int)=    0.0500000000
 Iter   2:  RMS(Cart)=    0.0000000000 RMS(Int)=    0.0000000105
Imposing constraints:
 Iter   0:  RMS(Cart)=    0.0000000000 RMS(Int)=    0.0000000000
CONVERGED
done
Storing new coordinates                 .... done

                                .--------------------.
          ----------------------|Geometry convergence|-------------------------
          Item                value                   Tolerance       Converged
          ---------------------------------------------------------------------
          RMS gradient        0.0532376688            0.0005000000      NO
          MAX gradient        0.1064753375            0.0020000000      NO
          RMS step            0.1500000000            0.0070000000      NO
          MAX step            0.3000000000            0.0100000000      NO
          ........................................................
          Max(Bonds)      0.1588      Max(Angles)    0.00
          Max(Dihed)        0.00      Max(Improp)    0.00
          ---------------------------------------------------------------------

The optimization has not yet converged - more geometry cycles are needed


    ---------------------------------------------------------------------------
                         Redundant Internal Coordinates
                            (Angstroem and degrees)

        Definition                    Value    dE/dq     Step     New-Value
    ----------------------------------------------------------------------------
     1. B(H   1,H   0)                0.7000 -0.106475  0.1588    0.8588   
     2. B(H   2,H   1)                1.0000 -0.029560  0.0000    1.0000 C 
     3. L(H   0,H   1,H   2, 1)       180.00  0.000000   -0.00    180.00   
     4. L(H   0,H   1,H   2, 2)       180.00  0.000000   -0.00    180.00   
    ----------------------------------------------------------------------------

         *************************************************************
         *                GEOMETRY OPTIMIZATION CYCLE   2            *
         *************************************************************
---------------------------------
CARTESIAN COORDINATES (ANGSTROEM)
---------------------------------
  H     -0.105835   -0.000000    0.000000
  H      0.752918    0.000000   -0.000000
  H      1.752918   -0.000000    0.000000

----------------------------
CARTESIAN COORDINATES (A.U.)
----------------------------
  NO LB      ZA    FRAG     MASS         X           Y           Z
   0 H     1.0000    0     1.008   -0.200000   -0.000000    0.000000
   1 H     1.0000    0     1.008    1.422808    0.000000   -0.000000
   2 H     1.0000    0     1.008    3.312534   -0.000000    0.000000

--------------------------------
INTERNAL COORDINATES (ANGSTROEM)
--------------------------------
 H      0   0   0     0.000000000000     0.00000000     0.00000000
 H      1   0   0     0.858753162490     0.00000000     0.00000000
 H      2   1   0     0.999999997925   179.99999915     0.00000000

---------------------------
INTERNAL COORDINATES (A.U.)
---------------------------
 H      0   0   0     0.000000000000     0.00000000     0.00000000
 H      1   0   0     1.622808293745     0.00000000     0.00000000
 H      2   1   0     1.889726130000   179.99999915     0.00000000



           ************************************************************
           *        Program running with 8 parallel MPI-processes     *
           *              working on a common directory               *
           ************************************************************
 One Electron integrals                  ... done
 Pre-screening matrix                    ... done


           ************************************************************
           *        Program running with 8 parallel MPI-processes     *
           *              working on a common directory               *
           ************************************************************

Diagonalization of the overlap matrix:
Smallest eigenvalue                        ... 2.696e-02
Time for diagonalization                   ...    0.000 sec
Threshold for overlap eigenvalues          ... 1.000e-08
Number of eigenvalues below threshold      ... 0
Time for construction of square roots      ...    0.000 sec
Total time needed                          ...    0.001 sec

-------------------
DFT GRID GENERATION
-------------------

General Integration Accuracy     IntAcc      ...  4.340
Radial Grid Type                 RadialGrid  ... Gauss-Chebyshev
Angular Grid (max. acc.)         AngularGrid ... Lebedev-110
Angular grid pruning method      GridPruning ... 3 (G Style)
Weight generation scheme         WeightScheme... Becke
Basis function cutoff            BFCut       ...    1.0000e-11
Integration weight cutoff        WCut        ...    1.0000e-14
Grids for H and He will be reduced by one unit

# of grid points (after initial pruning)     ...   2382 (   0.0 sec)
# of grid points (after weights+screening)   ...   2336 (   0.0 sec)
nearest neighbour list constructed           ...    0.0 sec
Grid point re-assignment to atoms done       ...    0.0 sec
Grid point division into batches done        ...    0.0 sec
Reduced shell lists constructed in    0.0 sec

Total number of grid points                  ...     2336
Total number of batches                      ...       39
Average number of points per batch           ...       59
Average number of grid points per atom       ...      779
Average number of shells per batch           ...     7.33 (81.48%)
Average number of basis functions per batch  ...    12.00 (80.00%)
Average number of large shells per batch     ...     7.00 (95.45%)
Average number of large basis fcns per batch ...    11.33 (94.44%)
Maximum spatial batch extension              ...  12.23, 21.59, 21.59 au
Average spatial batch extension              ...   1.12,  2.11,  2.36 au

Time for grid setup =    0.007 sec

--------------
SCF ITERATIONS
--------------
ITER       Energy         Delta-E        Max-DP      RMS-DP      [F,P]     Damp
               ***  Starting incremental Fock matrix formation  ***
  0     -1.6495853576   0.000000000000 0.00810260  0.00093411  0.0399991 0.7000
  1     -1.6507587128  -0.001173355190 0.00775113  0.00088971  0.0298969 0.7000
                               ***Turning on DIIS***
  2     -1.6516365743  -0.000877861477 0.02215865  0.00252207  0.0204952 0.0000
  3     -1.6536255839  -0.001989009566 0.00774357  0.00085737  0.0059179 0.0000
  4     -1.6537262190  -0.000100635092 0.00394846  0.00040321  0.0019037 0.0000
  5     -1.6537458284  -0.000019609393 0.00422273  0.00049015  0.0009308 0.0000
  6     -1.6537531502  -0.000007321889 0.00029655  0.00003619  0.0001527 0.0000
  7     -1.6537532562  -0.000000105935 0.00002430  0.00000322  0.0000344 0.0000
                 **** Energy Check signals convergence ****

               *****************************************************
               *                     SUCCESS                       *
               *           SCF CONVERGED AFTER   8 CYCLES          *
               *****************************************************

Setting up the final grid:

General Integration Accuracy     IntAcc      ...  4.670
Radial Grid Type                 RadialGrid  ... Gauss-Chebyshev
Angular Grid (max. acc.)         AngularGrid ... Lebedev-302
Angular grid pruning method      GridPruning ... 3 (G Style)
Weight generation scheme         WeightScheme... Becke
Basis function cutoff            BFCut       ...    1.0000e-11
Integration weight cutoff        WCut        ...    1.0000e-14
Grids for H and He will be reduced by one unit

# of grid points (after initial pruning)     ...  10182 (   0.0 sec)
# of grid points (after weights+screening)   ...  10064 (   0.0 sec)
nearest neighbour list constructed           ...    0.0 sec
Grid point re-assignment to atoms done       ...    0.0 sec
Grid point division into batches done        ...    0.0 sec
Reduced shell lists constructed in    0.0 sec

Total number of grid points                  ...    10064
Total number of batches                      ...      159
Average number of points per batch           ...       63
Average number of grid points per atom       ...     3355
Average number of shells per batch           ...     6.10 (67.72%)
Average number of basis functions per batch  ...     9.14 (60.95%)
Average number of large shells per batch     ...     5.43 (89.06%)
Average number of large basis fcns per batch ...     8.00 (87.50%)
Maximum spatial batch extension              ...  11.77, 15.43, 15.43 au
Average spatial batch extension              ...   0.92,  1.07,  1.02 au

Final grid set up in    0.0 sec
Final integration                            ... done (   0.0 sec)
Change in XC energy                          ...    -0.000707451
Integrated number of electrons               ...     3.000001124
Previous integrated no of electrons          ...     2.994953146
Total Energy       :           -1.65446071 Eh             -45.02016 eV
  Last Energy change         ...   -1.7937e-09  Tolerance :   1.0000e-08
  Last MAX-Density change    ...    4.2861e-06  Tolerance :   1.0000e-07
             **** THE GBW FILE WAS UPDATED (h3_subst_scan0_orca.gbw) ****
             **** DENSITY FILE WAS UPDATED (h3_subst_scan0_orca.scfp.tmp) ****
             **** ENERGY FILE WAS UPDATED (h3_subst_scan0_orca.en.tmp) ****
----------------------
UHF SPIN CONTAMINATION
----------------------

Warning: in a DFT calculation there is little theoretical justification to 
         calculate <S**2> as in Hartree-Fock theory. We will do it anyways
         but you should keep in mind that the values have only limited relevance

Expectation value of <S**2>     :     0.756225
Ideal value S*(S+1) for S=0.5   :     0.750000
Deviation                       :     0.006225

Total SCF time: 0 days 0 hours 0 min 1 sec 


-------------------------------------------------------------------------------
                          DFT DISPERSION CORRECTION                            
                                                                               
                              DFTD3 V3.1  Rev 1                                
                          USING Becke-Johnson damping                          
-------------------------------------------------------------------------------
-------------------------   ----------------
Dispersion correction           -0.000459064
-------------------------   ----------------


-------------------------   --------------------
FINAL SINGLE POINT ENERGY        -1.654919773712
-------------------------   --------------------



           ************************************************************
           *        Program running with 8 parallel MPI-processes     *
           *              working on a common directory               *
           ************************************************************
------------------------------------------------------------------------------
                         ORCA SCF GRADIENT CALCULATION
------------------------------------------------------------------------------

Gradient of the Kohn-Sham DFT energy:
Kohn-Sham wavefunction type      ... UKS
Hartree-Fock exchange scaling    ...    0.000
Number of operators              ...    2
Number of atoms                  ...    3
Basis set dimensions             ...   15
Integral neglect threshold       ... 2.5e-11
Integral primitive cutoff        ... 2.5e-12

Nuclear repulsion gradient       ... done
One Electron Gradient            ... done
Pre-screening matrix             ... done
RI-J gradient                    ... done
Exchange-correlation gradient    ... done
Dispersion correction            ... done

------------------
CARTESIAN GRADIENT
------------------

   1   H   :    0.014555205    0.000000000    0.000000000
   2   H   :   -0.007350700    0.000000000   -0.000000000
   3   H   :   -0.007204505   -0.000000000    0.000000000

Difference to translation invariance:
           :    0.0000000000   -0.0000000000    0.0000000000

Norm of the cartesian gradient     ...    0.0178267121
RMS gradient                       ...    0.0059422374
MAX gradient                       ...    0.0145552047

-------
TIMINGS
-------

Total SCF gradient time            ...        0.336 sec

One electron gradient       ....       0.000 sec  (  0.0%)
Prescreening matrices       ....       0.000 sec  (  0.0%)
RI-J Coulomb gradient       ....       0.085 sec  ( 25.3%)
XC gradient                 ....       0.012 sec  (  3.6%)
------------------------------------------------------------------------------
                         ORCA GEOMETRY RELAXATION STEP
------------------------------------------------------------------------------

Reading the OPT-File                    .... done
Getting information on internals        .... done
Copying old internal coords+grads       .... done
Making the new internal coordinates     .... (new redundants).... done
Validating the new internal coordinates .... (new redundants).... done
Calculating the B-matrix                .... done
Calculating the G,G- and P matrices     .... done
Transforming gradient to internals      .... done
Projecting the internal gradient        .... done
Number of atoms                         ....   3
Number of internal coordinates          ....   4
Current Energy                          ....    -1.654919774 Eh
Current gradient norm                   ....     0.017826712 Eh/bohr
Maximum allowed component of the step   ....  0.300
Current trust radius                    ....  0.300
Updating the Hessian (BFGS)             .... done
Forming the augmented Hessian           .... done
Diagonalizing the augmented Hessian     .... done
Last element of RFO vector              ....  0.998878644
Lowest eigenvalues of augmented Hessian:
 -0.000689875  0.180011022  0.180011022  0.307090318
Length of the computed step             ....  0.047397146
The final length of the internal step   ....  0.047397146
Converting the step to cartesian space:
 Initial RMS(Int)=    0.0236985731
Transforming coordinates:
 Iter   0:  RMS(Cart)=    0.0128998693 RMS(Int)=    0.0236985731
 Iter   1:  RMS(Cart)=    0.0000000017 RMS(Int)=    0.0000000000
Imposing constraints:
 Iter   0:  RMS(Cart)=    0.0000000000 RMS(Int)=    0.0000000000
CONVERGED
done
Storing new coordinates                 .... done

                                .--------------------.
          ----------------------|Geometry convergence|-------------------------
          Item                value                   Tolerance       Converged
          ---------------------------------------------------------------------
          Energy change      -0.0157310125            0.0000300000      NO
          RMS gradient        0.0072776024            0.0005000000      NO
          MAX gradient        0.0145552047            0.0020000000      NO
          RMS step            0.0236985731            0.0070000000      NO
          MAX step            0.0473971463            0.0100000000      NO
          ........................................................
          Max(Bonds)      0.0251      Max(Angles)    0.00
          Max(Dihed)        0.00      Max(Improp)    0.00
          ---------------------------------------------------------------------

The optimization has not yet converged - more geometry cycles are needed


    ---------------------------------------------------------------------------
                         Redundant Internal Coordinates
                            (Angstroem and degrees)

        Definition                    Value    dE/dq     Step     New-Value
    ----------------------------------------------------------------------------
     1. B(H   1,H   0)                0.8588 -0.014555  0.0251    0.8838   
     2. B(H   2,H   1)                1.0000 -0.007205  0.0000    1.0000 C 
     3. L(H   0,H   1,H   2, 1)       180.00  0.000000    0.00    180.00   
     4. L(H   0,H   1,H   2, 2)       180.00  0.000000    0.00    180.00   
    ----------------------------------------------------------------------------

         *************************************************************
         *                GEOMETRY OPTIMIZATION CYCLE   3            *
         *************************************************************
---------------------------------
CARTESIAN COORDINATES (ANGSTROEM)
---------------------------------
  H     -0.122556   -0.000000    0.000000
  H      0.761278    0.000000   -0.000000
  H      1.761278   -0.000000    0.000000

----------------------------
CARTESIAN COORDINATES (A.U.)
----------------------------
  NO LB      ZA    FRAG     MASS         X           Y           Z
   0 H     1.0000    0     1.008   -0.231598   -0.000000    0.000000
   1 H     1.0000    0     1.008    1.438607    0.000000   -0.000000
   2 H     1.0000    0     1.008    3.328333   -0.000000    0.000000

--------------------------------
INTERNAL COORDINATES (ANGSTROEM)
--------------------------------
 H      0   0   0     0.000000000000     0.00000000     0.00000000
 H      1   0   0     0.883834652032     0.00000000     0.00000000
 H      2   1   0     0.999999997925   179.99999915     0.00000000

---------------------------
INTERNAL COORDINATES (A.U.)
---------------------------
 H      0   0   0     0.000000000000     0.00000000     0.00000000
 H      1   0   0     1.670205440010     0.00000000     0.00000000
 H      2   1   0     1.889726130000   179.99999915     0.00000000



           ************************************************************
           *        Program running with 8 parallel MPI-processes     *
           *              working on a common directory               *
           ************************************************************
 One Electron integrals                  ... done
 Pre-screening matrix                    ... done


           ************************************************************
           *        Program running with 8 parallel MPI-processes     *
           *              working on a common directory               *
           ************************************************************

Diagonalization of the overlap matrix:
Smallest eigenvalue                        ... 2.828e-02
Time for diagonalization                   ...    0.000 sec
Threshold for overlap eigenvalues          ... 1.000e-08
Number of eigenvalues below threshold      ... 0
Time for construction of square roots      ...    0.000 sec
Total time needed                          ...    0.001 sec

-------------------
DFT GRID GENERATION
-------------------

General Integration Accuracy     IntAcc      ...  4.340
Radial Grid Type                 RadialGrid  ... Gauss-Chebyshev
Angular Grid (max. acc.)         AngularGrid ... Lebedev-110
Angular grid pruning method      GridPruning ... 3 (G Style)
Weight generation scheme         WeightScheme... Becke
Basis function cutoff            BFCut       ...    1.0000e-11
Integration weight cutoff        WCut        ...    1.0000e-14
Grids for H and He will be reduced by one unit

# of grid points (after initial pruning)     ...   2382 (   0.0 sec)
# of grid points (after weights+screening)   ...   2336 (   0.0 sec)
nearest neighbour list constructed           ...    0.0 sec
Grid point re-assignment to atoms done       ...    0.0 sec
Grid point division into batches done        ...    0.0 sec
Reduced shell lists constructed in    0.0 sec

Total number of grid points                  ...     2336
Total number of batches                      ...       39
Average number of points per batch           ...       59
Average number of grid points per atom       ...      779
Average number of shells per batch           ...     7.33 (81.48%)
Average number of basis functions per batch  ...    12.00 (80.00%)
Average number of large shells per batch     ...     7.00 (95.45%)
Average number of large basis fcns per batch ...    11.33 (94.44%)
Maximum spatial batch extension              ...  12.23, 21.59, 21.59 au
Average spatial batch extension              ...   1.12,  2.11,  2.36 au

Time for grid setup =    0.007 sec

--------------
SCF ITERATIONS
--------------
ITER       Energy         Delta-E        Max-DP      RMS-DP      [F,P]     Damp
               ***  Starting incremental Fock matrix formation  ***
  0     -1.6541283174   0.000000000000 0.00125239  0.00012907  0.0056154 0.7000
  1     -1.6541529086  -0.000024591166 0.00120014  0.00012906  0.0042346 0.7000
                               ***Turning on DIIS***
  2     -1.6541719139  -0.000019005361 0.00340237  0.00038144  0.0030293 0.0000
  3     -1.6542166750  -0.000044761077 0.00233950  0.00025043  0.0008614 0.0000
  4     -1.6542195328  -0.000002857844 0.00038779  0.00003665  0.0003334 0.0000
  5     -1.6542199409  -0.000000408059 0.00027206  0.00003226  0.0002014 0.0000
  6     -1.6542200193  -0.000000078416 0.00003449  0.00000477  0.0000340 0.0000
                 **** Energy Check signals convergence ****

               *****************************************************
               *                     SUCCESS                       *
               *           SCF CONVERGED AFTER   7 CYCLES          *
               *****************************************************

Setting up the final grid:

General Integration Accuracy     IntAcc      ...  4.670
Radial Grid Type                 RadialGrid  ... Gauss-Chebyshev
Angular Grid (max. acc.)         AngularGrid ... Lebedev-302
Angular grid pruning method      GridPruning ... 3 (G Style)
Weight generation scheme         WeightScheme... Becke
Basis function cutoff            BFCut       ...    1.0000e-11
Integration weight cutoff        WCut        ...    1.0000e-14
Grids for H and He will be reduced by one unit

# of grid points (after initial pruning)     ...  10182 (   0.0 sec)
# of grid points (after weights+screening)   ...  10064 (   0.0 sec)
nearest neighbour list constructed           ...    0.0 sec
Grid point re-assignment to atoms done       ...    0.0 sec
Grid point division into batches done        ...    0.0 sec
Reduced shell lists constructed in    0.0 sec

Total number of grid points                  ...    10064
Total number of batches                      ...      158
Average number of points per batch           ...       63
Average number of grid points per atom       ...     3355
Average number of shells per batch           ...     6.10 (67.72%)
Average number of basis functions per batch  ...     9.14 (60.95%)
Average number of large shells per batch     ...     5.43 (89.06%)
Average number of large basis fcns per batch ...     8.00 (87.50%)
Maximum spatial batch extension              ...  11.77, 15.43, 15.43 au
Average spatial batch extension              ...   0.92,  1.08,  1.02 au

Final grid set up in    0.0 sec
Final integration                            ... done (   0.0 sec)
Change in XC energy                          ...    -0.000722504
Integrated number of electrons               ...     3.000001184
Previous integrated no of electrons          ...     2.994718937
Total Energy       :           -1.65494253 Eh             -45.03328 eV
  Last Energy change         ...   -3.3046e-09  Tolerance :   1.0000e-08
  Last MAX-Density change    ...    6.3395e-06  Tolerance :   1.0000e-07
             **** THE GBW FILE WAS UPDATED (h3_subst_scan0_orca.gbw) ****
             **** DENSITY FILE WAS UPDATED (h3_subst_scan0_orca.scfp.tmp) ****
             **** ENERGY FILE WAS UPDATED (h3_subst_scan0_orca.en.tmp) ****
----------------------
UHF SPIN CONTAMINATION
----------------------

Warning: in a DFT calculation there is little theoretical justification to 
         calculate <S**2> as in Hartree-Fock theory. We will do it anyways
         but you should keep in mind that the values have only limited relevance

Expectation value of <S**2>     :     0.756714
Ideal value S*(S+1) for S=0.5   :     0.750000
Deviation                       :     0.006714

Total SCF time: 0 days 0 hours 0 min 0 sec 


-------------------------------------------------------------------------------
                          DFT DISPERSION CORRECTION                            
                                                                               
                              DFTD3 V3.1  Rev 1                                
                          USING Becke-Johnson damping                          
-------------------------------------------------------------------------------
-------------------------   ----------------
Dispersion correction           -0.000514459
-------------------------   ----------------


-------------------------   --------------------
FINAL SINGLE POINT ENERGY        -1.655456985202
-------------------------   --------------------



           ************************************************************
           *        Program running with 8 parallel MPI-processes     *
           *              working on a common directory               *
           ************************************************************
------------------------------------------------------------------------------
                         ORCA SCF GRADIENT CALCULATION
------------------------------------------------------------------------------

Gradient of the Kohn-Sham DFT energy:
Kohn-Sham wavefunction type      ... UKS
Hartree-Fock exchange scaling    ...    0.000
Number of operators              ...    2
Number of atoms                  ...    3
Basis set dimensions             ...   15
Integral neglect threshold       ... 2.5e-11
Integral primitive cutoff        ... 2.5e-12

Nuclear repulsion gradient       ... done
One Electron Gradient            ... done
Pre-screening matrix             ... done
RI-J gradient                    ... done
Exchange-correlation gradient    ... done
Dispersion correction            ... done

------------------
CARTESIAN GRADIENT
------------------

   1   H   :    0.007193514   -0.000000000   -0.000000000
   2   H   :   -0.003586928    0.000000000   -0.000000000
   3   H   :   -0.003606586   -0.000000000    0.000000000

Difference to translation invariance:
           :    0.0000000000    0.0000000000   -0.0000000000

Norm of the cartesian gradient     ...    0.0088102308
RMS gradient                       ...    0.0029367436
MAX gradient                       ...    0.0071935144

-------
TIMINGS
-------

Total SCF gradient time            ...        0.312 sec

One electron gradient       ....       0.001 sec  (  0.5%)
Prescreening matrices       ....       0.000 sec  (  0.0%)
RI-J Coulomb gradient       ....       0.085 sec  ( 27.2%)
XC gradient                 ....       0.008 sec  (  2.5%)
------------------------------------------------------------------------------
                         ORCA GEOMETRY RELAXATION STEP
------------------------------------------------------------------------------

Reading the OPT-File                    .... done
Getting information on internals        .... done
Copying old internal coords+grads       .... done
Making the new internal coordinates     .... (new redundants).... done
Validating the new internal coordinates .... (new redundants).... done
Calculating the B-matrix                .... done
Calculating the G,G- and P matrices     .... done
Transforming gradient to internals      .... done
Projecting the internal gradient        .... done
Number of atoms                         ....   3
Number of internal coordinates          ....   4
Current Energy                          ....    -1.655456985 Eh
Current gradient norm                   ....     0.008810231 Eh/bohr
Maximum allowed component of the step   ....  0.300
Current trust radius                    ....  0.300
Updating the Hessian (BFGS)             .... done
Forming the augmented Hessian           .... done
Diagonalizing the augmented Hessian     .... done
Last element of RFO vector              ....  0.998933774
Lowest eigenvalues of augmented Hessian:
 -0.000332451  0.155651725  0.180011022  0.180011022
Length of the computed step             ....  0.046215449
The final length of the internal step   ....  0.046215449
Converting the step to cartesian space:
 Initial RMS(Int)=    0.0231077246
Transforming coordinates:
 Iter   0:  RMS(Cart)=    0.0125782521 RMS(Int)=    0.0231077246
 Iter   1:  RMS(Cart)=    0.0000000013 RMS(Int)=    0.0000000149
Imposing constraints:
 Iter   0:  RMS(Cart)=    0.0000000000 RMS(Int)=    0.0000000000
CONVERGED
done
Storing new coordinates                 .... done

                                .--------------------.
          ----------------------|Geometry convergence|-------------------------
          Item                value                   Tolerance       Converged
          ---------------------------------------------------------------------
          Energy change      -0.0005372115            0.0000300000      NO
          RMS gradient        0.0035967572            0.0005000000      NO
          MAX gradient        0.0071935144            0.0020000000      NO
          RMS step            0.0231077246            0.0070000000      NO
          MAX step            0.0462154493            0.0100000000      NO
          ........................................................
          Max(Bonds)      0.0245      Max(Angles)    0.00
          Max(Dihed)        0.00      Max(Improp)    0.00
          ---------------------------------------------------------------------

The optimization has not yet converged - more geometry cycles are needed


    ---------------------------------------------------------------------------
                         Redundant Internal Coordinates
                            (Angstroem and degrees)

        Definition                    Value    dE/dq     Step     New-Value
    ----------------------------------------------------------------------------
     1. B(H   1,H   0)                0.8838 -0.007194  0.0245    0.9083   
     2. B(H   2,H   1)                1.0000 -0.003607  0.0000    1.0000 C 
     3. L(H   0,H   1,H   2, 1)       180.00  0.000000   -0.00    180.00   
     4. L(H   0,H   1,H   2, 2)       180.00  0.000000   -0.00    180.00   
    ----------------------------------------------------------------------------

         *************************************************************
         *                GEOMETRY OPTIMIZATION CYCLE   4            *
         *************************************************************
---------------------------------
CARTESIAN COORDINATES (ANGSTROEM)
---------------------------------
  H     -0.138861   -0.000000    0.000000
  H      0.769430   -0.000000    0.000000
  H      1.769430    0.000000   -0.000000

----------------------------
CARTESIAN COORDINATES (A.U.)
----------------------------
  NO LB      ZA    FRAG     MASS         X           Y           Z
   0 H     1.0000    0     1.008   -0.262408   -0.000000    0.000000
   1 H     1.0000    0     1.008    1.454012   -0.000000    0.000000
   2 H     1.0000    0     1.008    3.343739    0.000000   -0.000000

--------------------------------
INTERNAL COORDINATES (ANGSTROEM)
--------------------------------
 H      0   0   0     0.000000000000     0.00000000     0.00000000
 H      1   0   0     0.908290814446     0.00000000     0.00000000
 H      2   1   0     0.999999997925   180.00000000     0.00000000

---------------------------
INTERNAL COORDINATES (A.U.)
---------------------------
 H      0   0   0     0.000000000000     0.00000000     0.00000000
 H      1   0   0     1.716420889260     0.00000000     0.00000000
 H      2   1   0     1.889726130000   180.00000000     0.00000000



           ************************************************************
           *        Program running with 8 parallel MPI-processes     *
           *              working on a common directory               *
           ************************************************************
 One Electron integrals                  ... done
 Pre-screening matrix                    ... done


           ************************************************************
           *        Program running with 8 parallel MPI-processes     *
           *              working on a common directory               *
           ************************************************************

Diagonalization of the overlap matrix:
Smallest eigenvalue                        ... 2.956e-02
Time for diagonalization                   ...    0.001 sec
Threshold for overlap eigenvalues          ... 1.000e-08
Number of eigenvalues below threshold      ... 0
Time for construction of square roots      ...    0.001 sec
Total time needed                          ...    0.001 sec

-------------------
DFT GRID GENERATION
-------------------

General Integration Accuracy     IntAcc      ...  4.340
Radial Grid Type                 RadialGrid  ... Gauss-Chebyshev
Angular Grid (max. acc.)         AngularGrid ... Lebedev-110
Angular grid pruning method      GridPruning ... 3 (G Style)
Weight generation scheme         WeightScheme... Becke
Basis function cutoff            BFCut       ...    1.0000e-11
Integration weight cutoff        WCut        ...    1.0000e-14
Grids for H and He will be reduced by one unit

# of grid points (after initial pruning)     ...   2382 (   0.0 sec)
# of grid points (after weights+screening)   ...   2336 (   0.0 sec)
nearest neighbour list constructed           ...    0.0 sec
Grid point re-assignment to atoms done       ...    0.0 sec
Grid point division into batches done        ...    0.0 sec
Reduced shell lists constructed in    0.0 sec

Total number of grid points                  ...     2336
Total number of batches                      ...       39
Average number of points per batch           ...       59
Average number of grid points per atom       ...      779
Average number of shells per batch           ...     7.33 (81.48%)
Average number of basis functions per batch  ...    12.00 (80.00%)
Average number of large shells per batch     ...     7.00 (95.45%)
Average number of large basis fcns per batch ...    11.33 (94.44%)
Maximum spatial batch extension              ...  12.23, 21.59, 21.59 au
Average spatial batch extension              ...   1.12,  2.11,  2.36 au

Time for grid setup =    0.007 sec

--------------
SCF ITERATIONS
--------------
ITER       Energy         Delta-E        Max-DP      RMS-DP      [F,P]     Damp
               ***  Starting incremental Fock matrix formation  ***
  0     -1.6542976627   0.000000000000 0.00120678  0.00012172  0.0052658 0.7000
  1     -1.6543198968  -0.000022234139 0.00116030  0.00012315  0.0039873 0.7000
                               ***Turning on DIIS***
  2     -1.6543372789  -0.000017382050 0.00326746  0.00036658  0.0029110 0.0000
  3     -1.6543788044  -0.000041525539 0.00223996  0.00024148  0.0008056 0.0000
  4     -1.6543816083  -0.000002803913 0.00038266  0.00003690  0.0003314 0.0000
  5     -1.6543820212  -0.000000412823 0.00026748  0.00003223  0.0002008 0.0000
  6     -1.6543821016  -0.000000080479 0.00002978  0.00000441  0.0000347 0.0000
                 **** Energy Check signals convergence ****

               *****************************************************
               *                     SUCCESS                       *
               *           SCF CONVERGED AFTER   7 CYCLES          *
               *****************************************************

Setting up the final grid:

General Integration Accuracy     IntAcc      ...  4.670
Radial Grid Type                 RadialGrid  ... Gauss-Chebyshev
Angular Grid (max. acc.)         AngularGrid ... Lebedev-302
Angular grid pruning method      GridPruning ... 3 (G Style)
Weight generation scheme         WeightScheme... Becke
Basis function cutoff            BFCut       ...    1.0000e-11
Integration weight cutoff        WCut        ...    1.0000e-14
Grids for H and He will be reduced by one unit

# of grid points (after initial pruning)     ...  10182 (   0.0 sec)
# of grid points (after weights+screening)   ...  10064 (   0.0 sec)
nearest neighbour list constructed           ...    0.0 sec
Grid point re-assignment to atoms done       ...    0.0 sec
Grid point division into batches done        ...    0.0 sec
Reduced shell lists constructed in    0.0 sec

Total number of grid points                  ...    10064
Total number of batches                      ...      158
Average number of points per batch           ...       63
Average number of grid points per atom       ...     3355
Average number of shells per batch           ...     6.10 (67.72%)
Average number of basis functions per batch  ...     9.05 (60.32%)
Average number of large shells per batch     ...     5.43 (89.06%)
Average number of large basis fcns per batch ...     8.00 (88.42%)
Maximum spatial batch extension              ...  11.77, 15.43, 15.43 au
Average spatial batch extension              ...   0.92,  1.09,  1.02 au

Final grid set up in    0.0 sec
Final integration                            ... done (   0.0 sec)
Change in XC energy                          ...    -0.000727977
Integrated number of electrons               ...     3.000001178
Previous integrated no of electrons          ...     2.994523944
Total Energy       :           -1.65511008 Eh             -45.03784 eV
  Last Energy change         ...   -3.2373e-09  Tolerance :   1.0000e-08
  Last MAX-Density change    ...    6.3103e-06  Tolerance :   1.0000e-07
             **** THE GBW FILE WAS UPDATED (h3_subst_scan0_orca.gbw) ****
             **** DENSITY FILE WAS UPDATED (h3_subst_scan0_orca.scfp.tmp) ****
             **** ENERGY FILE WAS UPDATED (h3_subst_scan0_orca.en.tmp) ****
----------------------
UHF SPIN CONTAMINATION
----------------------

Warning: in a DFT calculation there is little theoretical justification to 
         calculate <S**2> as in Hartree-Fock theory. We will do it anyways
         but you should keep in mind that the values have only limited relevance

Expectation value of <S**2>     :     0.757198
Ideal value S*(S+1) for S=0.5   :     0.750000
Deviation                       :     0.007198

Total SCF time: 0 days 0 hours 0 min 0 sec 


-------------------------------------------------------------------------------
                          DFT DISPERSION CORRECTION                            
                                                                               
                              DFTD3 V3.1  Rev 1                                
                          USING Becke-Johnson damping                          
-------------------------------------------------------------------------------
-------------------------   ----------------
Dispersion correction           -0.000557417
-------------------------   ----------------


-------------------------   --------------------
FINAL SINGLE POINT ENERGY        -1.655667498750
-------------------------   --------------------



           ************************************************************
           *        Program running with 8 parallel MPI-processes     *
           *              working on a common directory               *
           ************************************************************
------------------------------------------------------------------------------
                         ORCA SCF GRADIENT CALCULATION
------------------------------------------------------------------------------

Gradient of the Kohn-Sham DFT energy:
Kohn-Sham wavefunction type      ... UKS
Hartree-Fock exchange scaling    ...    0.000
Number of operators              ...    2
Number of atoms                  ...    3
Basis set dimensions             ...   15
Integral neglect threshold       ... 2.5e-11
Integral primitive cutoff        ... 2.5e-12

Nuclear repulsion gradient       ... done
One Electron Gradient            ... done
Pre-screening matrix             ... done
RI-J gradient                    ... done
Exchange-correlation gradient    ... done
Dispersion correction            ... done

------------------
CARTESIAN GRADIENT
------------------

   1   H   :    0.001003915    0.000000000   -0.000000000
   2   H   :   -0.000945699    0.000000000   -0.000000000
   3   H   :   -0.000058216   -0.000000000    0.000000000

Difference to translation invariance:
           :    0.0000000000    0.0000000000   -0.0000000000

Norm of the cartesian gradient     ...    0.0013804281
RMS gradient                       ...    0.0004601427
MAX gradient                       ...    0.0010039151

-------
TIMINGS
-------

Total SCF gradient time            ...        0.338 sec

One electron gradient       ....       0.000 sec  (  0.0%)
Prescreening matrices       ....       0.000 sec  (  0.0%)
RI-J Coulomb gradient       ....       0.085 sec  ( 25.2%)
XC gradient                 ....       0.012 sec  (  3.6%)
------------------------------------------------------------------------------
                         ORCA GEOMETRY RELAXATION STEP
------------------------------------------------------------------------------

Reading the OPT-File                    .... done
Getting information on internals        .... done
Copying old internal coords+grads       .... done
Making the new internal coordinates     .... (new redundants).... done
Validating the new internal coordinates .... (new redundants).... done
Calculating the B-matrix                .... done
Calculating the G,G- and P matrices     .... done
Transforming gradient to internals      .... done
Projecting the internal gradient        .... done
Number of atoms                         ....   3
Number of internal coordinates          ....   4
Current Energy                          ....    -1.655667499 Eh
Current gradient norm                   ....     0.001380428 Eh/bohr
Maximum allowed component of the step   ....  0.300
Current trust radius                    ....  0.300
Updating the Hessian (BFGS)             .... done
Forming the augmented Hessian           .... done
Diagonalizing the augmented Hessian     .... done
Last element of RFO vector              ....  0.999971910
Lowest eigenvalues of augmented Hessian:
 -0.000007525  0.133936750  0.180011022  0.180011022
Length of the computed step             ....  0.007495441
The final length of the internal step   ....  0.007495441
Converting the step to cartesian space:
 Initial RMS(Int)=    0.0037477207
Transforming coordinates:
 Iter   0:  RMS(Cart)=    0.0020400008 RMS(Int)=    0.0037477207
 Iter   1:  RMS(Cart)=    0.0000000029 RMS(Int)=    0.0000000211
Imposing constraints:
 Iter   0:  RMS(Cart)=    0.0000000000 RMS(Int)=    0.0000000000
CONVERGED
done
[...]
                                 ORCA SCF
-------------------------------------------------------------------------------

------------
SCF SETTINGS
------------
Hamiltonian:
 Density Functional     Method          .... DFT(GTOs)
 Exchange Functional    Exchange        .... PBE
   PBE kappa parameter   XKappa         ....  0.804000
   PBE mue parameter    XMuePBE         ....  0.219520
 Correlation Functional Correlation     .... PBE
   PBE beta parameter  CBetaPBE         ....  0.066725
 LDA part of GGA corr.  LDAOpt          .... PW91-LDA
 Gradients option       PostSCFGGA      .... off
   Density functional embedding theory  .... OFF
   NL short-range parameter             ....  6.400000
 RI-approximation to the Coulomb term is turned on
   Number of auxiliary basis functions  .... 33


General Settings:
 Integral files         IntName         .... h3_subst_scan0_orca
 Hartree-Fock type      HFTyp           .... UHF
 Total Charge           Charge          ....    0
 Multiplicity           Mult            ....    2
 Number of Electrons    NEL             ....    3
 Basis Dimension        Dim             ....   15
 Nuclear Repulsion      ENuc            ....      1.3856520461 Eh

Convergence Acceleration:
 DIIS                   CNVDIIS         .... on
   Start iteration      DIISMaxIt       ....    12
   Startup error        DIISStart       ....  0.200000
   # of expansion vecs  DIISMaxEq       ....     5
   Bias factor          DIISBfac        ....   1.050
   Max. coefficient     DIISMaxC        ....  10.000
 Newton-Raphson         CNVNR           .... off
 SOSCF                  CNVSOSCF        .... off
 Level Shifting         CNVShift        .... on
   Level shift para.    LevelShift      ....    0.2500
   Turn off err/grad.   ShiftErr        ....    0.0010
 Zerner damping         CNVZerner       .... off
 Static damping         CNVDamp         .... on
   Fraction old density DampFac         ....    0.7000
   Max. Damping (<1)    DampMax         ....    0.9800
   Min. Damping (>=0)   DampMin         ....    0.0000
   Turn off err/grad.   DampErr         ....    0.1000
 Fernandez-Rico         CNVRico         .... off

SCF Procedure:
 Maximum # iterations   MaxIter         ....   250
 SCF integral mode      SCFMode         .... Direct
   Integral package                     .... LIBINT
 Reset frequency        DirectResetFreq ....    20
 Integral Threshold     Thresh          ....  2.500e-11 Eh
 Primitive CutOff       TCut            ....  2.500e-12 Eh

Convergence Tolerance:
 Convergence Check Mode ConvCheckMode   .... Total+1el-Energy
 Convergence forced     ConvForced      .... 0
 Energy Change          TolE            ....  1.000e-08 Eh
 1-El. energy change                    ....  1.000e-05 Eh
 DIIS Error             TolErr          ....  5.000e-07


Diagonalization of the overlap matrix:
Smallest eigenvalue                        ... 2.979e-02
Time for diagonalization                   ...    0.000 sec
Threshold for overlap eigenvalues          ... 1.000e-08
Number of eigenvalues below threshold      ... 0
Time for construction of square roots      ...    0.000 sec
Total time needed                          ...    0.001 sec

---------------------
INITIAL GUESS: MOREAD
---------------------
Guess MOs are being read from file: h3_subst_scan0_orca.gbw
Input Geometry matches current geometry (good)
Input basis set matches current basis set (good)
MOs were renormalized
MOs were reorthogonalized (Cholesky)
                      ------------------
                      INITIAL GUESS DONE (   0.0 sec)
                      ------------------
-------------------
DFT GRID GENERATION
-------------------

General Integration Accuracy     IntAcc      ...  4.340
Radial Grid Type                 RadialGrid  ... Gauss-Chebyshev
Angular Grid (max. acc.)         AngularGrid ... Lebedev-110
Angular grid pruning method      GridPruning ... 3 (G Style)
Weight generation scheme         WeightScheme... Becke
Basis function cutoff            BFCut       ...    1.0000e-11
Integration weight cutoff        WCut        ...    1.0000e-14
Grids for H and He will be reduced by one unit

# of grid points (after initial pruning)     ...   2382 (   0.0 sec)
# of grid points (after weights+screening)   ...   2336 (   0.0 sec)
nearest neighbour list constructed           ...    0.0 sec
Grid point re-assignment to atoms done       ...    0.0 sec
Grid point division into batches done        ...    0.0 sec
Reduced shell lists constructed in    0.0 sec

Total number of grid points                  ...     2336
Total number of batches                      ...       39
Average number of points per batch           ...       59
Average number of grid points per atom       ...      779
Average number of shells per batch           ...     7.33 (81.48%)
Average number of basis functions per batch  ...    12.00 (80.00%)
Average number of large shells per batch     ...     7.00 (95.45%)
Average number of large basis fcns per batch ...    11.33 (94.44%)
Maximum spatial batch extension              ...  12.23, 21.59, 21.59 au
Average spatial batch extension              ...   1.12,  2.11,  2.36 au

Time for grid setup =    0.007 sec

--------------
SCF ITERATIONS
--------------
ITER       Energy         Delta-E        Max-DP      RMS-DP      [F,P]     Damp
               ***  Starting incremental Fock matrix formation  ***
  0     -1.6543848439   0.000000000000 0.00002234  0.00000236  0.0000789 0.7000
                 **** Energy Check signals convergence ****

               *****************************************************
               *                     SUCCESS                       *
               *           SCF CONVERGED AFTER   1 CYCLES          *
               *****************************************************

Setting up the final grid:

General Integration Accuracy     IntAcc      ...  4.670
Radial Grid Type                 RadialGrid  ... Gauss-Chebyshev
Angular Grid (max. acc.)         AngularGrid ... Lebedev-302
Angular grid pruning method      GridPruning ... 3 (G Style)
Weight generation scheme         WeightScheme... Becke
Basis function cutoff            BFCut       ...    1.0000e-11
Integration weight cutoff        WCut        ...    1.0000e-14
Grids for H and He will be reduced by one unit

# of grid points (after initial pruning)     ...  10182 (   0.0 sec)
# of grid points (after weights+screening)   ...  10064 (   0.0 sec)
nearest neighbour list constructed           ...    0.0 sec
Grid point re-assignment to atoms done       ...    0.0 sec
Grid point division into batches done        ...    0.0 sec
Reduced shell lists constructed in    0.0 sec

Total number of grid points                  ...    10064
Total number of batches                      ...      158
Average number of points per batch           ...       63
Average number of grid points per atom       ...     3355
Average number of shells per batch           ...     6.10 (67.72%)
Average number of basis functions per batch  ...     9.05 (60.32%)
Average number of large shells per batch     ...     5.43 (89.06%)
Average number of large basis fcns per batch ...     8.00 (88.42%)
Maximum spatial batch extension              ...  11.77, 15.43, 15.43 au
Average spatial batch extension              ...   0.92,  1.09,  1.02 au

Final grid set up in    0.0 sec
Final integration                            ... done (   0.0 sec)
Change in XC energy                          ...    -0.000715326
Integrated number of electrons               ...     3.000001179
Previous integrated no of electrons          ...     2.994493811

----------------
TOTAL SCF ENERGY
----------------

Total Energy       :           -1.65510018 Eh             -45.03757 eV

Components:
Nuclear Repulsion  :            1.38565205 Eh              37.70551 eV
Electronic Energy  :           -3.04075222 Eh             -82.74307 eV
One Electron Energy:           -4.31154512 Eh            -117.32311 eV
Two Electron Energy:            1.27079289 Eh              34.58003 eV

Virial components:
Potential Energy   :           -3.22797303 Eh             -87.83761 eV
Kinetic Energy     :            1.57287285 Eh              42.80005 eV
Virial Ratio       :            2.05227843


DFT components:
N(Alpha)           :        2.000001033796 electrons
N(Beta)            :        1.000000145315 electrons
N(Total)           :        3.000001179111 electrons
E(X)               :       -0.926727487637 Eh       
E(C)               :       -0.062530501843 Eh       
E(XC)              :       -0.989257989480 Eh       
DFET-embed. en.    :        0.000000000000 Eh       

---------------
SCF CONVERGENCE
---------------

  Last Energy change         ...   -6.8055e-09  Tolerance :   1.0000e-08
  Last MAX-Density change    ...    9.2141e-06  Tolerance :   1.0000e-07
  Last RMS-Density change    ...    9.1476e-07  Tolerance :   5.0000e-09
  Last DIIS Error            ...    6.4453e-05  Tolerance :   5.0000e-07

             **** THE GBW FILE WAS UPDATED (h3_subst_scan0_orca.gbw) ****
             **** DENSITY FILE WAS UPDATED (h3_subst_scan0_orca.scfp.tmp) ****
             **** ENERGY FILE WAS UPDATED (h3_subst_scan0_orca.en.tmp) ****
----------------------
UHF SPIN CONTAMINATION
----------------------

Warning: in a DFT calculation there is little theoretical justification to 
         calculate <S**2> as in Hartree-Fock theory. We will do it anyways
         but you should keep in mind that the values have only limited relevance

Expectation value of <S**2>     :     0.757282
Ideal value S*(S+1) for S=0.5   :     0.750000
Deviation                       :     0.007282

----------------
ORBITAL ENERGIES
----------------
                 SPIN UP ORBITALS
  NO   OCC          E(Eh)            E(eV) 
   0   1.0000      -0.442231       -12.0337 
   1   1.0000      -0.219064        -5.9610 
   2   0.0000       0.084043         2.2869 
   3   0.0000       0.383655        10.4398 
   4   0.0000       0.391873        10.6634 
   5   0.0000       0.633158        17.2291 
   6   0.0000       1.000241        27.2179 
   7   0.0000       1.000241        27.2179 
   8   0.0000       1.306640        35.5555 
   9   0.0000       1.306640        35.5555 
  10   0.0000       1.428051        38.8592 
  11   0.0000       1.910863        51.9972 
  12   0.0000       1.910863        51.9972 
  13   0.0000       2.261813        61.5471 
  14   0.0000       3.396677        92.4283 

                 SPIN DOWN ORBITALS
  NO   OCC          E(Eh)            E(eV) 
   0   1.0000      -0.401674       -10.9301 
   1   0.0000      -0.124856        -3.3975 
   2   0.0000       0.129754         3.5308 
   3   0.0000       0.418081        11.3766 
   4   0.0000       0.462261        12.5788 
   5   0.0000       0.686179        18.6719 
   6   0.0000       1.037991        28.2452 
   7   0.0000       1.037991        28.2452 
   8   0.0000       1.410309        38.3765 
   9   0.0000       1.410309        38.3765 
  10   0.0000       1.514368        41.2080 
  11   0.0000       1.962029        53.3895 
  12   0.0000       1.962029        53.3895 
  13   0.0000       2.346093        63.8404 
  14   0.0000       3.453332        93.9699 

                    ********************************
                    * MULLIKEN POPULATION ANALYSIS *
                    ********************************

--------------------------------------------
MULLIKEN ATOMIC CHARGES AND SPIN POPULATIONS
--------------------------------------------
   0 H :    0.012001    0.504219
   1 H :   -0.014717   -0.142508
   2 H :    0.002716    0.638288
Sum of atomic charges         :   -0.0000000
Sum of atomic spin populations:    1.0000000

-----------------------------------------------------
MULLIKEN REDUCED ORBITAL CHARGES AND SPIN POPULATIONS
-----------------------------------------------------
CHARGE
  0 H s       :     0.979532  s :     0.979532
      pz      :     0.000000  p :     0.008468
      px      :     0.008468
      py      :     0.000000
  1 H s       :     0.999240  s :     0.999240
      pz      :     0.000000  p :     0.015477
      px      :     0.015477
      py      :     0.000000
  2 H s       :     0.989834  s :     0.989834
      pz      :     0.000000  p :     0.007449
      px      :     0.007449
      py      :     0.000000

SPIN
  0 H s       :     0.505744  s :     0.505744
      pz      :     0.000000  p :    -0.001524
      px      :    -0.001524
      py      :     0.000000
  1 H s       :    -0.157982  s :    -0.157982
      pz      :    -0.000000  p :     0.015474
      px      :     0.015474
      py      :    -0.000000
  2 H s       :     0.639120  s :     0.639120
      pz      :     0.000000  p :    -0.000832
      px      :    -0.000832
      py      :     0.000000


                     *******************************
                     * LOEWDIN POPULATION ANALYSIS *
                     *******************************

-------------------------------------------
LOEWDIN ATOMIC CHARGES AND SPIN POPULATIONS
-------------------------------------------
   0 H :    0.005040    0.420474
   1 H :   -0.006913    0.028434
   2 H :    0.001873    0.551092

----------------------------------------------------
LOEWDIN REDUCED ORBITAL CHARGES AND SPIN POPULATIONS
----------------------------------------------------
CHARGE
  0 H s       :     0.964739  s :     0.964739
      pz      :     0.000000  p :     0.030220
      px      :     0.030220
      py      :     0.000000
  1 H s       :     0.912882  s :     0.912882
      pz      :     0.000000  p :     0.094031
      px      :     0.094031
      py      :     0.000000
  2 H s       :     0.969928  s :     0.969928
      pz      :     0.000000  p :     0.028199
      px      :     0.028199
      py      :     0.000000

SPIN
  0 H s       :     0.422136  s :     0.422136
      pz      :    -0.000000  p :    -0.001662
      px      :    -0.001662
      py      :    -0.000000
  1 H s       :    -0.065185  s :    -0.065185
      pz      :     0.000000  p :     0.093619
      px      :     0.093619
      py      :     0.000000
  2 H s       :     0.551015  s :     0.551015
      pz      :    -0.000000  p :     0.000077
      px      :     0.000077
      py      :    -0.000000


                      *****************************
                      * MAYER POPULATION ANALYSIS *
                      *****************************

  NA   - Mulliken gross atomic population
  ZA   - Total nuclear charge
  QA   - Mulliken gross atomic charge
  VA   - Mayer's total valence
  BVA  - Mayer's bonded valence
  FA   - Mayer's free valence

  ATOM       NA         ZA         QA         VA         BVA        FA
  0 H      0.9880     1.0000     0.0120     0.9512     0.6955     0.2557
  1 H      1.0147     1.0000    -0.0147     1.0285     1.0049     0.0236
  2 H      0.9973     1.0000     0.0027     0.9508     0.5399     0.4109

  Mayer bond orders larger than 0.1
B(  0-H ,  1-H ) :   0.5802 B(  0-H ,  2-H ) :   0.1153 B(  1-H ,  2-H ) :   0.4247 


-------
TIMINGS
-------

Total SCF time: 0 days 0 hours 0 min 0 sec 

Total time                  ....       0.434 sec
Sum of individual times     ....       0.332 sec  ( 76.5%)

Fock matrix formation       ....       0.275 sec  ( 63.3%)
  Split-RI-J                ....       0.194 sec  ( 70.7% of F)
  XC integration            ....       0.066 sec  ( 24.0% of F)
    Basis function eval.    ....       0.002 sec  (  2.8% of XC)
    Density eval.           ....       0.001 sec  (  2.2% of XC)
    XC-Functional eval.     ....       0.002 sec  (  3.0% of XC)
    XC-Potential eval.      ....       0.001 sec  (  1.1% of XC)
Diagonalization             ....       0.001 sec  (  0.1%)
Density matrix formation    ....       0.000 sec  (  0.0%)
Population analysis         ....       0.002 sec  (  0.4%)
Initial guess               ....       0.002 sec  (  0.5%)
Orbital Transformation      ....       0.000 sec  (  0.0%)
Orbital Orthonormalization  ....       0.000 sec  (  0.1%)
DIIS solution               ....       0.000 sec  (  0.0%)
Grid generation             ....       0.053 sec  ( 12.2%)


-------------------------------------------------------------------------------
                          DFT DISPERSION CORRECTION                            
                                                                               
                              DFTD3 V3.1  Rev 1                                
                          USING Becke-Johnson damping                          
-------------------------------------------------------------------------------
The PBE functional is recognized
Active option DFTDOPT                   ...         4   

molecular C6(AA) [au] = 58.907346 


            DFT-D V3
 parameters
 s6 scaling factor         :     1.0000 
 a1 scaling factor         :     0.4289 
 s8 scaling factor         :     0.7875 
 a2 scaling factor         :     4.4407 
 ad hoc parameters k1-k3   :    16.0000     1.3333    -4.0000 

 Edisp/kcal,au: -0.353527408695  -0.000563381727 
 E6   /kcal   :  -0.277588087 
 E8   /kcal   :  -0.075939322 
 % E8         :  21.480462403 

-------------------------   ----------------
Dispersion correction           -0.000563382
-------------------------   ----------------


-------------------------   --------------------
FINAL SINGLE POINT ENERGY        -1.655663558204
-------------------------   --------------------

                                *** OPTIMIZATION RUN DONE ***

                            ***************************************
                            *     ORCA property calculations      *
                            ***************************************

                                    ---------------------
                                    Active property flags
                                    ---------------------
   (+) Dipole Moment


------------------------------------------------------------------------------
                       ORCA ELECTRIC PROPERTIES CALCULATION
------------------------------------------------------------------------------

Dipole Moment Calculation                       ... on
Quadrupole Moment Calculation                   ... off
Polarizability Calculation                      ... off
GBWName                                         ... h3_subst_scan0_orca.gbw
Electron density file                           ... h3_subst_scan0_orca.scfp.tmp
The origin for moment calculation is the CENTER OF MASS  = ( 1.511781,  0.000000  0.000000)

-------------
DIPOLE MOMENT
-------------
                                X             Y             Z
Electronic contribution:     -0.02008      -0.00000       0.00000
Nuclear contribution   :      0.00000       0.00000       0.00000
                        -----------------------------------------
Total Dipole Moment    :     -0.02008      -0.00000       0.00000
                        -----------------------------------------
Magnitude (a.u.)       :      0.02008
Magnitude (Debye)      :      0.05105



--------------------
Rotational spectrum 
--------------------
 
Rotational constants in cm-1:     0.000000     9.136518     9.136518 
Rotational constants in MHz :     0.000000 273905.922683 273905.922683 

 Dipole components along the rotational axes: 
x,y,z [a.u.] :    -0.020084     0.000000    -0.000000 
x,y,z [Debye]:    -0.051049     0.000000    -0.000000 

 

Timings for individual modules:

Sum of individual times         ...       22.720 sec (=   0.379 min)
GTO integral calculation        ...        6.032 sec (=   0.101 min)  26.5 %
SCF iterations                  ...       10.745 sec (=   0.179 min)  47.3 %
SCF Gradient evaluation         ...        5.809 sec (=   0.097 min)  25.6 %
Geometry relaxation             ...        0.135 sec (=   0.002 min)   0.6 %
                             ****ORCA TERMINATED NORMALLY****
TOTAL RUN TIME: 0 days 0 hours 0 minutes 24 seconds 268 msec
