
                                 *****************
                                 * O   R   C   A *
                                 *****************

           --- An Ab Initio, DFT and Semiempirical electronic structure package ---

                  #######################################################
                  #                        -***-                        #
                  #          Department of theory and spectroscopy      #
                  #               Directorship: Frank Neese             #
                  #        Max Planck Institute fuer Kohlenforschung    #
                  #                Kaiser Wilhelm Platz 1               #
                  #                 D-45470 Muelheim/Ruhr               #
                  #                      Germany                        #
                  #                                                     #
                  #                  All rights reserved                #
                  #                        -***-                        #
                  #######################################################


                         Program Version 4.1.1  - RELEASE  -


 With contributions from (in alphabetic order):
   Daniel Aravena         : Magnetic Properties
   Michael Atanasov       : Ab Initio Ligand Field Theory
   Alexander A. Auer      : GIAO ZORA
   Ute Becker             : Parallelization
   Giovanni Bistoni       : ED, Open-shell LED
   Martin Brehm           : Molecular dynamics
   Dmytro Bykov           : SCF Hessian
   Vijay G. Chilkuri      : MRCI spin determinant printing
   Dipayan Datta          : RHF DLPNO-CCSD density
   Achintya Kumar Dutta   : EOM-CC, STEOM-CC
   Dmitry Ganyushin       : Spin-Orbit,Spin-Spin,Magnetic field MRCI
   Miquel Garcia          : C-PCM Hessian
   Yang Guo               : DLPNO-NEVPT2, CIM, IAO-localization
   Andreas Hansen         : Spin unrestricted coupled pair/coupled cluster methods
   Benjamin Helmich-Paris : CASSCF linear response (MC-RPA)
   Lee Huntington         : MR-EOM, pCC
   Robert Izsak           : Overlap fitted RIJCOSX, COSX-SCS-MP3, EOM
   Christian Kollmar      : KDIIS, OOCD, Brueckner-CCSD(T), CCSD density
   Simone Kossmann        : Meta GGA functionals, TD-DFT gradient, OOMP2, MP2 Hessian
   Martin Krupicka        : AUTO-CI
   Lucas Lang             : DCDCAS
   Dagmar Lenk            : GEPOL surface, SMD
   Dimitrios Liakos       : Extrapolation schemes; parallel MDCI
   Dimitrios Manganas     : ROCIS; embedding schemes
   Dimitrios Pantazis     : SARC Basis sets
   Taras Petrenko         : DFT Hessian,TD-DFT gradient, ASA, ECA, R-Raman, ABS, FL, XAS/XES, NRVS
   Peter Pinski           : DLPNO-MP2, DLPNO-MP2 Gradient
   Christoph Reimann      : Effective Core Potentials
   Marius Retegan         : Local ZFS, SOC
   Christoph Riplinger    : Optimizer, TS searches, QM/MM, DLPNO-CCSD(T), (RO)-DLPNO pert. Triples
   Tobias Risthaus        : Range-separated hybrids, TD-DFT gradient, RPA, STAB
   Michael Roemelt        : Restricted open shell CIS
   Masaaki Saitow         : Open-shell DLPNO
   Barbara Sandhoefer     : DKH picture change effects
   Avijit Sen             : IP-ROCIS
   Kantharuban Sivalingam : CASSCF convergence, NEVPT2, FIC-MRCI
   Bernardo de Souza      : ESD, SOC TD-DFT
   Georgi Stoychev        : AutoAux, RI-MP2 NMR
   Willem Van den Heuvel  : Paramagnetic NMR
   Boris Wezisla          : Elementary symmetry handling
   Frank Wennmohs         : Technical directorship


 We gratefully acknowledge several colleagues who have allowed us to
 interface, adapt or use parts of their codes:
   Stefan Grimme, W. Hujo, H. Kruse,             : VdW corrections, initial TS optimization,
                  C. Bannwarth                     DFT functionals, gCP, sTDA/sTD-DF
   Ed Valeev                                     : LibInt (2-el integral package), F12 methods
   Garnet Chan, S. Sharma, J. Yang, R. Olivares  : DMRG
   Ulf Ekstrom                                   : XCFun DFT Library
   Mihaly Kallay                                 : mrcc  (arbitrary order and MRCC methods)
   Andreas Klamt, Michael Diedenhofen            : otool_cosmo (COSMO solvation model)
   Jiri Pittner, Ondrej Demel                    : Mk-CCSD
   Frank Weinhold                                : gennbo (NPA and NBO analysis)
   Christopher J. Cramer and Donald G. Truhlar   : smd solvation model
   Lars Goerigk                                  : TD-DFT with DH, B97 family of functionals
   V. Asgeirsson, H. Jonsson                     : NEB implementation
   FAccTs GmbH                                   : IRC, NEB, NEB-TS, Multilevel


 Your calculation uses the libint2 library for the computation of 2-el integrals
 For citations please refer to: http://libint.valeyev.net

 This ORCA versions uses:
   CBLAS   interface :  Fast vector & matrix operations
   LAPACKE interface :  Fast linear algebra routines
   SCALAPACK package :  Parallel linear algebra routines


Your calculation utilizes the atom-pairwise dispersion correction
with the Becke-Johnson damping scheme (D3BJ)
Cite in your paper:
S.Grimme, S.Ehrlich, L.Goerigk, J Comput Chem, (2011), 32, 1456–1465 
S.Grimme, J.Antony, S.Ehrlich and H.Krieg, J.Chem.Phys., 132, (2010), 154104 
   

----- Orbital basis set information -----
Your calculation utilizes the basis: def2-SVP
   F. Weigend and R. Ahlrichs, Phys. Chem. Chem. Phys. 7, 3297 (2005).

----- AuxJ basis set information -----
Your calculation utilizes the auxiliary basis: def2/J
   F. Weigend, Phys. Chem. Chem. Phys. 8, 1057 (2006).

================================================================================
                                        WARNINGS
                       Please study these warnings very carefully!
================================================================================


WARNING: your system is open-shell and RHF/RKS was chosen
  ===> : WILL SWITCH to UHF/UKS


WARNING: Geometry Optimization
  ===> : Switching off AutoStart
         For restart on a previous wavefunction, please use MOREAD

INFO   : the flag for use of LIBINT has been found!

================================================================================
                                       INPUT FILE
================================================================================
NAME = h3_subst_scan4_orca.inp
|  1> ! LooseOpt PBE RI D3BJ def2-SVP def2/J
|  2> %geom Constraints
|  3> { B 1 2 0.7 C }
|  4>     end
|  5> end
|  6> %geom MaxIter 100 end
|  7> %pal nprocs 8
|  8> end
|  9> %scf 
| 10> maxiter 250 
| 11> end
| 12> % maxcore 1000
| 13> *xyz 0 2
| 14> H  -1.32984300 -0.00000000 -0.00000000 
| 15> H   1.47742200  0.00000000  0.00000000 
| 16> H   2.25242200 -0.00000000 -0.00000000 
| 17> *
| 18> 
| 19>                          ****END OF INPUT****
================================================================================

                       *****************************
                       * Geometry Optimization Run *
                       *****************************

Geometry optimization settings:
Update method            Update   .... BFGS
Choice of coordinates    CoordSys .... Z-matrix Internals
Initial Hessian          InHess   .... Almoef's Model

Convergence Tolerances:
Energy Change            TolE     ....  3.0000e-05 Eh
Max. Gradient            TolMAXG  ....  2.0000e-03 Eh/bohr
RMS Gradient             TolRMSG  ....  5.0000e-04 Eh/bohr
Max. Displacement        TolMAXD  ....  1.0000e-02 bohr
RMS Displacement         TolRMSD  ....  7.0000e-03 bohr

------------------------------------------------------------------------------
                        ORCA OPTIMIZATION COORDINATE SETUP
------------------------------------------------------------------------------

The optimization will be done in new redundant internal coordinates
Making redundant internal coordinates   ...  (new redundants) done
Evaluating the initial hessian          ...  (Almloef) done
Evaluating the coordinates              ...  done
Calculating the B-matrix                .... done
Calculating the G-matrix                .... done
Diagonalizing the G-matrix              .... done
Imposing constraints:
 Iter   0:  RMS(Cart)=    0.0222706367 RMS(Int)=    0.0472431546
 Iter   1:  RMS(Cart)=    0.0074235456 RMS(Int)=    0.0157477182
 Iter   2:  RMS(Cart)=    0.0024745152 RMS(Int)=    0.0052492394
 Iter   3:  RMS(Cart)=    0.0008248384 RMS(Int)=    0.0017497465
 Iter   4:  RMS(Cart)=    0.0002749461 RMS(Int)=    0.0005832488
 Iter   5:  RMS(Cart)=    0.0000916487 RMS(Int)=    0.0001944163
 Iter   6:  RMS(Cart)=    0.0000305496 RMS(Int)=    0.0000648054
 Iter   7:  RMS(Cart)=    0.0000101832 RMS(Int)=    0.0000216018
 Iter   8:  RMS(Cart)=    0.0000033944 RMS(Int)=    0.0000072006
 Iter   9:  RMS(Cart)=    0.0000011315 RMS(Int)=    0.0000024002
 Iter  10:  RMS(Cart)=    0.0000003772 RMS(Int)=    0.0000008001
 Iter  11:  RMS(Cart)=    0.0000001257 RMS(Int)=    0.0000002667
 Iter  12:  RMS(Cart)=    0.0000000419 RMS(Int)=    0.0000000889
CONVERGED
The first mode is                       ....    1
The number of degrees of freedom        ....    4
Storing new coordinates                 .... done

    -----------------------------------------------------------------
                    Redundant Internal Coordinates


    -----------------------------------------------------------------
         Definition                    Initial Value    Approx d2E/dq
    -----------------------------------------------------------------
      1. B(H   1,H   0)                  2.8448         0.000126   
      2. B(H   2,H   1)                  0.7000         0.219300 C 
      3. B(H   2,H   0)                  3.5448         0.000007   
      4. L(H   0,H   1,H   2, 1)       180.0000         0.108028   
      5. L(H   0,H   1,H   2, 2)       180.0000         0.108028   
    -----------------------------------------------------------------

Number of atoms                         .... 3
Number of degrees of freedom            .... 5

         *************************************************************
         *                GEOMETRY OPTIMIZATION CYCLE   1            *
         *************************************************************
---------------------------------
CARTESIAN COORDINATES (ANGSTROEM)
---------------------------------
  H     -1.329843    0.000000    0.000000
  H      1.514922    0.000000    0.000000
  H      2.214922    0.000000    0.000000

----------------------------
CARTESIAN COORDINATES (A.U.)
----------------------------
  NO LB      ZA    FRAG     MASS         X           Y           Z
   0 H     1.0000    0     1.008   -2.513039    0.000000    0.000000
   1 H     1.0000    0     1.008    2.862788    0.000000    0.000000
   2 H     1.0000    0     1.008    4.185596    0.000000    0.000000

--------------------------------
INTERNAL COORDINATES (ANGSTROEM)
--------------------------------
 H      0   0   0     0.000000000000     0.00000000     0.00000000
 H      1   0   0     2.807265000000     0.00000000     0.00000000
 H      2   1   0     0.775000000000   179.99999774     0.00000000

---------------------------
INTERNAL COORDINATES (A.U.)
---------------------------
 H      0   0   0     0.000000000000     0.00000000     0.00000000
 H      1   0   0     5.304962035342     0.00000000     0.00000000
 H      2   1   0     1.464537753789   179.99999774     0.00000000

---------------------
BASIS SET INFORMATION
---------------------
There are 1 groups of distinct atoms

 Group   1 Type H   : 4s1p contracted to 2s1p pattern {31/1}

Atom   0H    basis set group =>   1
Atom   1H    basis set group =>   1
Atom   2H    basis set group =>   1
-------------------------------
AUXILIARY BASIS SET INFORMATION
-------------------------------
There are 1 groups of distinct atoms

 Group   1 Type H   : 5s2p1d contracted to 3s1p1d pattern {311/2/1}

Atom   0H    basis set group =>   1
Atom   1H    basis set group =>   1
Atom   2H    basis set group =>   1


           ************************************************************
           *        Program running with 8 parallel MPI-processes     *
           *              working on a common directory               *
           ************************************************************
------------------------------------------------------------------------------
                           ORCA GTO INTEGRAL CALCULATION
                           -- RI-GTO INTEGRALS CHOSEN --
------------------------------------------------------------------------------

                         BASIS SET STATISTICS AND STARTUP INFO

Gaussian basis set:
 # of primitive gaussian shells          ...   15
 # of primitive gaussian functions       ...   21
 # of contracted shells                  ...    9
 # of contracted basis functions         ...   15
 Highest angular momentum                ...    1
 Maximum contraction depth               ...    3
Auxiliary gaussian basis set:
 # of primitive gaussian shells          ...   24
 # of primitive gaussian functions       ...   48
 # of contracted shells                  ...   15
 # of contracted aux-basis functions     ...   33
 Highest angular momentum                ...    2
 Maximum contraction depth               ...    3
Ratio of auxiliary to basis functions    ...  2.20
Integral package used                  ... LIBINT
 One Electron integrals                  ... done
 Ordering auxiliary basis shells         ... done
 Integral threshhold             Thresh  ...  2.500e-11
 Primitive cut-off               TCut    ...  2.500e-12
 Pre-screening matrix                    ... done
 Shell pair data                         ... 
 Ordering of the shell pairs             ... done (   0.000 sec) 45 of 45 pairs
 Determination of significant pairs      ... done (   0.000 sec)
 Creation of shell pair data             ... done (   0.000 sec)
 Storage of shell pair data              ... done (   0.001 sec)
 Shell pair data done in (   0.001 sec)
 Computing two index integrals           ... done
 Cholesky decomposition of the V-matrix  ... done


Timings:
 Total evaluation time                   ...   0.132 sec (  0.002 min)
 One electron matrix time                ...   0.009 sec (  0.000 min) =  6.9%
 Schwartz matrix evaluation time         ...   0.110 sec (  0.002 min) = 82.8%
 Two index repulsion integral time       ...   0.000 sec (  0.000 min) =  0.1%
 Cholesky decomposition of V             ...   0.000 sec (  0.000 min) =  0.2%
 Three index repulsion integral time     ...   0.000 sec (  0.000 min) =  0.0%



           ************************************************************
           *        Program running with 8 parallel MPI-processes     *
           *              working on a common directory               *
           ************************************************************
-------------------------------------------------------------------------------
                                 ORCA SCF
-------------------------------------------------------------------------------

------------
SCF SETTINGS
------------
Hamiltonian:
 Density Functional     Method          .... DFT(GTOs)
 Exchange Functional    Exchange        .... PBE
   PBE kappa parameter   XKappa         ....  0.804000
   PBE mue parameter    XMuePBE         ....  0.219520
 Correlation Functional Correlation     .... PBE
   PBE beta parameter  CBetaPBE         ....  0.066725
 LDA part of GGA corr.  LDAOpt          .... PW91-LDA
 Gradients option       PostSCFGGA      .... off
   Density functional embedding theory  .... OFF
   NL short-range parameter             ....  6.400000
 RI-approximation to the Coulomb term is turned on
   Number of auxiliary basis functions  .... 33


General Settings:
 Integral files         IntName         .... h3_subst_scan4_orca
 Hartree-Fock type      HFTyp           .... UHF
 Total Charge           Charge          ....    0
 Multiplicity           Mult            ....    2
 Number of Electrons    NEL             ....    3
 Basis Dimension        Dim             ....   15
 Nuclear Repulsion      ENuc            ....      1.0912694351 Eh

Convergence Acceleration:
 DIIS                   CNVDIIS         .... on
   Start iteration      DIISMaxIt       ....    12
   Startup error        DIISStart       ....  0.200000
   # of expansion vecs  DIISMaxEq       ....     5
   Bias factor          DIISBfac        ....   1.050
   Max. coefficient     DIISMaxC        ....  10.000
 Newton-Raphson         CNVNR           .... off
 SOSCF                  CNVSOSCF        .... off
 Level Shifting         CNVShift        .... on
   Level shift para.    LevelShift      ....    0.2500
   Turn off err/grad.   ShiftErr        ....    0.0010
 Zerner damping         CNVZerner       .... off
 Static damping         CNVDamp         .... on
   Fraction old density DampFac         ....    0.7000
   Max. Damping (<1)    DampMax         ....    0.9800
   Min. Damping (>=0)   DampMin         ....    0.0000
   Turn off err/grad.   DampErr         ....    0.1000
 Fernandez-Rico         CNVRico         .... off

SCF Procedure:
 Maximum # iterations   MaxIter         ....   250
 SCF integral mode      SCFMode         .... Direct
   Integral package                     .... LIBINT
 Reset frequency        DirectResetFreq ....    20
 Integral Threshold     Thresh          ....  2.500e-11 Eh
 Primitive CutOff       TCut            ....  2.500e-12 Eh

Convergence Tolerance:
 Convergence Check Mode ConvCheckMode   .... Total+1el-Energy
 Convergence forced     ConvForced      .... 0
 Energy Change          TolE            ....  1.000e-08 Eh
 1-El. energy change                    ....  1.000e-05 Eh
 DIIS Error             TolErr          ....  5.000e-07


Diagonalization of the overlap matrix:
Smallest eigenvalue                        ... 3.603e-02
Time for diagonalization                   ...    0.001 sec
Threshold for overlap eigenvalues          ... 1.000e-08
Number of eigenvalues below threshold      ... 0
Time for construction of square roots      ...    0.001 sec
Total time needed                          ...    0.002 sec

-------------------
DFT GRID GENERATION
-------------------

General Integration Accuracy     IntAcc      ...  4.340
Radial Grid Type                 RadialGrid  ... Gauss-Chebyshev
Angular Grid (max. acc.)         AngularGrid ... Lebedev-110
Angular grid pruning method      GridPruning ... 3 (G Style)
Weight generation scheme         WeightScheme... Becke
Basis function cutoff            BFCut       ...    1.0000e-11
Integration weight cutoff        WCut        ...    1.0000e-14
Grids for H and He will be reduced by one unit

# of grid points (after initial pruning)     ...   2382 (   0.0 sec)
# of grid points (after weights+screening)   ...   2346 (   0.0 sec)
nearest neighbour list constructed           ...    0.0 sec
Grid point re-assignment to atoms done       ...    0.0 sec
Grid point division into batches done        ...    0.0 sec
Reduced shell lists constructed in    0.0 sec

Total number of grid points                  ...     2346
Total number of batches                      ...       38
Average number of points per batch           ...       61
Average number of grid points per atom       ...      782
Average number of shells per batch           ...     6.83 (75.93%)
Average number of basis functions per batch  ...    11.17 (74.44%)
Average number of large shells per batch     ...     6.17 (90.24%)
Average number of large basis fcns per batch ...     9.17 (82.09%)
Maximum spatial batch extension              ...  13.16, 21.59, 21.59 au
Average spatial batch extension              ...   1.28,  1.68,  2.44 au

Time for grid setup =    0.009 sec

------------------------------
INITIAL GUESS: MODEL POTENTIAL
------------------------------
Loading Hartree-Fock densities                     ... done
Calculating cut-offs                               ... done
Setting up the integral package                    ... done
Initializing the effective Hamiltonian             ... done
Starting the Coulomb interaction                   ... done (   0.0 sec)
Reading the grid                                   ... done
Mapping shells                                     ... done
Starting the XC term evaluation                    ... done (   0.0 sec)
  promolecular density results
     # of electrons  =      2.998497772
     EX              =     -0.816908120
     EC              =     -0.056761837
     EX+EC           =     -0.873669958
Transforming the Hamiltonian                       ... done (   0.0 sec)
Diagonalizing the Hamiltonian                      ... done (   0.0 sec)
Back transforming the eigenvectors                 ... done (   0.0 sec)
Now organizing SCF variables                       ... done
                      ------------------
                      INITIAL GUESS DONE (   0.1 sec)
                      ------------------
--------------
SCF ITERATIONS
--------------
ITER       Energy         Delta-E        Max-DP      RMS-DP      [F,P]     Damp
               ***  Starting incremental Fock matrix formation  ***
  0     -1.6495702143   0.000000000000 0.01623409  0.00142468  0.0513510 0.7000
  1     -1.6516782743  -0.002108059955 0.01568654  0.00135809  0.0360778 0.7000
                               ***Turning on DIIS***
  2     -1.6531123667  -0.001434092425 0.03931704  0.00335922  0.0229943 0.0000
  3     -1.6558345192  -0.002722152533 0.00258131  0.00036524  0.0076025 0.0000
  4     -1.6559260614  -0.000091542177 0.00116845  0.00012088  0.0019842 0.0000
  5     -1.6559332072  -0.000007145796 0.00050094  0.00004757  0.0004805 0.0000
  6     -1.6559338047  -0.000000597439 0.00003277  0.00000351  0.0000514 0.0000
                 **** Energy Check signals convergence ****

               *****************************************************
               *                     SUCCESS                       *
               *           SCF CONVERGED AFTER   7 CYCLES          *
               *****************************************************

Setting up the final grid:

General Integration Accuracy     IntAcc      ...  4.670
Radial Grid Type                 RadialGrid  ... Gauss-Chebyshev
Angular Grid (max. acc.)         AngularGrid ... Lebedev-302
Angular grid pruning method      GridPruning ... 3 (G Style)
Weight generation scheme         WeightScheme... Becke
Basis function cutoff            BFCut       ...    1.0000e-11
Integration weight cutoff        WCut        ...    1.0000e-14
Grids for H and He will be reduced by one unit

# of grid points (after initial pruning)     ...  10182 (   0.0 sec)
# of grid points (after weights+screening)   ...  10108 (   0.0 sec)
nearest neighbour list constructed           ...    0.0 sec
Grid point re-assignment to atoms done       ...    0.0 sec
Grid point division into batches done        ...    0.0 sec
Reduced shell lists constructed in    0.0 sec

Total number of grid points                  ...    10108
Total number of batches                      ...      160
Average number of points per batch           ...       63
Average number of grid points per atom       ...     3369
Average number of shells per batch           ...     5.71 (63.49%)
Average number of basis functions per batch  ...     8.29 (55.24%)
Average number of large shells per batch     ...     4.38 (76.67%)
Average number of large basis fcns per batch ...     5.52 (66.67%)
Maximum spatial batch extension              ...  13.03, 15.43, 15.43 au
Average spatial batch extension              ...   0.95,  1.05,  1.07 au

Final grid set up in    0.0 sec
Final integration                            ... done (   0.0 sec)
Change in XC energy                          ...    -0.000184191
Integrated number of electrons               ...     2.999988331
Previous integrated no of electrons          ...     2.999085249

----------------
TOTAL SCF ENERGY
----------------

Total Energy       :           -1.65611800 Eh             -45.06526 eV

Components:
Nuclear Repulsion  :            1.09126944 Eh              29.69495 eV
Electronic Energy  :           -2.74738744 Eh             -74.76021 eV
One Electron Energy:           -3.72467035 Eh            -101.35343 eV
Two Electron Energy:            0.97728292 Eh              26.59322 eV

Virial components:
Potential Energy   :           -3.28713778 Eh             -89.44757 eV
Kinetic Energy     :            1.63101978 Eh              44.38230 eV
Virial Ratio       :            2.01538806


DFT components:
N(Alpha)           :        1.999988987753 electrons
N(Beta)            :        0.999999343509 electrons
N(Total)           :        2.999988331263 electrons
E(X)               :       -0.962247697355 Eh       
E(C)               :       -0.051481494083 Eh       
E(XC)              :       -1.013729191439 Eh       
DFET-embed. en.    :        0.000000000000 Eh       

---------------
SCF CONVERGENCE
---------------

  Last Energy change         ...   -6.6968e-09  Tolerance :   1.0000e-08
  Last MAX-Density change    ...    4.8890e-06  Tolerance :   1.0000e-07
  Last RMS-Density change    ...    5.5289e-07  Tolerance :   5.0000e-09
  Last DIIS Error            ...    7.8113e-06  Tolerance :   5.0000e-07

             **** THE GBW FILE WAS UPDATED (h3_subst_scan4_orca.gbw) ****
             **** DENSITY FILE WAS UPDATED (h3_subst_scan4_orca.scfp.tmp) ****
             **** ENERGY FILE WAS UPDATED (h3_subst_scan4_orca.en.tmp) ****
----------------------
UHF SPIN CONTAMINATION
----------------------

Warning: in a DFT calculation there is little theoretical justification to 
         calculate <S**2> as in Hartree-Fock theory. We will do it anyways
         but you should keep in mind that the values have only limited relevance

Expectation value of <S**2>     :     0.750002
Ideal value S*(S+1) for S=0.5   :     0.750000
Deviation                       :     0.000002

----------------
ORBITAL ENERGIES
----------------
                 SPIN UP ORBITALS
  NO   OCC          E(Eh)            E(eV) 
   0   1.0000      -0.383877       -10.4458 
   1   1.0000      -0.276539        -7.5250 
   2   0.0000       0.069790         1.8991 
   3   0.0000       0.290367         7.9013 
   4   0.0000       0.422020        11.4837 
   5   0.0000       0.728939        19.8354 
   6   0.0000       1.111371        30.2419 
   7   0.0000       1.111371        30.2419 
   8   0.0000       1.284521        34.9536 
   9   0.0000       1.284521        34.9536 
  10   0.0000       1.303013        35.4568 
  11   0.0000       1.794894        48.8415 
  12   0.0000       1.914157        52.0868 
  13   0.0000       1.914157        52.0868 
  14   0.0000       3.636600        98.9569 

                 SPIN DOWN ORBITALS
  NO   OCC          E(Eh)            E(eV) 
   0   1.0000      -0.383320       -10.4307 
   1   0.0000       0.042741         1.1630 
   2   0.0000       0.129796         3.5319 
   3   0.0000       0.314185         8.5494 
   4   0.0000       0.728376        19.8201 
   5   0.0000       0.886733        24.1292 
   6   0.0000       1.111594        30.2480 
   7   0.0000       1.111594        30.2480 
   8   0.0000       1.790337        48.7175 
   9   0.0000       1.821720        49.5715 
  10   0.0000       1.821720        49.5715 
  11   0.0000       1.848599        50.3029 
  12   0.0000       1.914470        52.0954 
  13   0.0000       1.914470        52.0954 
  14   0.0000       3.637373        98.9780 

                    ********************************
                    * MULLIKEN POPULATION ANALYSIS *
                    ********************************

--------------------------------------------
MULLIKEN ATOMIC CHARGES AND SPIN POPULATIONS
--------------------------------------------
   0 H :    0.003640    0.995528
   1 H :   -0.002682    0.002262
   2 H :   -0.000958    0.002210
Sum of atomic charges         :   -0.0000000
Sum of atomic spin populations:    1.0000000

-----------------------------------------------------
MULLIKEN REDUCED ORBITAL CHARGES AND SPIN POPULATIONS
-----------------------------------------------------
CHARGE
  0 H s       :     0.996340  s :     0.996340
      pz      :     0.000000  p :     0.000019
      px      :     0.000019
      py      :     0.000000
  1 H s       :     0.992941  s :     0.992941
      pz      :     0.000000  p :     0.009741
      px      :     0.009741
      py      :     0.000000
  2 H s       :     0.991073  s :     0.991073
      pz      :     0.000000  p :     0.009886
      px      :     0.009886
      py      :     0.000000

SPIN
  0 H s       :     0.995516  s :     0.995516
      pz      :    -0.000000  p :     0.000012
      px      :     0.000012
      py      :     0.000000
  1 H s       :     0.002177  s :     0.002177
      pz      :     0.000000  p :     0.000085
      px      :     0.000085
      py      :     0.000000
  2 H s       :     0.002201  s :     0.002201
      pz      :     0.000000  p :     0.000009
      px      :     0.000009
      py      :     0.000000


                     *******************************
                     * LOEWDIN POPULATION ANALYSIS *
                     *******************************

-------------------------------------------
LOEWDIN ATOMIC CHARGES AND SPIN POPULATIONS
-------------------------------------------
   0 H :    0.003565    0.995404
   1 H :   -0.002841    0.002478
   2 H :   -0.000724    0.002118

----------------------------------------------------
LOEWDIN REDUCED ORBITAL CHARGES AND SPIN POPULATIONS
----------------------------------------------------
CHARGE
  0 H s       :     0.996421  s :     0.996421
      pz      :     0.000000  p :     0.000014
      px      :     0.000014
      py      :     0.000000
  1 H s       :     0.974318  s :     0.974318
      pz      :     0.000000  p :     0.028523
      px      :     0.028523
      py      :     0.000000
  2 H s       :     0.972485  s :     0.972485
      pz      :     0.000000  p :     0.028238
      px      :     0.028238
      py      :     0.000000

SPIN
  0 H s       :     0.995396  s :     0.995396
      pz      :    -0.000000  p :     0.000008
      px      :     0.000008
      py      :     0.000000
  1 H s       :     0.002008  s :     0.002008
      pz      :     0.000000  p :     0.000470
      px      :     0.000470
      py      :     0.000000
  2 H s       :     0.002167  s :     0.002167
      pz      :     0.000000  p :    -0.000049
      px      :    -0.000049
      py      :     0.000000


                      *****************************
                      * MAYER POPULATION ANALYSIS *
                      *****************************

  NA   - Mulliken gross atomic population
  ZA   - Total nuclear charge
  QA   - Mulliken gross atomic charge
  VA   - Mayer's total valence
  BVA  - Mayer's bonded valence
  FA   - Mayer's free valence

  ATOM       NA         ZA         QA         VA         BVA        FA
  0 H      0.9964     1.0000     0.0036     1.0006     0.0095     0.9911
  1 H      1.0027     1.0000    -0.0027     1.0061     1.0061     0.0000
  2 H      1.0010     1.0000    -0.0010     0.9981     0.9981     0.0000

  Mayer bond orders larger than 0.1
B(  1-H ,  2-H ) :   0.9974 

-------
TIMINGS
-------

Total SCF time: 0 days 0 hours 0 min 1 sec 

Total time                  ....       1.150 sec
Sum of individual times     ....       1.045 sec  ( 90.9%)

Fock matrix formation       ....       0.904 sec  ( 78.6%)
  Split-RI-J                ....       0.744 sec  ( 82.3% of F)
  XC integration            ....       0.140 sec  ( 15.5% of F)
    Basis function eval.    ....       0.002 sec  (  1.4% of XC)
    Density eval.           ....       0.002 sec  (  1.4% of XC)
    XC-Functional eval.     ....       0.003 sec  (  1.9% of XC)
    XC-Potential eval.      ....       0.001 sec  (  0.5% of XC)
Diagonalization             ....       0.001 sec  (  0.1%)
Density matrix formation    ....       0.000 sec  (  0.0%)
Population analysis         ....       0.001 sec  (  0.1%)
Initial guess               ....       0.095 sec  (  8.3%)
Orbital Transformation      ....       0.000 sec  (  0.0%)
Orbital Orthonormalization  ....       0.000 sec  (  0.0%)
DIIS solution               ....       0.001 sec  (  0.1%)
Grid generation             ....       0.041 sec  (  3.6%)


-------------------------------------------------------------------------------
                          DFT DISPERSION CORRECTION                            
                                                                               
                              DFTD3 V3.1  Rev 1                                
                          USING Becke-Johnson damping                          
-------------------------------------------------------------------------------
The PBE functional is recognized
Active option DFTDOPT                   ...         4   

molecular C6(AA) [au] = 38.787834 


            DFT-D V3
 parameters
 s6 scaling factor         :     1.0000 
 a1 scaling factor         :     0.4289 
 s8 scaling factor         :     0.7875 
 a2 scaling factor         :     4.4407 
 ad hoc parameters k1-k3   :    16.0000     1.3333    -4.0000 

 Edisp/kcal,au: -0.140776901344  -0.000224342248 
 E6   /kcal   :  -0.110904106 
 E8   /kcal   :  -0.029872796 
 % E8         :  21.219955421 

-------------------------   ----------------
Dispersion correction           -0.000224342
-------------------------   ----------------


-------------------------   --------------------
FINAL SINGLE POINT ENERGY        -1.656342344506
-------------------------   --------------------



           ************************************************************
           *        Program running with 8 parallel MPI-processes     *
           *              working on a common directory               *
           ************************************************************
------------------------------------------------------------------------------
                         ORCA SCF GRADIENT CALCULATION
------------------------------------------------------------------------------

Gradient of the Kohn-Sham DFT energy:
Kohn-Sham wavefunction type      ... UKS
Hartree-Fock exchange scaling    ...    0.000
Number of operators              ...    2
Number of atoms                  ...    3
Basis set dimensions             ...   15
Integral neglect threshold       ... 2.5e-11
Integral primitive cutoff        ... 2.5e-12

Nuclear repulsion gradient       ... done
One Electron Gradient            ... done
Pre-screening matrix             ... done
RI-J gradient                    ... done
Exchange-correlation gradient    ... done
Dispersion correction            ... done

------------------
CARTESIAN GRADIENT
------------------

   1   H   :    0.000021353    0.000000000   -0.000000000
   2   H   :    0.056122597   -0.000000000    0.000000000
   3   H   :   -0.056143950   -0.000000000    0.000000000

Difference to translation invariance:
           :    0.0000000000    0.0000000000    0.0000000000

Norm of the cartesian gradient     ...    0.0793844411
RMS gradient                       ...    0.0264614804
MAX gradient                       ...    0.0561439502

-------
TIMINGS
-------

Total SCF gradient time            ...        0.335 sec

One electron gradient       ....       0.000 sec  (  0.1%)
Prescreening matrices       ....       0.000 sec  (  0.0%)
RI-J Coulomb gradient       ....       0.085 sec  ( 25.4%)
XC gradient                 ....       0.011 sec  (  3.4%)
------------------------------------------------------------------------------
                         ORCA GEOMETRY RELAXATION STEP
------------------------------------------------------------------------------

Reading the OPT-File                    .... done
Getting information on internals        .... done
Copying old internal coords+grads       .... done
Making the new internal coordinates     .... (new redundants).... done
Validating the new internal coordinates .... (new redundants).... done
Calculating the B-matrix                .... done
Calculating the G,G- and P matrices     .... done
Transforming gradient to internals      .... done
Projecting the internal gradient        .... done
Number of atoms                         ....   3
Number of internal coordinates          ....   5
Current Energy                          ....    -1.656342345 Eh
Current gradient norm                   ....     0.079384441 Eh/bohr
Maximum allowed component of the step   ....  0.300
Current trust radius                    ....  0.300
Evaluating the initial hessian          ....  (Almloef) done
Projecting the Hessian                  .... done
Forming the augmented Hessian           .... done
Diagonalizing the augmented Hessian     .... done
Last element of RFO vector              ....  0.972042062
Lowest eigenvalues of augmented Hessian:
 -0.000003647  0.000062506  0.108630732  0.108630732 1000.000000000
Length of the computed step             ....  0.241560321
The final length of the internal step   ....  0.241560321
Converting the step to cartesian space:
 Initial RMS(Int)=    0.1080290596
Transforming coordinates:
 Iter   0:  RMS(Cart)=    0.0464883054 RMS(Int)=    0.1080290596
 Iter   1:  RMS(Cart)=    0.0000000070 RMS(Int)=    0.0000000000
Imposing constraints:
 Iter   0:  RMS(Cart)=    0.0000000140 RMS(Int)=    0.0000000296
CONVERGED
done
Storing new coordinates                 .... done

                                .--------------------.
          ----------------------|Geometry convergence|-------------------------
          Item                value                   Tolerance       Converged
          ---------------------------------------------------------------------
          RMS gradient        0.0000067525            0.0005000000      YES
          MAX gradient        0.0000106766            0.0020000000      YES
          RMS step            0.1080290596            0.0070000000      NO
          MAX step            0.1708089409            0.0100000000      NO
          ........................................................
          Max(Bonds)      0.0904      Max(Angles)    0.00
          Max(Dihed)        0.00      Max(Improp)    0.00
          ---------------------------------------------------------------------

The optimization has not yet converged - more geometry cycles are needed


    ---------------------------------------------------------------------------
                         Redundant Internal Coordinates
                            (Angstroem and degrees)

        Definition                    Value    dE/dq     Step     New-Value
    ----------------------------------------------------------------------------
     1. B(H   1,H   0)                2.8448  0.018700  0.0904    2.9352   
     2. B(H   2,H   1)                0.7000 -0.037422  0.0000    0.7000 C 
     3. B(H   2,H   0)                3.5448 -0.018722  0.0904    3.6352   
     4. L(H   0,H   1,H   2, 1)       180.00 -0.000000    0.00    180.00   
     5. L(H   0,H   1,H   2, 2)       180.00 -0.000000    0.00    180.00   
    ----------------------------------------------------------------------------

         *************************************************************
         *                GEOMETRY OPTIMIZATION CYCLE   2            *
         *************************************************************
---------------------------------
CARTESIAN COORDINATES (ANGSTROEM)
---------------------------------
  H     -1.390102    0.000000   -0.000000
  H      1.545051   -0.000000    0.000000
  H      2.245051    0.000000   -0.000000

----------------------------
CARTESIAN COORDINATES (A.U.)
----------------------------
  NO LB      ZA    FRAG     MASS         X           Y           Z
   0 H     1.0000    0     1.008   -2.626912    0.000000   -0.000000
   1 H     1.0000    0     1.008    2.919724   -0.000000    0.000000
   2 H     1.0000    0     1.008    4.242532    0.000000   -0.000000

--------------------------------
INTERNAL COORDINATES (ANGSTROEM)
--------------------------------
 H      0   0   0     0.000000000000     0.00000000     0.00000000
 H      1   0   0     2.935153191657     0.00000000     0.00000000
 H      2   1   0     0.700000013699   179.99999829     0.00000000

---------------------------
INTERNAL COORDINATES (A.U.)
---------------------------
 H      0   0   0     0.000000000000     0.00000000     0.00000000
 H      1   0   0     5.546635693337     0.00000000     0.00000000
 H      2   1   0     1.322808319632   179.99999829     0.00000000



           ************************************************************
           *        Program running with 8 parallel MPI-processes     *
           *              working on a common directory               *
           ************************************************************
 One Electron integrals                  ... done
 Pre-screening matrix                    ... done


           ************************************************************
           *        Program running with 8 parallel MPI-processes     *
           *              working on a common directory               *
           ************************************************************

Diagonalization of the overlap matrix:
Smallest eigenvalue                        ... 3.606e-02
Time for diagonalization                   ...    0.000 sec
Threshold for overlap eigenvalues          ... 1.000e-08
Number of eigenvalues below threshold      ... 0
Time for construction of square roots      ...    0.000 sec
Total time needed                          ...    0.001 sec

-------------------
DFT GRID GENERATION
-------------------

General Integration Accuracy     IntAcc      ...  4.340
Radial Grid Type                 RadialGrid  ... Gauss-Chebyshev
Angular Grid (max. acc.)         AngularGrid ... Lebedev-110
Angular grid pruning method      GridPruning ... 3 (G Style)
Weight generation scheme         WeightScheme... Becke
Basis function cutoff            BFCut       ...    1.0000e-11
Integration weight cutoff        WCut        ...    1.0000e-14
Grids for H and He will be reduced by one unit

# of grid points (after initial pruning)     ...   2382 (   0.0 sec)
# of grid points (after weights+screening)   ...   2346 (   0.0 sec)
nearest neighbour list constructed           ...    0.0 sec
Grid point re-assignment to atoms done       ...    0.0 sec
Grid point division into batches done        ...    0.0 sec
Reduced shell lists constructed in    0.0 sec

Total number of grid points                  ...     2346
Total number of batches                      ...       38
Average number of points per batch           ...       61
Average number of grid points per atom       ...      782
Average number of shells per batch           ...     6.83 (75.93%)
Average number of basis functions per batch  ...    11.17 (74.44%)
Average number of large shells per batch     ...     6.17 (90.24%)
Average number of large basis fcns per batch ...     9.17 (82.09%)
Maximum spatial batch extension              ...  13.16, 21.59, 21.59 au
Average spatial batch extension              ...   1.27,  1.68,  2.44 au

Time for grid setup =    0.004 sec

--------------
SCF ITERATIONS
--------------
ITER       Energy         Delta-E        Max-DP      RMS-DP      [F,P]     Damp
               ***  Starting incremental Fock matrix formation  ***
  0     -1.6559621164   0.000000000000 0.00016316  0.00001788  0.0007048 0.7000
  1     -1.6559626298  -0.000000513425 0.00016832  0.00001963  0.0005517 0.7000
                               ***Turning on DIIS***
  2     -1.6559630459  -0.000000416070 0.00063936  0.00006398  0.0004230 0.0000
  3     -1.6559640888  -0.000001042968 0.00004230  0.00000459  0.0000777 0.0000
  4     -1.6559641025  -0.000000013648 0.00001683  0.00000177  0.0000229 0.0000
                 **** Energy Check signals convergence ****

               *****************************************************
               *                     SUCCESS                       *
               *           SCF CONVERGED AFTER   5 CYCLES          *
               *****************************************************

Setting up the final grid:

General Integration Accuracy     IntAcc      ...  4.670
Radial Grid Type                 RadialGrid  ... Gauss-Chebyshev
Angular Grid (max. acc.)         AngularGrid ... Lebedev-302
Angular grid pruning method      GridPruning ... 3 (G Style)
Weight generation scheme         WeightScheme... Becke
Basis function cutoff            BFCut       ...    1.0000e-11
Integration weight cutoff        WCut        ...    1.0000e-14
Grids for H and He will be reduced by one unit

# of grid points (after initial pruning)     ...  10182 (   0.0 sec)
# of grid points (after weights+screening)   ...  10108 (   0.0 sec)
nearest neighbour list constructed           ...    0.0 sec
Grid point re-assignment to atoms done       ...    0.0 sec
Grid point division into batches done        ...    0.0 sec
Reduced shell lists constructed in    0.0 sec

Total number of grid points                  ...    10108
Total number of batches                      ...      160
Average number of points per batch           ...       63
Average number of grid points per atom       ...     3369
Average number of shells per batch           ...     5.71 (63.49%)
Average number of basis functions per batch  ...     8.29 (55.24%)
Average number of large shells per batch     ...     4.24 (74.17%)
Average number of large basis fcns per batch ...     5.29 (63.79%)
Maximum spatial batch extension              ...  13.20, 15.43, 15.43 au
Average spatial batch extension              ...   0.92,  1.10,  1.13 au

Final grid set up in    0.0 sec
Final integration                            ... done (   0.0 sec)
Change in XC energy                          ...    -0.000166604
Integrated number of electrons               ...     2.999989466
Previous integrated no of electrons          ...     2.999072688
Total Energy       :           -1.65613071 Eh             -45.06561 eV
  Last Energy change         ...   -1.2256e-09  Tolerance :   1.0000e-08
  Last MAX-Density change    ...    4.7673e-06  Tolerance :   1.0000e-07
             **** THE GBW FILE WAS UPDATED (h3_subst_scan4_orca.gbw) ****
             **** DENSITY FILE WAS UPDATED (h3_subst_scan4_orca.scfp.tmp) ****
             **** ENERGY FILE WAS UPDATED (h3_subst_scan4_orca.en.tmp) ****
----------------------
UHF SPIN CONTAMINATION
----------------------

Warning: in a DFT calculation there is little theoretical justification to 
         calculate <S**2> as in Hartree-Fock theory. We will do it anyways
         but you should keep in mind that the values have only limited relevance

Expectation value of <S**2>     :     0.750001
Ideal value S*(S+1) for S=0.5   :     0.750000
Deviation                       :     0.000001

Total SCF time: 0 days 0 hours 0 min 0 sec 


-------------------------------------------------------------------------------
                          DFT DISPERSION CORRECTION                            
                                                                               
                              DFTD3 V3.1  Rev 1                                
                          USING Becke-Johnson damping                          
-------------------------------------------------------------------------------
-------------------------   ----------------
Dispersion correction           -0.000213251
-------------------------   ----------------


-------------------------   --------------------
FINAL SINGLE POINT ENERGY        -1.656343958137
-------------------------   --------------------



           ************************************************************
           *        Program running with 8 parallel MPI-processes     *
           *              working on a common directory               *
           ************************************************************
------------------------------------------------------------------------------
                         ORCA SCF GRADIENT CALCULATION
------------------------------------------------------------------------------

Gradient of the Kohn-Sham DFT energy:
Kohn-Sham wavefunction type      ... UKS
Hartree-Fock exchange scaling    ...    0.000
Number of operators              ...    2
Number of atoms                  ...    3
Basis set dimensions             ...   15
Integral neglect threshold       ... 2.5e-11
Integral primitive cutoff        ... 2.5e-12

Nuclear repulsion gradient       ... done
One Electron Gradient            ... done
Pre-screening matrix             ... done
RI-J gradient                    ... done
Exchange-correlation gradient    ... done
Dispersion correction            ... done

------------------
CARTESIAN GRADIENT
------------------

   1   H   :   -0.000008589    0.000000000   -0.000000000
   2   H   :    0.056074034    0.000000001   -0.000000001
   3   H   :   -0.056065445   -0.000000001    0.000000001

Difference to translation invariance:
           :    0.0000000000   -0.0000000000    0.0000000000

Norm of the cartesian gradient     ...    0.0792945872
RMS gradient                       ...    0.0264315291
MAX gradient                       ...    0.0560740342

-------
TIMINGS
-------

Total SCF gradient time            ...        0.328 sec

One electron gradient       ....       0.002 sec  (  0.5%)
Prescreening matrices       ....       0.000 sec  (  0.0%)
RI-J Coulomb gradient       ....       0.085 sec  ( 25.9%)
XC gradient                 ....       0.008 sec  (  2.3%)
------------------------------------------------------------------------------
                         ORCA GEOMETRY RELAXATION STEP
------------------------------------------------------------------------------

Reading the OPT-File                    .... done
Getting information on internals        .... done
Copying old internal coords+grads       .... done
Making the new internal coordinates     .... (new redundants).... done
Validating the new internal coordinates .... (new redundants).... done
Calculating the B-matrix                .... done
Calculating the G,G- and P matrices     .... done
Transforming gradient to internals      .... done
Projecting the internal gradient        .... done
Number of atoms                         ....   3
Number of internal coordinates          ....   5
Current Energy                          ....    -1.656343958 Eh
Current gradient norm                   ....     0.079294587 Eh/bohr
Maximum allowed component of the step   ....  0.300
Current trust radius                    ....  0.300
Updating the Hessian (BFGS)             .... done
Forming the augmented Hessian           .... done
Diagonalizing the augmented Hessian     .... done
Last element of RFO vector              ....  0.997633449
Lowest eigenvalues of augmented Hessian:
 -0.000000419  0.000088121  0.108630732  0.108630732 999.998466037
Length of the computed step             ....  0.068919933
The final length of the internal step   ....  0.068919933
Converting the step to cartesian space:
 Initial RMS(Int)=    0.0308219309
Transforming coordinates:
 Iter   0:  RMS(Cart)=    0.0132636472 RMS(Int)=    0.0308219309
 Iter   1:  RMS(Cart)=    0.0000000003 RMS(Int)=    0.0000000000
Imposing constraints:
 Iter   0:  RMS(Cart)=    0.0000000073 RMS(Int)=    0.0000000155
CONVERGED
done
Storing new coordinates                 .... done

                                .--------------------.
          ----------------------|Geometry convergence|-------------------------
          Item                value                   Tolerance       Converged
          ---------------------------------------------------------------------
          Energy change      -0.0000016136            0.0000300000      YES
          RMS gradient        0.0000027160            0.0005000000      YES
          MAX gradient        0.0000042944            0.0020000000      YES
          RMS step            0.0308219309            0.0070000000      NO
          MAX step            0.0487337602            0.0100000000      NO
          ........................................................
          Max(Bonds)      0.0258      Max(Angles)    0.00
          Max(Dihed)        0.00      Max(Improp)    0.00
          ---------------------------------------------------------------------

The optimization has not yet converged - more geometry cycles are needed


    ---------------------------------------------------------------------------
                         Redundant Internal Coordinates
                            (Angstroem and degrees)

        Definition                    Value    dE/dq     Step     New-Value
    ----------------------------------------------------------------------------
     1. B(H   1,H   0)                2.9352  0.018694 -0.0258    2.9094   
     2. B(H   2,H   1)                0.7000 -0.037380  0.0000    0.7000 C 
     3. B(H   2,H   0)                3.6352 -0.018686 -0.0258    3.6094   
     4. L(H   0,H   1,H   2, 1)       180.00  0.000000   -0.00    180.00   
     5. L(H   0,H   1,H   2, 2)       180.00  0.000000   -0.00    180.00   
    ----------------------------------------------------------------------------

         *************************************************************
         *                GEOMETRY OPTIMIZATION CYCLE   3            *
         *************************************************************
---------------------------------
CARTESIAN COORDINATES (ANGSTROEM)
---------------------------------
  H     -1.372909    0.000000   -0.000000
  H      1.536455   -0.000000    0.000000
  H      2.236455    0.000000   -0.000000

----------------------------
CARTESIAN COORDINATES (A.U.)
----------------------------
  NO LB      ZA    FRAG     MASS         X           Y           Z
   0 H     1.0000    0     1.008   -2.594423    0.000000   -0.000000
   1 H     1.0000    0     1.008    2.903479   -0.000000    0.000000
   2 H     1.0000    0     1.008    4.226288    0.000000   -0.000000

--------------------------------
INTERNAL COORDINATES (ANGSTROEM)
--------------------------------
 H      0   0   0     0.000000000000     0.00000000     0.00000000
 H      1   0   0     2.909364404702     0.00000000     0.00000000
 H      2   1   0     0.700000006227   180.00000000     0.00000000

---------------------------
INTERNAL COORDINATES (A.U.)
---------------------------
 H      0   0   0     0.000000000000     0.00000000     0.00000000
 H      1   0   0     5.497901948666     0.00000000     0.00000000
 H      2   1   0     1.322808305513   180.00000000     0.00000000



           ************************************************************
           *        Program running with 8 parallel MPI-processes     *
           *              working on a common directory               *
           ************************************************************
 One Electron integrals                  ... done
 Pre-screening matrix                    ... done


           ************************************************************
           *        Program running with 8 parallel MPI-processes     *
           *              working on a common directory               *
           ************************************************************

Diagonalization of the overlap matrix:
Smallest eigenvalue                        ... 3.605e-02
Time for diagonalization                   ...    0.001 sec
Threshold for overlap eigenvalues          ... 1.000e-08
Number of eigenvalues below threshold      ... 0
Time for construction of square roots      ...    0.000 sec
Total time needed                          ...    0.001 sec

-------------------
DFT GRID GENERATION
-------------------

General Integration Accuracy     IntAcc      ...  4.340
Radial Grid Type                 RadialGrid  ... Gauss-Chebyshev
Angular Grid (max. acc.)         AngularGrid ... Lebedev-110
Angular grid pruning method      GridPruning ... 3 (G Style)
Weight generation scheme         WeightScheme... Becke
Basis function cutoff            BFCut       ...    1.0000e-11
Integration weight cutoff        WCut        ...    1.0000e-14
Grids for H and He will be reduced by one unit

# of grid points (after initial pruning)     ...   2382 (   0.0 sec)
# of grid points (after weights+screening)   ...   2346 (   0.0 sec)
nearest neighbour list constructed           ...    0.0 sec
Grid point re-assignment to atoms done       ...    0.0 sec
Grid point division into batches done        ...    0.0 sec
Reduced shell lists constructed in    0.0 sec

Total number of grid points                  ...     2346
Total number of batches                      ...       38
Average number of points per batch           ...       61
Average number of grid points per atom       ...      782
Average number of shells per batch           ...     6.83 (75.93%)
Average number of basis functions per batch  ...    11.17 (74.44%)
Average number of large shells per batch     ...     6.17 (90.24%)
Average number of large basis fcns per batch ...     9.17 (82.09%)
Maximum spatial batch extension              ...  13.16, 21.59, 21.59 au
Average spatial batch extension              ...   1.27,  1.68,  2.44 au

Time for grid setup =    0.008 sec

--------------
SCF ITERATIONS
--------------
ITER       Energy         Delta-E        Max-DP      RMS-DP      [F,P]     Damp
               ***  Starting incremental Fock matrix formation  ***
  0     -1.6559569015   0.000000000000 0.00004212  0.00000503  0.0001844 0.7000
  1     -1.6559569374  -0.000000035882 0.00005252  0.00000564  0.0001442 0.7000
                               ***Turning on DIIS***
  2     -1.6559569666  -0.000000029256 0.00019434  0.00001867  0.0001091 0.0000
  3     -1.6559570399  -0.000000073269 0.00000962  0.00000110  0.0000197 0.0000
                 **** Energy Check signals convergence ****

               *****************************************************
               *                     SUCCESS                       *
               *           SCF CONVERGED AFTER   4 CYCLES          *
               *****************************************************

Setting up the final grid:

General Integration Accuracy     IntAcc      ...  4.670
Radial Grid Type                 RadialGrid  ... Gauss-Chebyshev
Angular Grid (max. acc.)         AngularGrid ... Lebedev-302
Angular grid pruning method      GridPruning ... 3 (G Style)
Weight generation scheme         WeightScheme... Becke
Basis function cutoff            BFCut       ...    1.0000e-11
Integration weight cutoff        WCut        ...    1.0000e-14
Grids for H and He will be reduced by one unit

# of grid points (after initial pruning)     ...  10182 (   0.0 sec)
# of grid points (after weights+screening)   ...  10108 (   0.0 sec)
nearest neighbour list constructed           ...    0.0 sec
Grid point re-assignment to atoms done       ...    0.0 sec
Grid point division into batches done        ...    0.0 sec
Reduced shell lists constructed in    0.0 sec

Total number of grid points                  ...    10108
Total number of batches                      ...      160
Average number of points per batch           ...       63
Average number of grid points per atom       ...     3369
Average number of shells per batch           ...     5.71 (63.49%)
Average number of basis functions per batch  ...     8.29 (55.24%)
Average number of large shells per batch     ...     4.33 (75.83%)
Average number of large basis fcns per batch ...     5.38 (64.94%)
Maximum spatial batch extension              ...  13.15, 15.43, 15.43 au
Average spatial batch extension              ...   0.92,  1.10,  1.13 au

Final grid set up in    0.0 sec
Final integration                            ... done (   0.0 sec)
Change in XC energy                          ...    -0.000170559
Integrated number of electrons               ...     2.999989125
Previous integrated no of electrons          ...     2.999077450
Total Energy       :           -1.65612760 Eh             -45.06552 eV
  Last Energy change         ...   -8.8025e-10  Tolerance :   1.0000e-08
  Last MAX-Density change    ...    4.0053e-06  Tolerance :   1.0000e-07
             **** THE GBW FILE WAS UPDATED (h3_subst_scan4_orca.gbw) ****
             **** DENSITY FILE WAS UPDATED (h3_subst_scan4_orca.scfp.tmp) ****
             **** ENERGY FILE WAS UPDATED (h3_subst_scan4_orca.en.tmp) ****
----------------------
UHF SPIN CONTAMINATION
----------------------

Warning: in a DFT calculation there is little theoretical justification to 
         calculate <S**2> as in Hartree-Fock theory. We will do it anyways
         but you should keep in mind that the values have only limited relevance

Expectation value of <S**2>     :     0.750001
Ideal value S*(S+1) for S=0.5   :     0.750000
Deviation                       :     0.000001

Total SCF time: 0 days 0 hours 0 min 0 sec 


-------------------------------------------------------------------------------
                          DFT DISPERSION CORRECTION                            
                                                                               
                              DFTD3 V3.1  Rev 1                                
                          USING Becke-Johnson damping                          
-------------------------------------------------------------------------------
-------------------------   ----------------
Dispersion correction           -0.000216386
-------------------------   ----------------


-------------------------   --------------------
FINAL SINGLE POINT ENERGY        -1.656343985201
-------------------------   --------------------



           ************************************************************
           *        Program running with 8 parallel MPI-processes     *
           *              working on a common directory               *
           ************************************************************
------------------------------------------------------------------------------
                         ORCA SCF GRADIENT CALCULATION
------------------------------------------------------------------------------

Gradient of the Kohn-Sham DFT energy:
Kohn-Sham wavefunction type      ... UKS
Hartree-Fock exchange scaling    ...    0.000
Number of operators              ...    2
Number of atoms                  ...    3
Basis set dimensions             ...   15
Integral neglect threshold       ... 2.5e-11
Integral primitive cutoff        ... 2.5e-12

Nuclear repulsion gradient       ... done
One Electron Gradient            ... done
Pre-screening matrix             ... done
RI-J gradient                    ... done
Exchange-correlation gradient    ... done
Dispersion correction            ... done

------------------
CARTESIAN GRADIENT
------------------

   1   H   :   -0.000001004    0.000000000   -0.000000000
   2   H   :    0.056081404    0.000000001   -0.000000001
   3   H   :   -0.056080400   -0.000000001    0.000000001

Difference to translation invariance:
           :   -0.0000000000   -0.0000000000   -0.0000000000

Norm of the cartesian gradient     ...    0.0793103719
RMS gradient                       ...    0.0264367906
MAX gradient                       ...    0.0560814038

-------
TIMINGS
-------

Total SCF gradient time            ...        0.301 sec

One electron gradient       ....       0.002 sec  (  0.5%)
Prescreening matrices       ....       0.000 sec  (  0.0%)
RI-J Coulomb gradient       ....       0.085 sec  ( 28.1%)
XC gradient                 ....       0.007 sec  (  2.3%)
------------------------------------------------------------------------------
                         ORCA GEOMETRY RELAXATION STEP
------------------------------------------------------------------------------

Reading the OPT-File                    .... done
Getting information on internals        .... done
Copying old internal coords+grads       .... done
Making the new internal coordinates     .... (new redundants).... done
Validating the new internal coordinates .... (new redundants).... done
Calculating the B-matrix                .... done
Calculating the G,G- and P matrices     .... done
Transforming gradient to internals      .... done
Projecting the internal gradient        .... done
Number of atoms                         ....   3
Number of internal coordinates          ....   5
Current Energy                          ....    -1.656343985 Eh
Current gradient norm                   ....     0.079310372 Eh/bohr
Maximum allowed component of the step   ....  0.300
Current trust radius                    ....  0.300
Updating the Hessian (BFGS)             .... done
Forming the augmented Hessian           .... done
Diagonalizing the augmented Hessian     .... done
Last element of RFO vector              ....  0.999958340
Lowest eigenvalues of augmented Hessian:
 -0.000000006  0.000077778  0.108630732  0.108630732 999.994999803
Length of the computed step             ....  0.009128240
The final length of the internal step   ....  0.009128240
Converting the step to cartesian space:
 Initial RMS(Int)=    0.0040822728
Transforming coordinates:
 Iter   0:  RMS(Cart)=    0.0017567305 RMS(Int)=    0.0040822728
 Iter   1:  RMS(Cart)=    0.0000000089 RMS(Int)=    0.0000000267
Imposing constraints:
 Iter   0:  RMS(Cart)=    0.0000000021 RMS(Int)=    0.0000000045
CONVERGED
done
Storing new coordinates                 .... done

                                .--------------------.
          ----------------------|Geometry convergence|-------------------------
          Item                value                   Tolerance       Converged
          ---------------------------------------------------------------------
          Energy change      -0.0000000271            0.0000300000      YES
          RMS gradient        0.0000003175            0.0005000000      YES
          MAX gradient        0.0000005020            0.0020000000      YES
          RMS step            0.0040822728            0.0070000000      YES
          MAX step            0.0064546410            0.0100000000      YES
          ........................................................
          Max(Bonds)      0.0034      Max(Angles)    0.00
          Max(Dihed)        0.00      Max(Improp)    0.00
          ---------------------------------------------------------------------

                    ***********************HURRAY********************
                    ***        THE OPTIMIZATION HAS CONVERGED     ***
                    *************************************************


    ---------------------------------------------------------------------------
                         Redundant Internal Coordinates

                          --- Optimized Parameters ---  
                            (Angstroem and degrees)

        Definition                    OldVal   dE/dq     Step     FinalVal
    ----------------------------------------------------------------------------
     1. B(H   1,H   0)                2.9094  0.018694 -0.0034    2.9059   
     2. B(H   2,H   1)                0.7000 -0.037387 -0.0000    0.7000 C 
     3. B(H   2,H   0)                3.6094 -0.018693 -0.0034    3.6059   
     4. L(H   0,H   1,H   2, 1)       180.00  0.000000    0.00    180.00   
     5. L(H   0,H   1,H   2, 2)       180.00  0.000000    0.00    180.00   
    ----------------------------------------------------------------------------
                 *******************************************************
                 *** FINAL ENERGY EVALUATION AT THE STATIONARY POINT ***
                 ***               (AFTER    3 CYCLES)               ***
                 *******************************************************
---------------------------------
CARTESIAN COORDINATES (ANGSTROEM)
---------------------------------
  H     -1.370632   -0.000000    0.000000
  H      1.535317    0.000000   -0.000000
  H      2.235317   -0.000000    0.000000

----------------------------
CARTESIAN COORDINATES (A.U.)
----------------------------
  NO LB      ZA    FRAG     MASS         X           Y           Z
   0 H     1.0000    0     1.008   -2.590119   -0.000000    0.000000
   1 H     1.0000    0     1.008    2.901328    0.000000   -0.000000
   2 H     1.0000    0     1.008    4.224136   -0.000000    0.000000

--------------------------------
INTERNAL COORDINATES (ANGSTROEM)
--------------------------------
 H      0   0   0     0.000000000000     0.00000000     0.00000000
 H      1   0   0     2.905948759189     0.00000000     0.00000000
 H      2   1   0     0.700000000425   179.99999791     0.00000000

---------------------------
INTERNAL COORDINATES (A.U.)
---------------------------
 H      0   0   0     0.000000000000     0.00000000     0.00000000
 H      1   0   0     5.491447314076     0.00000000     0.00000000
 H      2   1   0     1.322808294548   179.99999791     0.00000000

---------------------
BASIS SET INFORMATION
---------------------
There are 1 groups of distinct atoms

 Group   1 Type H   : 4s1p contracted to 2s1p pattern {31/1}

Atom   0H    basis set group =>   1
Atom   1H    basis set group =>   1
Atom   2H    basis set group =>   1
-------------------------------
AUXILIARY BASIS SET INFORMATION
-------------------------------
There are 1 groups of distinct atoms

 Group   1 Type H   : 5s2p1d contracted to 3s1p1d pattern {311/2/1}

Atom   0H    basis set group =>   1
Atom   1H    basis set group =>   1
Atom   2H    basis set group =>   1


           ************************************************************
           *        Program running with 8 parallel MPI-processes     *
           *              working on a common directory               *
           ************************************************************
------------------------------------------------------------------------------
                           ORCA GTO INTEGRAL CALCULATION
                           -- RI-GTO INTEGRALS CHOSEN --
------------------------------------------------------------------------------

                         BASIS SET STATISTICS AND STARTUP INFO

Gaussian basis set:
 # of primitive gaussian shells          ...   15
 # of primitive gaussian functions       ...   21
 # of contracted shells                  ...    9
 # of contracted basis functions         ...   15
 Highest angular momentum                ...    1
 Maximum contraction depth               ...    3
Auxiliary gaussian basis set:
 # of primitive gaussian shells          ...   24
 # of primitive gaussian functions       ...   48
 # of contracted shells                  ...   15
 # of contracted aux-basis functions     ...   33
 Highest angular momentum                ...    2
 Maximum contraction depth               ...    3
Ratio of auxiliary to basis functions    ...  2.20
Integral package used                  ... LIBINT
 One Electron integrals                  ... done
 Ordering auxiliary basis shells         ... done
 Integral threshhold             Thresh  ...  2.500e-11
 Primitive cut-off               TCut    ...  2.500e-12
 Pre-screening matrix                    ... done
 Shell pair data                         ... 
 Ordering of the shell pairs             ... done (   0.000 sec) 45 of 45 pairs
 Determination of significant pairs      ... done (   0.000 sec)
 Creation of shell pair data             ... done (   0.000 sec)
 Storage of shell pair data              ... done (   0.001 sec)
 Shell pair data done in (   0.001 sec)
 Computing two index integrals           ... done
 Cholesky decomposition of the V-matrix  ... done


Timings:
 Total evaluation time                   ...   0.136 sec (  0.002 min)
 One electron matrix time                ...   0.011 sec (  0.000 min) =  8.4%
 Schwartz matrix evaluation time         ...   0.109 sec (  0.002 min) = 80.6%
 Two index repulsion integral time       ...   0.000 sec (  0.000 min) =  0.1%
 Cholesky decomposition of V             ...   0.000 sec (  0.000 min) =  0.2%
 Three index repulsion integral time     ...   0.000 sec (  0.000 min) =  0.0%



           ************************************************************
           *        Program running with 8 parallel MPI-processes     *
           *              working on a common directory               *
           ************************************************************
-------------------------------------------------------------------------------
                                 ORCA SCF
-------------------------------------------------------------------------------

------------
SCF SETTINGS
------------
Hamiltonian:
 Density Functional     Method          .... DFT(GTOs)
 Exchange Functional    Exchange        .... PBE
   PBE kappa parameter   XKappa         ....  0.804000
   PBE mue parameter    XMuePBE         ....  0.219520
 Correlation Functional Correlation     .... PBE
   PBE beta parameter  CBetaPBE         ....  0.066725
 LDA part of GGA corr.  LDAOpt          .... PW91-LDA
 Gradients option       PostSCFGGA      .... off
   Density functional embedding theory  .... OFF
   NL short-range parameter             ....  6.400000
 RI-approximation to the Coulomb term is turned on
   Number of auxiliary basis functions  .... 33


General Settings:
 Integral files         IntName         .... h3_subst_scan4_orca
 Hartree-Fock type      HFTyp           .... UHF
 Total Charge           Charge          ....    0
 Multiplicity           Mult            ....    2
 Number of Electrons    NEL             ....    3
 Basis Dimension        Dim             ....   15
 Nuclear Repulsion      ENuc            ....      1.0848199680 Eh

Convergence Acceleration:
 DIIS                   CNVDIIS         .... on
   Start iteration      DIISMaxIt       ....    12
   Startup error        DIISStart       ....  0.200000
   # of expansion vecs  DIISMaxEq       ....     5
   Bias factor          DIISBfac        ....   1.050
   Max. coefficient     DIISMaxC        ....  10.000
 Newton-Raphson         CNVNR           .... off
 SOSCF                  CNVSOSCF        .... off
 Level Shifting         CNVShift        .... on
   Level shift para.    LevelShift      ....    0.2500
   Turn off err/grad.   ShiftErr        ....    0.0010
 Zerner damping         CNVZerner       .... off
 Static damping         CNVDamp         .... on
   Fraction old density DampFac         ....    0.7000
   Max. Damping (<1)    DampMax         ....    0.9800
   Min. Damping (>=0)   DampMin         ....    0.0000
   Turn off err/grad.   DampErr         ....    0.1000
 Fernandez-Rico         CNVRico         .... off

SCF Procedure:
 Maximum # iterations   MaxIter         ....   250
 SCF integral mode      SCFMode         .... Direct
   Integral package                     .... LIBINT
 Reset frequency        DirectResetFreq ....    20
 Integral Threshold     Thresh          ....  2.500e-11 Eh
 Primitive CutOff       TCut            ....  2.500e-12 Eh

Convergence Tolerance:
 Convergence Check Mode ConvCheckMode   .... Total+1el-Energy
 Convergence forced     ConvForced      .... 0
 Energy Change          TolE            ....  1.000e-08 Eh
 1-El. energy change                    ....  1.000e-05 Eh
 DIIS Error             TolErr          ....  5.000e-07


Diagonalization of the overlap matrix:
Smallest eigenvalue                        ... 3.605e-02
Time for diagonalization                   ...    0.001 sec
Threshold for overlap eigenvalues          ... 1.000e-08
Number of eigenvalues below threshold      ... 0
Time for construction of square roots      ...    0.001 sec
Total time needed                          ...    0.001 sec

---------------------
INITIAL GUESS: MOREAD
---------------------
Guess MOs are being read from file: h3_subst_scan4_orca.gbw
Input Geometry matches current geometry (good)
Input basis set matches current basis set (good)
MOs were renormalized
MOs were reorthogonalized (Cholesky)
                      ------------------
                      INITIAL GUESS DONE (   0.0 sec)
                      ------------------
-------------------
DFT GRID GENERATION
-------------------

General Integration Accuracy     IntAcc      ...  4.340
Radial Grid Type                 RadialGrid  ... Gauss-Chebyshev
Angular Grid (max. acc.)         AngularGrid ... Lebedev-110
Angular grid pruning method      GridPruning ... 3 (G Style)
Weight generation scheme         WeightScheme... Becke
Basis function cutoff            BFCut       ...    1.0000e-11
Integration weight cutoff        WCut        ...    1.0000e-14
Grids for H and He will be reduced by one unit

# of grid points (after initial pruning)     ...   2382 (   0.0 sec)
# of grid points (after weights+screening)   ...   2346 (   0.0 sec)
nearest neighbour list constructed           ...    0.0 sec
Grid point re-assignment to atoms done       ...    0.0 sec
Grid point division into batches done        ...    0.0 sec
Reduced shell lists constructed in    0.0 sec

Total number of grid points                  ...     2346
Total number of batches                      ...       38
Average number of points per batch           ...       61
Average number of grid points per atom       ...      782
Average number of shells per batch           ...     6.83 (75.93%)
Average number of basis functions per batch  ...    11.17 (74.44%)
Average number of large shells per batch     ...     6.17 (90.24%)
Average number of large basis fcns per batch ...     9.17 (82.09%)
Maximum spatial batch extension              ...  13.16, 21.59, 21.59 au
Average spatial batch extension              ...   1.27,  1.68,  2.44 au

Time for grid setup =    0.008 sec

--------------
SCF ITERATIONS
--------------
ITER       Energy         Delta-E        Max-DP      RMS-DP      [F,P]     Damp
               ***  Starting incremental Fock matrix formation  ***
  0     -1.6559560373   0.000000000000 0.00000584  0.00000069  0.0000288 0.7000
                 **** Energy Check signals convergence ****

               *****************************************************
               *                     SUCCESS                       *
               *           SCF CONVERGED AFTER   1 CYCLES          *
               *****************************************************

Setting up the final grid:

General Integration Accuracy     IntAcc      ...  4.670
Radial Grid Type                 RadialGrid  ... Gauss-Chebyshev
Angular Grid (max. acc.)         AngularGrid ... Lebedev-302
Angular grid pruning method      GridPruning ... 3 (G Style)
Weight generation scheme         WeightScheme... Becke
Basis function cutoff            BFCut       ...    1.0000e-11
Integration weight cutoff        WCut        ...    1.0000e-14
Grids for H and He will be reduced by one unit

# of grid points (after initial pruning)     ...  10182 (   0.0 sec)
# of grid points (after weights+screening)   ...  10108 (   0.0 sec)
nearest neighbour list constructed           ...    0.0 sec
Grid point re-assignment to atoms done       ...    0.0 sec
Grid point division into batches done        ...    0.0 sec
Reduced shell lists constructed in    0.0 sec

Total number of grid points                  ...    10108
Total number of batches                      ...      160
Average number of points per batch           ...       63
Average number of grid points per atom       ...     3369
Average number of shells per batch           ...     5.71 (63.49%)
Average number of basis functions per batch  ...     8.29 (55.24%)
Average number of large shells per batch     ...     4.33 (75.83%)
Average number of large basis fcns per batch ...     5.38 (64.94%)
Maximum spatial batch extension              ...  13.14, 15.43, 15.43 au
Average spatial batch extension              ...   0.92,  1.09,  1.13 au

Final grid set up in    0.0 sec
Final integration                            ... done (   0.0 sec)
Change in XC energy                          ...    -0.000171923
Integrated number of electrons               ...     2.999989080
Previous integrated no of electrons          ...     2.999077844

----------------
TOTAL SCF ENERGY
----------------

Total Energy       :           -1.65612796 Eh             -45.06553 eV

Components:
Nuclear Repulsion  :            1.08481997 Eh              29.51945 eV
Electronic Energy  :           -2.74094793 Eh             -74.58498 eV
One Electron Energy:           -3.71188745 Eh            -101.00559 eV
Two Electron Energy:            0.97093953 Eh              26.42061 eV

Virial components:
Potential Energy   :           -3.28695307 Eh             -89.44254 eV
Kinetic Energy     :            1.63082511 Eh              44.37701 eV
Virial Ratio       :            2.01551537


DFT components:
N(Alpha)           :        1.999989770352 electrons
N(Beta)            :        0.999999309438 electrons
N(Total)           :        2.999989079789 electrons
E(X)               :       -0.962187552098 Eh       
E(C)               :       -0.051462443378 Eh       
E(XC)              :       -1.013649995476 Eh       
DFET-embed. en.    :        0.000000000000 Eh       

---------------
SCF CONVERGENCE
---------------

  Last Energy change         ...   -7.8360e-10  Tolerance :   1.0000e-08
  Last MAX-Density change    ...    2.4233e-06  Tolerance :   1.0000e-07
  Last RMS-Density change    ...    2.6187e-07  Tolerance :   5.0000e-09
  Last DIIS Error            ...    2.3729e-05  Tolerance :   5.0000e-07

             **** THE GBW FILE WAS UPDATED (h3_subst_scan4_orca.gbw) ****
             **** DENSITY FILE WAS UPDATED (h3_subst_scan4_orca.scfp.tmp) ****
             **** ENERGY FILE WAS UPDATED (h3_subst_scan4_orca.en.tmp) ****
----------------------
UHF SPIN CONTAMINATION
----------------------

Warning: in a DFT calculation there is little theoretical justification to 
         calculate <S**2> as in Hartree-Fock theory. We will do it anyways
         but you should keep in mind that the values have only limited relevance

Expectation value of <S**2>     :     0.750001
Ideal value S*(S+1) for S=0.5   :     0.750000
Deviation                       :     0.000001

----------------
ORBITAL ENERGIES
----------------
                 SPIN UP ORBITALS
  NO   OCC          E(Eh)            E(eV) 
   0   1.0000      -0.383773       -10.4430 
   1   1.0000      -0.276638        -7.5277 
   2   0.0000       0.069327         1.8865 
   3   0.0000       0.289990         7.8910 
   4   0.0000       0.419967        11.4279 
   5   0.0000       0.729306        19.8454 
   6   0.0000       1.111365        30.2418 
   7   0.0000       1.111365        30.2418 
   8   0.0000       1.284507        34.9532 
   9   0.0000       1.284507        34.9532 
  10   0.0000       1.299283        35.3553 
  11   0.0000       1.794902        48.8418 
  12   0.0000       1.914164        52.0871 
  13   0.0000       1.914164        52.0871 
  14   0.0000       3.636724        98.9603 

                 SPIN DOWN ORBITALS
  NO   OCC          E(Eh)            E(eV) 
   0   1.0000      -0.383316       -10.4306 
   1   0.0000       0.047657         1.2968 
   2   0.0000       0.138105         3.7580 
   3   0.0000       0.314043         8.5455 
   4   0.0000       0.728356        19.8196 
   5   0.0000       0.925442        25.1826 
   6   0.0000       1.111550        30.2468 
   7   0.0000       1.111550        30.2468 
   8   0.0000       1.792568        48.7783 
   9   0.0000       1.857264        50.5387 
  10   0.0000       1.857264        50.5387 
  11   0.0000       1.882494        51.2253 
  12   0.0000       1.914427        52.0942 
  13   0.0000       1.914427        52.0942 
  14   0.0000       3.637395        98.9786 

                    ********************************
                    * MULLIKEN POPULATION ANALYSIS *
                    ********************************

--------------------------------------------
MULLIKEN ATOMIC CHARGES AND SPIN POPULATIONS
--------------------------------------------
   0 H :    0.003350    0.995968
   1 H :   -0.001925    0.002148
   2 H :   -0.001424    0.001884
Sum of atomic charges         :   -0.0000000
Sum of atomic spin populations:    1.0000000

-----------------------------------------------------
MULLIKEN REDUCED ORBITAL CHARGES AND SPIN POPULATIONS
-----------------------------------------------------
CHARGE
  0 H s       :     0.996635  s :     0.996635
      pz      :     0.000000  p :     0.000016
      px      :     0.000016
      py      :     0.000000
  1 H s       :     0.992174  s :     0.992174
      pz      :    -0.000000  p :     0.009751
      px      :     0.009751
      py      :    -0.000000
  2 H s       :     0.991543  s :     0.991543
      pz      :    -0.000000  p :     0.009881
      px      :     0.009881
      py      :    -0.000000

SPIN
  0 H s       :     0.995958  s :     0.995958
      pz      :     0.000000  p :     0.000010
      px      :     0.000010
      py      :     0.000000
  1 H s       :     0.002078  s :     0.002078
      pz      :     0.000000  p :     0.000070
      px      :     0.000070
      py      :     0.000000
  2 H s       :     0.001876  s :     0.001876
      pz      :    -0.000000  p :     0.000008
      px      :     0.000008
      py      :    -0.000000


                     *******************************
                     * LOEWDIN POPULATION ANALYSIS *
                     *******************************

-------------------------------------------
LOEWDIN ATOMIC CHARGES AND SPIN POPULATIONS
-------------------------------------------
   0 H :    0.003188    0.995988
   1 H :   -0.002368    0.002205
   2 H :   -0.000819    0.001807

----------------------------------------------------
LOEWDIN REDUCED ORBITAL CHARGES AND SPIN POPULATIONS
----------------------------------------------------
CHARGE
  0 H s       :     0.996801  s :     0.996801
      pz      :     0.000000  p :     0.000011
      px      :     0.000011
      py      :     0.000000
  1 H s       :     0.973871  s :     0.973871
      pz      :     0.000000  p :     0.028497
      px      :     0.028497
      py      :     0.000000
  2 H s       :     0.972589  s :     0.972589
      pz      :     0.000000  p :     0.028231
      px      :     0.028231
      py      :     0.000000

SPIN
  0 H s       :     0.995981  s :     0.995981
      pz      :     0.000000  p :     0.000007
      px      :     0.000007
      py      :     0.000000
  1 H s       :     0.001808  s :     0.001808
      pz      :     0.000000  p :     0.000397
      px      :     0.000397
      py      :     0.000000
  2 H s       :     0.001849  s :     0.001849
      pz      :    -0.000000  p :    -0.000043
      px      :    -0.000043
      py      :    -0.000000


                      *****************************
                      * MAYER POPULATION ANALYSIS *
                      *****************************

  NA   - Mulliken gross atomic population
  ZA   - Total nuclear charge
  QA   - Mulliken gross atomic charge
  VA   - Mayer's total valence
  BVA  - Mayer's bonded valence
  FA   - Mayer's free valence

  ATOM       NA         ZA         QA         VA         BVA        FA
  0 H      0.9967     1.0000     0.0033     1.0006     0.0086     0.9920
  1 H      1.0019     1.0000    -0.0019     1.0056     1.0056     0.0000
  2 H      1.0014     1.0000    -0.0014     0.9983     0.9983     0.0000

  Mayer bond orders larger than 0.1
B(  1-H ,  2-H ) :   0.9977 

-------
TIMINGS
-------

Total SCF time: 0 days 0 hours 0 min 0 sec 

Total time                  ....       0.331 sec
Sum of individual times     ....       0.237 sec  ( 71.5%)

Fock matrix formation       ....       0.201 sec  ( 60.6%)
  Split-RI-J                ....       0.176 sec  ( 87.5% of F)
  XC integration            ....       0.007 sec  (  3.5% of F)
    Basis function eval.    ....       0.001 sec  ( 12.1% of XC)
    Density eval.           ....       0.001 sec  ( 11.0% of XC)
    XC-Functional eval.     ....       0.001 sec  ( 16.5% of XC)
    XC-Potential eval.      ....       0.000 sec  (  4.2% of XC)
Diagonalization             ....       0.000 sec  (  0.1%)
Density matrix formation    ....       0.000 sec  (  0.0%)
Population analysis         ....       0.002 sec  (  0.5%)
Initial guess               ....       0.002 sec  (  0.6%)
Orbital Transformation      ....       0.000 sec  (  0.0%)
Orbital Orthonormalization  ....       0.000 sec  (  0.1%)
DIIS solution               ....       0.000 sec  (  0.0%)
Grid generation             ....       0.032 sec  (  9.6%)


-------------------------------------------------------------------------------
                          DFT DISPERSION CORRECTION                            
                                                                               
                              DFTD3 V3.1  Rev 1                                
                          USING Becke-Johnson damping                          
-------------------------------------------------------------------------------
The PBE functional is recognized
Active option DFTDOPT                   ...         4   

molecular C6(AA) [au] = 38.787842 


            DFT-D V3
 parameters
 s6 scaling factor         :     1.0000 
 a1 scaling factor         :     0.4289 
 s8 scaling factor         :     0.7875 
 a2 scaling factor         :     4.4407 
 ad hoc parameters k1-k3   :    16.0000     1.3333    -4.0000 

 Edisp/kcal,au: -0.136045926087  -0.000216802960 
 E6   /kcal   :  -0.107357714 
 E8   /kcal   :  -0.028688212 
 % E8         :  21.087152487 

-------------------------   ----------------
Dispersion correction           -0.000216803
-------------------------   ----------------


-------------------------   --------------------
FINAL SINGLE POINT ENERGY        -1.656344763674
-------------------------   --------------------

                                *** OPTIMIZATION RUN DONE ***

                            ***************************************
                            *     ORCA property calculations      *
                            ***************************************

                                    ---------------------
                                    Active property flags
                                    ---------------------
   (+) Dipole Moment


------------------------------------------------------------------------------
                       ORCA ELECTRIC PROPERTIES CALCULATION
------------------------------------------------------------------------------

Dipole Moment Calculation                       ... on
Quadrupole Moment Calculation                   ... off
Polarizability Calculation                      ... off
GBWName                                         ... h3_subst_scan4_orca.gbw
Electron density file                           ... h3_subst_scan4_orca.scfp.tmp
The origin for moment calculation is the CENTER OF MASS  = ( 1.511782,  0.000000 -0.000000)

-------------
DIPOLE MOMENT
-------------
                                X             Y             Z
Electronic contribution:     -0.01777      -0.00000      -0.00000
Nuclear contribution   :     -0.00000       0.00000       0.00000
                        -----------------------------------------
Total Dipole Moment    :     -0.01777      -0.00000      -0.00000
                        -----------------------------------------
Magnitude (a.u.)       :      0.01777
Magnitude (Debye)      :      0.04518



--------------------
Rotational spectrum 
--------------------
 
Rotational constants in cm-1:     0.000000     2.287033     2.287033 
Rotational constants in MHz :     0.000000 68563.515986 68563.515986 

 Dipole components along the rotational axes: 
x,y,z [a.u.] :     0.017773    -0.000000     0.000000 
x,y,z [Debye]:     0.045176    -0.000000     0.000000 

 

Timings for individual modules:

Sum of individual times         ...       13.775 sec (=   0.230 min)
GTO integral calculation        ...        3.990 sec (=   0.066 min)  29.0 %
SCF iterations                  ...        6.209 sec (=   0.103 min)  45.1 %
SCF Gradient evaluation         ...        3.482 sec (=   0.058 min)  25.3 %
Geometry relaxation             ...        0.094 sec (=   0.002 min)   0.7 %
                             ****ORCA TERMINATED NORMALLY****
TOTAL RUN TIME: 0 days 0 hours 0 minutes 15 seconds 126 msec
