
                                 *****************
                                 * O   R   C   A *
                                 *****************

           --- An Ab Initio, DFT and Semiempirical electronic structure package ---

                  #######################################################
                  #                        -***-                        #
                  #          Department of theory and spectroscopy      #
                  #               Directorship: Frank Neese             #
                  #        Max Planck Institute fuer Kohlenforschung    #
                  #                Kaiser Wilhelm Platz 1               #
                  #                 D-45470 Muelheim/Ruhr               #
                  #                      Germany                        #
                  #                                                     #
                  #                  All rights reserved                #
                  #                        -***-                        #
                  #######################################################


                         Program Version 4.1.1  - RELEASE  -


 With contributions from (in alphabetic order):
   Daniel Aravena         : Magnetic Properties
   Michael Atanasov       : Ab Initio Ligand Field Theory
   Alexander A. Auer      : GIAO ZORA
   Ute Becker             : Parallelization
   Giovanni Bistoni       : ED, Open-shell LED
   Martin Brehm           : Molecular dynamics
   Dmytro Bykov           : SCF Hessian
   Vijay G. Chilkuri      : MRCI spin determinant printing
   Dipayan Datta          : RHF DLPNO-CCSD density
   Achintya Kumar Dutta   : EOM-CC, STEOM-CC
   Dmitry Ganyushin       : Spin-Orbit,Spin-Spin,Magnetic field MRCI
   Miquel Garcia          : C-PCM Hessian
   Yang Guo               : DLPNO-NEVPT2, CIM, IAO-localization
   Andreas Hansen         : Spin unrestricted coupled pair/coupled cluster methods
   Benjamin Helmich-Paris : CASSCF linear response (MC-RPA)
   Lee Huntington         : MR-EOM, pCC
   Robert Izsak           : Overlap fitted RIJCOSX, COSX-SCS-MP3, EOM
   Christian Kollmar      : KDIIS, OOCD, Brueckner-CCSD(T), CCSD density
   Simone Kossmann        : Meta GGA functionals, TD-DFT gradient, OOMP2, MP2 Hessian
   Martin Krupicka        : AUTO-CI
   Lucas Lang             : DCDCAS
   Dagmar Lenk            : GEPOL surface, SMD
   Dimitrios Liakos       : Extrapolation schemes; parallel MDCI
   Dimitrios Manganas     : ROCIS; embedding schemes
   Dimitrios Pantazis     : SARC Basis sets
   Taras Petrenko         : DFT Hessian,TD-DFT gradient, ASA, ECA, R-Raman, ABS, FL, XAS/XES, NRVS
   Peter Pinski           : DLPNO-MP2, DLPNO-MP2 Gradient
   Christoph Reimann      : Effective Core Potentials
   Marius Retegan         : Local ZFS, SOC
   Christoph Riplinger    : Optimizer, TS searches, QM/MM, DLPNO-CCSD(T), (RO)-DLPNO pert. Triples
   Tobias Risthaus        : Range-separated hybrids, TD-DFT gradient, RPA, STAB
   Michael Roemelt        : Restricted open shell CIS
   Masaaki Saitow         : Open-shell DLPNO
   Barbara Sandhoefer     : DKH picture change effects
   Avijit Sen             : IP-ROCIS
   Kantharuban Sivalingam : CASSCF convergence, NEVPT2, FIC-MRCI
   Bernardo de Souza      : ESD, SOC TD-DFT
   Georgi Stoychev        : AutoAux, RI-MP2 NMR
   Willem Van den Heuvel  : Paramagnetic NMR
   Boris Wezisla          : Elementary symmetry handling
   Frank Wennmohs         : Technical directorship


 We gratefully acknowledge several colleagues who have allowed us to
 interface, adapt or use parts of their codes:
   Stefan Grimme, W. Hujo, H. Kruse,             : VdW corrections, initial TS optimization,
                  C. Bannwarth                     DFT functionals, gCP, sTDA/sTD-DF
   Ed Valeev                                     : LibInt (2-el integral package), F12 methods
   Garnet Chan, S. Sharma, J. Yang, R. Olivares  : DMRG
   Ulf Ekstrom                                   : XCFun DFT Library
   Mihaly Kallay                                 : mrcc  (arbitrary order and MRCC methods)
   Andreas Klamt, Michael Diedenhofen            : otool_cosmo (COSMO solvation model)
   Jiri Pittner, Ondrej Demel                    : Mk-CCSD
   Frank Weinhold                                : gennbo (NPA and NBO analysis)
   Christopher J. Cramer and Donald G. Truhlar   : smd solvation model
   Lars Goerigk                                  : TD-DFT with DH, B97 family of functionals
   V. Asgeirsson, H. Jonsson                     : NEB implementation
   FAccTs GmbH                                   : IRC, NEB, NEB-TS, Multilevel


 Your calculation uses the libint2 library for the computation of 2-el integrals
 For citations please refer to: http://libint.valeyev.net

 This ORCA versions uses:
   CBLAS   interface :  Fast vector & matrix operations
   LAPACKE interface :  Fast linear algebra routines
   SCALAPACK package :  Parallel linear algebra routines


Your calculation utilizes the atom-pairwise dispersion correction
with the Becke-Johnson damping scheme (D3BJ)
Cite in your paper:
S.Grimme, S.Ehrlich, L.Goerigk, J Comput Chem, (2011), 32, 1456–1465 
S.Grimme, J.Antony, S.Ehrlich and H.Krieg, J.Chem.Phys., 132, (2010), 154104 
   

----- Orbital basis set information -----
Your calculation utilizes the basis: def2-SVP
   F. Weigend and R. Ahlrichs, Phys. Chem. Chem. Phys. 7, 3297 (2005).

----- AuxJ basis set information -----
Your calculation utilizes the auxiliary basis: def2/J
   F. Weigend, Phys. Chem. Chem. Phys. 8, 1057 (2006).

================================================================================
                                        WARNINGS
                       Please study these warnings very carefully!
================================================================================


WARNING: your system is open-shell and RHF/RKS was chosen
  ===> : WILL SWITCH to UHF/UKS


WARNING: Geometry Optimization
  ===> : Switching off AutoStart
         For restart on a previous wavefunction, please use MOREAD

INFO   : the flag for use of LIBINT has been found!

================================================================================
                                       INPUT FILE
================================================================================
NAME = h3_subst_scan3_orca.inp
|  1> ! LooseOpt PBE RI D3BJ def2-SVP def2/J
|  2> %geom Constraints
|  3> { B 1 2 0.7749999999999999 C }
|  4>     end
|  5> end
|  6> %geom MaxIter 100 end
|  7> %pal nprocs 8
|  8> end
|  9> %scf 
| 10> maxiter 250 
| 11> end
| 12> % maxcore 1000
| 13> *xyz 0 2
| 14> H  -0.23947400 -0.00000000  0.00000000 
| 15> H   0.89473700  0.00000000 -0.00000000 
| 16> H   1.74473700 -0.00000000  0.00000000 
| 17> *
| 18> 
| 19>                          ****END OF INPUT****
================================================================================

                       *****************************
                       * Geometry Optimization Run *
                       *****************************

Geometry optimization settings:
Update method            Update   .... BFGS
Choice of coordinates    CoordSys .... Z-matrix Internals
Initial Hessian          InHess   .... Almoef's Model

Convergence Tolerances:
Energy Change            TolE     ....  3.0000e-05 Eh
Max. Gradient            TolMAXG  ....  2.0000e-03 Eh/bohr
RMS Gradient             TolRMSG  ....  5.0000e-04 Eh/bohr
Max. Displacement        TolMAXD  ....  1.0000e-02 bohr
RMS Displacement         TolRMSD  ....  7.0000e-03 bohr

------------------------------------------------------------------------------
                        ORCA OPTIMIZATION COORDINATE SETUP
------------------------------------------------------------------------------

The optimization will be done in new redundant internal coordinates
Making redundant internal coordinates   ...  (new redundants) done
Evaluating the initial hessian          ...  (Almloef) done
Evaluating the coordinates              ...  done
Calculating the B-matrix                .... done
Calculating the G-matrix                .... done
Diagonalizing the G-matrix              .... done
Imposing constraints:
 Iter   0:  RMS(Cart)=    0.0385738742 RMS(Int)=    0.0000000000
 Iter   1:  RMS(Cart)=    0.0000000000 RMS(Int)=    0.0000000000
CONVERGED
The first mode is                       ....    0
The number of degrees of freedom        ....    4
Storing new coordinates                 .... done

    -----------------------------------------------------------------
                    Redundant Internal Coordinates


    -----------------------------------------------------------------
         Definition                    Initial Value    Approx d2E/dq
    -----------------------------------------------------------------
      1. B(H   1,H   0)                  1.1342         0.058606   
      2. B(H   2,H   1)                  0.7750         0.166487 C 
      3. L(H   0,H   1,H   2, 1)       180.0000         0.160856   
      4. L(H   0,H   1,H   2, 2)       180.0000         0.160856   
    -----------------------------------------------------------------

Number of atoms                         .... 3
Number of degrees of freedom            .... 4

         *************************************************************
         *                GEOMETRY OPTIMIZATION CYCLE   1            *
         *************************************************************
---------------------------------
CARTESIAN COORDINATES (ANGSTROEM)
---------------------------------
  H     -0.214474    0.000000    0.000000
  H      0.919737    0.000000    0.000000
  H      1.694737    0.000000    0.000000

----------------------------
CARTESIAN COORDINATES (A.U.)
----------------------------
  NO LB      ZA    FRAG     MASS         X           Y           Z
   0 H     1.0000    0     1.008   -0.405297    0.000000    0.000000
   1 H     1.0000    0     1.008    1.738051    0.000000    0.000000
   2 H     1.0000    0     1.008    3.202589    0.000000    0.000000

--------------------------------
INTERNAL COORDINATES (ANGSTROEM)
--------------------------------
 H      0   0   0     0.000000000000     0.00000000     0.00000000
 H      1   0   0     1.134211000000     0.00000000     0.00000000
 H      2   1   0     0.850000000000   180.00000000     0.00000000

---------------------------
INTERNAL COORDINATES (A.U.)
---------------------------
 H      0   0   0     0.000000000000     0.00000000     0.00000000
 H      1   0   0     2.143348168081     0.00000000     0.00000000
 H      2   1   0     1.606267213833   180.00000000     0.00000000

---------------------
BASIS SET INFORMATION
---------------------
There are 1 groups of distinct atoms

 Group   1 Type H   : 4s1p contracted to 2s1p pattern {31/1}

Atom   0H    basis set group =>   1
Atom   1H    basis set group =>   1
Atom   2H    basis set group =>   1
-------------------------------
AUXILIARY BASIS SET INFORMATION
-------------------------------
There are 1 groups of distinct atoms

 Group   1 Type H   : 5s2p1d contracted to 3s1p1d pattern {311/2/1}

Atom   0H    basis set group =>   1
Atom   1H    basis set group =>   1
Atom   2H    basis set group =>   1


           ************************************************************
           *        Program running with 8 parallel MPI-processes     *
           *              working on a common directory               *
           ************************************************************
------------------------------------------------------------------------------
                           ORCA GTO INTEGRAL CALCULATION
                           -- RI-GTO INTEGRALS CHOSEN --
------------------------------------------------------------------------------

                         BASIS SET STATISTICS AND STARTUP INFO

Gaussian basis set:
 # of primitive gaussian shells          ...   15
 # of primitive gaussian functions       ...   21
 # of contracted shells                  ...    9
 # of contracted basis functions         ...   15
 Highest angular momentum                ...    1
 Maximum contraction depth               ...    3
Auxiliary gaussian basis set:
 # of primitive gaussian shells          ...   24
 # of primitive gaussian functions       ...   48
 # of contracted shells                  ...   15
 # of contracted aux-basis functions     ...   33
 Highest angular momentum                ...    2
 Maximum contraction depth               ...    3
Ratio of auxiliary to basis functions    ...  2.20
Integral package used                  ... LIBINT
 One Electron integrals                  ... done
 Ordering auxiliary basis shells         ... done
 Integral threshhold             Thresh  ...  2.500e-11
 Primitive cut-off               TCut    ...  2.500e-12
 Pre-screening matrix                    ... done
 Shell pair data                         ... 
 Ordering of the shell pairs             ... done (   0.000 sec) 45 of 45 pairs
 Determination of significant pairs      ... done (   0.000 sec)
 Creation of shell pair data             ... done (   0.000 sec)
 Storage of shell pair data              ... done (   0.036 sec)
 Shell pair data done in (   0.036 sec)
 Computing two index integrals           ... done
 Cholesky decomposition of the V-matrix  ... done


Timings:
 Total evaluation time                   ...   0.161 sec (  0.003 min)
 One electron matrix time                ...   0.009 sec (  0.000 min) =  5.5%
 Schwartz matrix evaluation time         ...   0.104 sec (  0.002 min) = 64.7%
 Two index repulsion integral time       ...   0.000 sec (  0.000 min) =  0.1%
 Cholesky decomposition of V             ...   0.000 sec (  0.000 min) =  0.2%
 Three index repulsion integral time     ...   0.000 sec (  0.000 min) =  0.0%



           ************************************************************
           *        Program running with 8 parallel MPI-processes     *
           *              working on a common directory               *
           ************************************************************
-------------------------------------------------------------------------------
                                 ORCA SCF
-------------------------------------------------------------------------------

------------
SCF SETTINGS
------------
Hamiltonian:
 Density Functional     Method          .... DFT(GTOs)
 Exchange Functional    Exchange        .... PBE
   PBE kappa parameter   XKappa         ....  0.804000
   PBE mue parameter    XMuePBE         ....  0.219520
 Correlation Functional Correlation     .... PBE
   PBE beta parameter  CBetaPBE         ....  0.066725
 LDA part of GGA corr.  LDAOpt          .... PW91-LDA
 Gradients option       PostSCFGGA      .... off
   Density functional embedding theory  .... OFF
   NL short-range parameter             ....  6.400000
 RI-approximation to the Coulomb term is turned on
   Number of auxiliary basis functions  .... 33


General Settings:
 Integral files         IntName         .... h3_subst_scan3_orca
 Hartree-Fock type      HFTyp           .... UHF
 Total Charge           Charge          ....    0
 Multiplicity           Mult            ....    2
 Number of Electrons    NEL             ....    3
 Basis Dimension        Dim             ....   15
 Nuclear Repulsion      ENuc            ....      1.4265396860 Eh

Convergence Acceleration:
 DIIS                   CNVDIIS         .... on
   Start iteration      DIISMaxIt       ....    12
   Startup error        DIISStart       ....  0.200000
   # of expansion vecs  DIISMaxEq       ....     5
   Bias factor          DIISBfac        ....   1.050
   Max. coefficient     DIISMaxC        ....  10.000
 Newton-Raphson         CNVNR           .... off
 SOSCF                  CNVSOSCF        .... off
 Level Shifting         CNVShift        .... on
   Level shift para.    LevelShift      ....    0.2500
   Turn off err/grad.   ShiftErr        ....    0.0010
 Zerner damping         CNVZerner       .... off
 Static damping         CNVDamp         .... on
   Fraction old density DampFac         ....    0.7000
   Max. Damping (<1)    DampMax         ....    0.9800
   Min. Damping (>=0)   DampMin         ....    0.0000
   Turn off err/grad.   DampErr         ....    0.1000
 Fernandez-Rico         CNVRico         .... off

SCF Procedure:
 Maximum # iterations   MaxIter         ....   250
 SCF integral mode      SCFMode         .... Direct
   Integral package                     .... LIBINT
 Reset frequency        DirectResetFreq ....    20
 Integral Threshold     Thresh          ....  2.500e-11 Eh
 Primitive CutOff       TCut            ....  2.500e-12 Eh

Convergence Tolerance:
 Convergence Check Mode ConvCheckMode   .... Total+1el-Energy
 Convergence forced     ConvForced      .... 0
 Energy Change          TolE            ....  1.000e-08 Eh
 1-El. energy change                    ....  1.000e-05 Eh
 DIIS Error             TolErr          ....  5.000e-07


Diagonalization of the overlap matrix:
Smallest eigenvalue                        ... 2.687e-02
Time for diagonalization                   ...    0.000 sec
Threshold for overlap eigenvalues          ... 1.000e-08
Number of eigenvalues below threshold      ... 0
Time for construction of square roots      ...    0.001 sec
Total time needed                          ...    0.001 sec

-------------------
DFT GRID GENERATION
-------------------

General Integration Accuracy     IntAcc      ...  4.340
Radial Grid Type                 RadialGrid  ... Gauss-Chebyshev
Angular Grid (max. acc.)         AngularGrid ... Lebedev-110
Angular grid pruning method      GridPruning ... 3 (G Style)
Weight generation scheme         WeightScheme... Becke
Basis function cutoff            BFCut       ...    1.0000e-11
Integration weight cutoff        WCut        ...    1.0000e-14
Grids for H and He will be reduced by one unit

# of grid points (after initial pruning)     ...   2382 (   0.0 sec)
# of grid points (after weights+screening)   ...   2338 (   0.0 sec)
nearest neighbour list constructed           ...    0.0 sec
Grid point re-assignment to atoms done       ...    0.0 sec
Grid point division into batches done        ...    0.0 sec
Reduced shell lists constructed in    0.0 sec

Total number of grid points                  ...     2338
Total number of batches                      ...       39
Average number of points per batch           ...       59
Average number of grid points per atom       ...      779
Average number of shells per batch           ...     7.33 (81.48%)
Average number of basis functions per batch  ...    12.00 (80.00%)
Average number of large shells per batch     ...     7.00 (95.45%)
Average number of large basis fcns per batch ...    11.33 (94.44%)
Maximum spatial batch extension              ...  12.73, 21.59, 21.59 au
Average spatial batch extension              ...   1.17,  2.11,  2.36 au

Time for grid setup =    0.007 sec

------------------------------
INITIAL GUESS: MODEL POTENTIAL
------------------------------
Loading Hartree-Fock densities                     ... done
Calculating cut-offs                               ... done
Setting up the integral package                    ... done
Initializing the effective Hamiltonian             ... done
Starting the Coulomb interaction                   ... done (   0.0 sec)
Reading the grid                                   ... done
Mapping shells                                     ... done
Starting the XC term evaluation                    ... done (   0.0 sec)
  promolecular density results
     # of electrons  =      2.993514975
     EX              =     -0.835635684
     EC              =     -0.064905475
     EX+EC           =     -0.900541159
Transforming the Hamiltonian                       ... done (   0.0 sec)
Diagonalizing the Hamiltonian                      ... done (   0.0 sec)
Back transforming the eigenvectors                 ... done (   0.0 sec)
Now organizing SCF variables                       ... done
                      ------------------
                      INITIAL GUESS DONE (   0.1 sec)
                      ------------------
--------------
SCF ITERATIONS
--------------
ITER       Energy         Delta-E        Max-DP      RMS-DP      [F,P]     Damp
               ***  Starting incremental Fock matrix formation  ***
  0     -1.6477971211   0.000000000000 0.01018594  0.00128249  0.0410711 0.7000
  1     -1.6493644326  -0.001567311536 0.01026636  0.00128683  0.0281916 0.7000
                               ***Turning on DIIS***
  2     -1.6504117654  -0.001047332752 0.02786292  0.00326609  0.0174291 0.0000
  3     -1.6525122167  -0.002100451377 0.00468636  0.00049014  0.0099730 0.0000
  4     -1.6526904854  -0.000178268637 0.00264641  0.00026687  0.0033671 0.0000
  5     -1.6527233599  -0.000032874568 0.00106822  0.00013409  0.0012521 0.0000
  6     -1.6527301001  -0.000006740176 0.00067203  0.00008386  0.0004973 0.0000
  7     -1.6527313580  -0.000001257895 0.00013728  0.00001542  0.0000400 0.0000
  8     -1.6527313919  -0.000000033879 0.00003167  0.00000356  0.0000160 0.0000
                 **** Energy Check signals convergence ****

               *****************************************************
               *                     SUCCESS                       *
               *           SCF CONVERGED AFTER   9 CYCLES          *
               *****************************************************

Setting up the final grid:

General Integration Accuracy     IntAcc      ...  4.670
Radial Grid Type                 RadialGrid  ... Gauss-Chebyshev
Angular Grid (max. acc.)         AngularGrid ... Lebedev-302
Angular grid pruning method      GridPruning ... 3 (G Style)
Weight generation scheme         WeightScheme... Becke
Basis function cutoff            BFCut       ...    1.0000e-11
Integration weight cutoff        WCut        ...    1.0000e-14
Grids for H and He will be reduced by one unit

# of grid points (after initial pruning)     ...  10182 (   0.0 sec)
# of grid points (after weights+screening)   ...  10066 (   0.0 sec)
nearest neighbour list constructed           ...    0.0 sec
Grid point re-assignment to atoms done       ...    0.0 sec
Grid point division into batches done        ...    0.0 sec
Reduced shell lists constructed in    0.0 sec

Total number of grid points                  ...    10066
Total number of batches                      ...      159
Average number of points per batch           ...       63
Average number of grid points per atom       ...     3355
Average number of shells per batch           ...     6.14 (68.25%)
Average number of basis functions per batch  ...     9.19 (61.27%)
Average number of large shells per batch     ...     5.19 (84.50%)
Average number of large basis fcns per batch ...     7.29 (79.27%)
Maximum spatial batch extension              ...  12.21, 15.43, 15.43 au
Average spatial batch extension              ...   0.94,  1.09,  1.02 au

Final grid set up in    0.0 sec
Final integration                            ... done (   0.0 sec)
Change in XC energy                          ...    -0.000220183
Integrated number of electrons               ...     3.000001567
Previous integrated no of electrons          ...     2.997228674

----------------
TOTAL SCF ENERGY
----------------

Total Energy       :           -1.65295158 Eh             -44.97910 eV

Components:
Nuclear Repulsion  :            1.42653969 Eh              38.81812 eV
Electronic Energy  :           -3.07949126 Eh             -83.79722 eV
One Electron Energy:           -4.36074695 Eh            -118.66196 eV
Two Electron Energy:            1.28125569 Eh              34.86474 eV

Virial components:
Potential Energy   :           -3.28034623 Eh             -89.26276 eV
Kinetic Energy     :            1.62739465 Eh              44.28366 eV
Virial Ratio       :            2.01570420


DFT components:
N(Alpha)           :        2.000001400633 electrons
N(Beta)            :        1.000000166547 electrons
N(Total)           :        3.000001567181 electrons
E(X)               :       -0.948661703101 Eh       
E(C)               :       -0.061197977271 Eh       
E(XC)              :       -1.009859680372 Eh       
DFET-embed. en.    :        0.000000000000 Eh       

---------------
SCF CONVERGENCE
---------------

  Last Energy change         ...   -3.2934e-09  Tolerance :   1.0000e-08
  Last MAX-Density change    ...    1.3205e-05  Tolerance :   1.0000e-07
  Last RMS-Density change    ...    1.5692e-06  Tolerance :   5.0000e-09
  Last DIIS Error            ...    2.9132e-06  Tolerance :   5.0000e-07

             **** THE GBW FILE WAS UPDATED (h3_subst_scan3_orca.gbw) ****
             **** DENSITY FILE WAS UPDATED (h3_subst_scan3_orca.scfp.tmp) ****
             **** ENERGY FILE WAS UPDATED (h3_subst_scan3_orca.en.tmp) ****
----------------------
UHF SPIN CONTAMINATION
----------------------

Warning: in a DFT calculation there is little theoretical justification to 
         calculate <S**2> as in Hartree-Fock theory. We will do it anyways
         but you should keep in mind that the values have only limited relevance

Expectation value of <S**2>     :     0.754351
Ideal value S*(S+1) for S=0.5   :     0.750000
Deviation                       :     0.004351

----------------
ORBITAL ENERGIES
----------------
                 SPIN UP ORBITALS
  NO   OCC          E(Eh)            E(eV) 
   0   1.0000      -0.444099       -12.0845 
   1   1.0000      -0.224369        -6.1054 
   2   0.0000       0.096365         2.6222 
   3   0.0000       0.367979        10.0132 
   4   0.0000       0.396921        10.8008 
   5   0.0000       0.673587        18.3292 
   6   0.0000       1.017472        27.6868 
   7   0.0000       1.017472        27.6868 
   8   0.0000       1.304696        35.5026 
   9   0.0000       1.304696        35.5026 
  10   0.0000       1.424107        38.7519 
  11   0.0000       1.943887        52.8959 
  12   0.0000       1.943887        52.8959 
  13   0.0000       2.300673        62.6045 
  14   0.0000       3.622435        98.5715 

                 SPIN DOWN ORBITALS
  NO   OCC          E(Eh)            E(eV) 
   0   1.0000      -0.408591       -11.1183 
   1   0.0000      -0.113476        -3.0878 
   2   0.0000       0.136503         3.7144 
   3   0.0000       0.393631        10.7113 
   4   0.0000       0.494651        13.4601 
   5   0.0000       0.717670        19.5288 
   6   0.0000       1.052120        28.6296 
   7   0.0000       1.052120        28.6296 
   8   0.0000       1.429602        38.9015 
   9   0.0000       1.429602        38.9015 
  10   0.0000       1.520356        41.3710 
  11   0.0000       1.986801        54.0636 
  12   0.0000       1.986801        54.0636 
  13   0.0000       2.381696        64.8092 
  14   0.0000       3.669359        99.8483 

                    ********************************
                    * MULLIKEN POPULATION ANALYSIS *
                    ********************************

--------------------------------------------
MULLIKEN ATOMIC CHARGES AND SPIN POPULATIONS
--------------------------------------------
   0 H :   -0.011915    0.804012
   1 H :   -0.007534   -0.106738
   2 H :    0.019449    0.302726
Sum of atomic charges         :    0.0000000
Sum of atomic spin populations:    1.0000000

-----------------------------------------------------
MULLIKEN REDUCED ORBITAL CHARGES AND SPIN POPULATIONS
-----------------------------------------------------
CHARGE
  0 H s       :     1.005795  s :     1.005795
      pz      :     0.000000  p :     0.006119
      px      :     0.006119
      py      :     0.000000
  1 H s       :     0.992529  s :     0.992529
      pz      :    -0.000000  p :     0.015005
      px      :     0.015005
      py      :    -0.000000
  2 H s       :     0.970099  s :     0.970099
      pz      :     0.000000  p :     0.010452
      px      :     0.010452
      py      :     0.000000

SPIN
  0 H s       :     0.803932  s :     0.803932
      pz      :     0.000000  p :     0.000080
      px      :     0.000080
      py      :     0.000000
  1 H s       :    -0.121379  s :    -0.121379
      pz      :    -0.000000  p :     0.014640
      px      :     0.014640
      py      :    -0.000000
  2 H s       :     0.304964  s :     0.304964
      pz      :     0.000000  p :    -0.002237
      px      :    -0.002237
      py      :     0.000000


                     *******************************
                     * LOEWDIN POPULATION ANALYSIS *
                     *******************************

-------------------------------------------
LOEWDIN ATOMIC CHARGES AND SPIN POPULATIONS
-------------------------------------------
   0 H :   -0.001411    0.725295
   1 H :   -0.006552    0.035137
   2 H :    0.007963    0.239568

----------------------------------------------------
LOEWDIN REDUCED ORBITAL CHARGES AND SPIN POPULATIONS
----------------------------------------------------
CHARGE
  0 H s       :     0.978898  s :     0.978898
      pz      :     0.000000  p :     0.022512
      px      :     0.022512
      py      :     0.000000
  1 H s       :     0.923751  s :     0.923751
      pz      :     0.000000  p :     0.082801
      px      :     0.082801
      py      :     0.000000
  2 H s       :     0.959854  s :     0.959854
      pz      :     0.000000  p :     0.032182
      px      :     0.032182
      py      :     0.000000

SPIN
  0 H s       :     0.723581  s :     0.723581
      pz      :     0.000000  p :     0.001714
      px      :     0.001714
      py      :     0.000000
  1 H s       :    -0.041380  s :    -0.041380
      pz      :     0.000000  p :     0.076517
      px      :     0.076517
      py      :     0.000000
  2 H s       :     0.243143  s :     0.243143
      pz      :     0.000000  p :    -0.003575
      px      :    -0.003575
      py      :     0.000000


                      *****************************
                      * MAYER POPULATION ANALYSIS *
                      *****************************

  NA   - Mulliken gross atomic population
  ZA   - Total nuclear charge
  QA   - Mulliken gross atomic charge
  VA   - Mayer's total valence
  BVA  - Mayer's bonded valence
  FA   - Mayer's free valence

  ATOM       NA         ZA         QA         VA         BVA        FA
  0 H      1.0119     1.0000    -0.0119     0.9571     0.3040     0.6531
  1 H      1.0075     1.0000    -0.0075     1.0211     1.0063     0.0147
  2 H      0.9806     1.0000     0.0194     0.9562     0.8650     0.0912

  Mayer bond orders larger than 0.1
B(  0-H ,  1-H ) :   0.2227 B(  1-H ,  2-H ) :   0.7836 

-------
TIMINGS
-------

Total SCF time: 0 days 0 hours 0 min 1 sec 

Total time                  ....       1.331 sec
Sum of individual times     ....       1.224 sec  ( 92.0%)

Fock matrix formation       ....       1.077 sec  ( 80.9%)
  Split-RI-J                ....       0.951 sec  ( 88.3% of F)
  XC integration            ....       0.117 sec  ( 10.8% of F)
    Basis function eval.    ....       0.003 sec  (  2.5% of XC)
    Density eval.           ....       0.003 sec  (  2.4% of XC)
    XC-Functional eval.     ....       0.003 sec  (  2.9% of XC)
    XC-Potential eval.      ....       0.001 sec  (  1.1% of XC)
Diagonalization             ....       0.001 sec  (  0.1%)
Density matrix formation    ....       0.000 sec  (  0.0%)
Population analysis         ....       0.001 sec  (  0.1%)
Initial guess               ....       0.097 sec  (  7.3%)
Orbital Transformation      ....       0.000 sec  (  0.0%)
Orbital Orthonormalization  ....       0.000 sec  (  0.0%)
DIIS solution               ....       0.002 sec  (  0.1%)
Grid generation             ....       0.045 sec  (  3.4%)


-------------------------------------------------------------------------------
                          DFT DISPERSION CORRECTION                            
                                                                               
                              DFTD3 V3.1  Rev 1                                
                          USING Becke-Johnson damping                          
-------------------------------------------------------------------------------
The PBE functional is recognized
Active option DFTDOPT                   ...         4   

molecular C6(AA) [au] = 39.560919 


            DFT-D V3
 parameters
 s6 scaling factor         :     1.0000 
 a1 scaling factor         :     0.4289 
 s8 scaling factor         :     0.7875 
 a2 scaling factor         :     4.4407 
 ad hoc parameters k1-k3   :    16.0000     1.3333    -4.0000 

 Edisp/kcal,au: -0.231739410253  -0.000369300218 
 E6   /kcal   :  -0.181922035 
 E8   /kcal   :  -0.049817376 
 % E8         :  21.497153058 

-------------------------   ----------------
Dispersion correction           -0.000369300
-------------------------   ----------------


-------------------------   --------------------
FINAL SINGLE POINT ENERGY        -1.653320878548
-------------------------   --------------------



           ************************************************************
           *        Program running with 8 parallel MPI-processes     *
           *              working on a common directory               *
           ************************************************************
------------------------------------------------------------------------------
                         ORCA SCF GRADIENT CALCULATION
------------------------------------------------------------------------------

Gradient of the Kohn-Sham DFT energy:
Kohn-Sham wavefunction type      ... UKS
Hartree-Fock exchange scaling    ...    0.000
Number of operators              ...    2
Number of atoms                  ...    3
Basis set dimensions             ...   15
Integral neglect threshold       ... 2.5e-11
Integral primitive cutoff        ... 2.5e-12

Nuclear repulsion gradient       ... done
One Electron Gradient            ... done
Pre-screening matrix             ... done
RI-J gradient                    ... done
Exchange-correlation gradient    ... done
Dispersion correction            ... done

------------------
CARTESIAN GRADIENT
------------------

   1   H   :    0.008378610   -0.000000000    0.000000000
   2   H   :    0.025129786    0.000000000    0.000000000
   3   H   :   -0.033508395    0.000000000   -0.000000000

Difference to translation invariance:
           :   -0.0000000000    0.0000000000    0.0000000000

Norm of the cartesian gradient     ...    0.0427143979
RMS gradient                       ...    0.0142381326
MAX gradient                       ...    0.0335083954

-------
TIMINGS
-------

Total SCF gradient time            ...        0.340 sec

One electron gradient       ....       0.000 sec  (  0.0%)
Prescreening matrices       ....       0.000 sec  (  0.0%)
RI-J Coulomb gradient       ....       0.086 sec  ( 25.2%)
XC gradient                 ....       0.012 sec  (  3.4%)
------------------------------------------------------------------------------
                         ORCA GEOMETRY RELAXATION STEP
------------------------------------------------------------------------------

Reading the OPT-File                    .... done
Getting information on internals        .... done
Copying old internal coords+grads       .... done
Making the new internal coordinates     .... (new redundants).... done
Validating the new internal coordinates .... (new redundants).... done
Calculating the B-matrix                .... done
Calculating the G,G- and P matrices     .... done
Transforming gradient to internals      .... done
Projecting the internal gradient        .... done
Number of atoms                         ....   3
Number of internal coordinates          ....   4
Current Energy                          ....    -1.653320879 Eh
Current gradient norm                   ....     0.042714398 Eh/bohr
Maximum allowed component of the step   ....  0.300
Current trust radius                    ....  0.300
Evaluating the initial hessian          ....  (Almloef) done
Projecting the Hessian                  .... done
Forming the augmented Hessian           .... done
Diagonalizing the augmented Hessian     .... done
Last element of RFO vector              ....  0.990320387
Lowest eigenvalues of augmented Hessian:
 -0.001174321  0.059780175  0.165479747  0.165479747
Length of the computed step             ....  0.140156995
The final length of the internal step   ....  0.140156995
Converting the step to cartesian space:
 Initial RMS(Int)=    0.0700784975
Transforming coordinates:
 Iter   0:  RMS(Cart)=    0.0381459024 RMS(Int)=    0.0700784975
 Iter   1:  RMS(Cart)=    0.0000000029 RMS(Int)=    0.0000000211
Imposing constraints:
 Iter   0:  RMS(Cart)=    0.0000000000 RMS(Int)=    0.0000000000
CONVERGED
done
Storing new coordinates                 .... done

                                .--------------------.
          ----------------------|Geometry convergence|-------------------------
          Item                value                   Tolerance       Converged
          ---------------------------------------------------------------------
          RMS gradient        0.0041893049            0.0005000000      NO
          MAX gradient        0.0083786097            0.0020000000      NO
          RMS step            0.0700784975            0.0070000000      NO
          MAX step            0.1401569950            0.0100000000      NO
          ........................................................
          Max(Bonds)      0.0742      Max(Angles)    0.00
          Max(Dihed)        0.00      Max(Improp)    0.00
          ---------------------------------------------------------------------

The optimization has not yet converged - more geometry cycles are needed


    ---------------------------------------------------------------------------
                         Redundant Internal Coordinates
                            (Angstroem and degrees)

        Definition                    Value    dE/dq     Step     New-Value
    ----------------------------------------------------------------------------
     1. B(H   1,H   0)                1.1342 -0.008379  0.0742    1.2084   
     2. B(H   2,H   1)                0.7750 -0.033508  0.0000    0.7750 C 
     3. L(H   0,H   1,H   2, 1)       180.00 -0.000000    0.00    180.00   
     4. L(H   0,H   1,H   2, 2)       180.00  0.000000   -0.00    180.00   
    ----------------------------------------------------------------------------

         *************************************************************
         *                GEOMETRY OPTIMIZATION CYCLE   2            *
         *************************************************************
---------------------------------
CARTESIAN COORDINATES (ANGSTROEM)
---------------------------------
  H     -0.263919   -0.000000   -0.000000
  H      0.944460    0.000000    0.000000
  H      1.719460   -0.000000   -0.000000

----------------------------
CARTESIAN COORDINATES (A.U.)
----------------------------
  NO LB      ZA    FRAG     MASS         X           Y           Z
   0 H     1.0000    0     1.008   -0.498735   -0.000000   -0.000000
   1 H     1.0000    0     1.008    1.784770    0.000000    0.000000
   2 H     1.0000    0     1.008    3.249308   -0.000000   -0.000000

--------------------------------
INTERNAL COORDINATES (ANGSTROEM)
--------------------------------
 H      0   0   0     0.000000000000     0.00000000     0.00000000
 H      1   0   0     1.208378887313     0.00000000     0.00000000
 H      2   1   0     0.774999997995   179.99999809     0.00000000

---------------------------
INTERNAL COORDINATES (A.U.)
---------------------------
 H      0   0   0     0.000000000000     0.00000000     0.00000000
 H      1   0   0     2.283505163035     0.00000000     0.00000000
 H      2   1   0     1.464537750000   179.99999809     0.00000000



           ************************************************************
           *        Program running with 8 parallel MPI-processes     *
           *              working on a common directory               *
           ************************************************************
 One Electron integrals                  ... done
 Pre-screening matrix                    ... done


           ************************************************************
           *        Program running with 8 parallel MPI-processes     *
           *              working on a common directory               *
           ************************************************************

Diagonalization of the overlap matrix:
Smallest eigenvalue                        ... 2.929e-02
Time for diagonalization                   ...    0.000 sec
Threshold for overlap eigenvalues          ... 1.000e-08
Number of eigenvalues below threshold      ... 0
Time for construction of square roots      ...    0.000 sec
Total time needed                          ...    0.001 sec

-------------------
DFT GRID GENERATION
-------------------

General Integration Accuracy     IntAcc      ...  4.340
Radial Grid Type                 RadialGrid  ... Gauss-Chebyshev
Angular Grid (max. acc.)         AngularGrid ... Lebedev-110
Angular grid pruning method      GridPruning ... 3 (G Style)
Weight generation scheme         WeightScheme... Becke
Basis function cutoff            BFCut       ...    1.0000e-11
Integration weight cutoff        WCut        ...    1.0000e-14
Grids for H and He will be reduced by one unit

# of grid points (after initial pruning)     ...   2382 (   0.0 sec)
# of grid points (after weights+screening)   ...   2338 (   0.0 sec)
nearest neighbour list constructed           ...    0.0 sec
Grid point re-assignment to atoms done       ...    0.0 sec
Grid point division into batches done        ...    0.0 sec
Reduced shell lists constructed in    0.0 sec

Total number of grid points                  ...     2338
Total number of batches                      ...       38
Average number of points per batch           ...       61
Average number of grid points per atom       ...      779
Average number of shells per batch           ...     7.33 (81.48%)
Average number of basis functions per batch  ...    12.00 (80.00%)
Average number of large shells per batch     ...     7.00 (95.45%)
Average number of large basis fcns per batch ...    11.33 (94.44%)
Maximum spatial batch extension              ...  12.73, 21.59, 21.59 au
Average spatial batch extension              ...   1.16,  1.87,  2.42 au

Time for grid setup =    0.008 sec

--------------
SCF ITERATIONS
--------------
ITER       Energy         Delta-E        Max-DP      RMS-DP      [F,P]     Damp
               ***  Starting incremental Fock matrix formation  ***
  0     -1.6534988362   0.000000000000 0.00331652  0.00026932  0.0120850 0.7000
  1     -1.6536102451  -0.000111408935 0.00319970  0.00027405  0.0098536 0.7000
                               ***Turning on DIIS***
  2     -1.6537037373  -0.000093492179 0.00845128  0.00080909  0.0075595 0.0000
  3     -1.6539479839  -0.000244246583 0.00214842  0.00026714  0.0014297 0.0000
  4     -1.6539607523  -0.000012768369 0.00207286  0.00025274  0.0009731 0.0000
  5     -1.6539658582  -0.000005105883 0.00047119  0.00005243  0.0002334 0.0000
  6     -1.6539660605  -0.000000202300 0.00004201  0.00000466  0.0000331 0.0000
                 **** Energy Check signals convergence ****

               *****************************************************
               *                     SUCCESS                       *
               *           SCF CONVERGED AFTER   7 CYCLES          *
               *****************************************************

Setting up the final grid:

General Integration Accuracy     IntAcc      ...  4.670
Radial Grid Type                 RadialGrid  ... Gauss-Chebyshev
Angular Grid (max. acc.)         AngularGrid ... Lebedev-302
Angular grid pruning method      GridPruning ... 3 (G Style)
Weight generation scheme         WeightScheme... Becke
Basis function cutoff            BFCut       ...    1.0000e-11
Integration weight cutoff        WCut        ...    1.0000e-14
Grids for H and He will be reduced by one unit

# of grid points (after initial pruning)     ...  10182 (   0.0 sec)
# of grid points (after weights+screening)   ...  10070 (   0.0 sec)
nearest neighbour list constructed           ...    0.0 sec
Grid point re-assignment to atoms done       ...    0.0 sec
Grid point division into batches done        ...    0.0 sec
Reduced shell lists constructed in    0.0 sec

Total number of grid points                  ...    10070
Total number of batches                      ...      159
Average number of points per batch           ...       63
Average number of grid points per atom       ...     3357
Average number of shells per batch           ...     5.95 (66.14%)
Average number of basis functions per batch  ...     8.62 (57.46%)
Average number of large shells per batch     ...     5.24 (88.00%)
Average number of large basis fcns per batch ...     7.43 (86.19%)
Maximum spatial batch extension              ...  12.26, 15.43, 15.43 au
Average spatial batch extension              ...   0.94,  1.08,  1.02 au

Final grid set up in    0.0 sec
Final integration                            ... done (   0.0 sec)
Change in XC energy                          ...    -0.000003279
Integrated number of electrons               ...     3.000001875
Previous integrated no of electrons          ...     2.998198163
Total Energy       :           -1.65396935 Eh             -45.00679 eV
  Last Energy change         ...   -5.6923e-09  Tolerance :   1.0000e-08
  Last MAX-Density change    ...    1.1466e-05  Tolerance :   1.0000e-07
             **** THE GBW FILE WAS UPDATED (h3_subst_scan3_orca.gbw) ****
             **** DENSITY FILE WAS UPDATED (h3_subst_scan3_orca.scfp.tmp) ****
             **** ENERGY FILE WAS UPDATED (h3_subst_scan3_orca.en.tmp) ****
----------------------
UHF SPIN CONTAMINATION
----------------------

Warning: in a DFT calculation there is little theoretical justification to 
         calculate <S**2> as in Hartree-Fock theory. We will do it anyways
         but you should keep in mind that the values have only limited relevance

Expectation value of <S**2>     :     0.753923
Ideal value S*(S+1) for S=0.5   :     0.750000
Deviation                       :     0.003923

Total SCF time: 0 days 0 hours 0 min 0 sec 


-------------------------------------------------------------------------------
                          DFT DISPERSION CORRECTION                            
                                                                               
                              DFTD3 V3.1  Rev 1                                
                          USING Becke-Johnson damping                          
-------------------------------------------------------------------------------
-------------------------   ----------------
Dispersion correction           -0.000368443
-------------------------   ----------------


-------------------------   --------------------
FINAL SINGLE POINT ENERGY        -1.654337788135
-------------------------   --------------------



           ************************************************************
           *        Program running with 8 parallel MPI-processes     *
           *              working on a common directory               *
           ************************************************************
------------------------------------------------------------------------------
                         ORCA SCF GRADIENT CALCULATION
------------------------------------------------------------------------------

Gradient of the Kohn-Sham DFT energy:
Kohn-Sham wavefunction type      ... UKS
Hartree-Fock exchange scaling    ...    0.000
Number of operators              ...    2
Number of atoms                  ...    3
Basis set dimensions             ...   15
Integral neglect threshold       ... 2.5e-11
Integral primitive cutoff        ... 2.5e-12

Nuclear repulsion gradient       ... done
One Electron Gradient            ... done
Pre-screening matrix             ... done
RI-J gradient                    ... done
Exchange-correlation gradient    ... done
Dispersion correction            ... done

------------------
CARTESIAN GRADIENT
------------------

   1   H   :    0.005896881    0.000000000   -0.000000000
   2   H   :    0.020320198   -0.000000000   -0.000000000
   3   H   :   -0.026217079    0.000000000    0.000000000

Difference to translation invariance:
           :   -0.0000000000   -0.0000000000   -0.0000000000

Norm of the cartesian gradient     ...    0.0336900415
RMS gradient                       ...    0.0112300138
MAX gradient                       ...    0.0262170790

-------
TIMINGS
-------

Total SCF gradient time            ...        0.300 sec

One electron gradient       ....       0.000 sec  (  0.0%)
Prescreening matrices       ....       0.000 sec  (  0.0%)
RI-J Coulomb gradient       ....       0.079 sec  ( 26.3%)
XC gradient                 ....       0.007 sec  (  2.4%)
------------------------------------------------------------------------------
                         ORCA GEOMETRY RELAXATION STEP
------------------------------------------------------------------------------

Reading the OPT-File                    .... done
Getting information on internals        .... done
Copying old internal coords+grads       .... done
Making the new internal coordinates     .... (new redundants).... done
Validating the new internal coordinates .... (new redundants).... done
Calculating the B-matrix                .... done
Calculating the G,G- and P matrices     .... done
Transforming gradient to internals      .... done
Projecting the internal gradient        .... done
Number of atoms                         ....   3
Number of internal coordinates          ....   4
Current Energy                          ....    -1.654337788 Eh
Current gradient norm                   ....     0.033690041 Eh/bohr
Maximum allowed component of the step   ....  0.300
Current trust radius                    ....  0.300
Updating the Hessian (BFGS)             .... done
Forming the augmented Hessian           .... done
Diagonalizing the augmented Hessian     .... done
Last element of RFO vector              ....  0.957152974
Lowest eigenvalues of augmented Hessian:
 -0.001784077  0.019490858  0.165479747  0.165479747
Length of the computed step             ....  0.302545973
Warning: the length of the step is outside the trust region - taking restricted step instead
The input lambda is                     ....    -0.001784
   iter:   1  x=   -0.001947  g=    9.392513 f(x)=     0.001534
   iter:   2  x=   -0.001949  g=    9.160295 f(x)=     0.000019
   iter:   3  x=   -0.001949  g=    9.157385 f(x)=     0.000000
   iter:   4  x=   -0.001949  g=    9.157384 f(x)=     0.000000
The output lambda is                    ....    -0.001949 (4 iterations)
The final length of the internal step   ....  0.300000000
Converting the step to cartesian space:
 Initial RMS(Int)=    0.1500000000
Transforming coordinates:
 Iter   0:  RMS(Cart)=    0.0544331054 RMS(Int)=    0.1000000000
 Iter   1:  RMS(Cart)=    0.0272165527 RMS(Int)=    0.0500000000
 Iter   2:  RMS(Cart)=    0.0000000068 RMS(Int)=    0.0000000220
Imposing constraints:
 Iter   0:  RMS(Cart)=    0.0000000000 RMS(Int)=    0.0000000000
CONVERGED
done
Storing new coordinates                 .... done

                                .--------------------.
          ----------------------|Geometry convergence|-------------------------
          Item                value                   Tolerance       Converged
          ---------------------------------------------------------------------
          Energy change      -0.0010169096            0.0000300000      NO
          RMS gradient        0.0029484403            0.0005000000      NO
          MAX gradient        0.0058968806            0.0020000000      NO
          RMS step            0.1500000000            0.0070000000      NO
          MAX step            0.3000000000            0.0100000000      NO
          ........................................................
          Max(Bonds)      0.1588      Max(Angles)    0.00
          Max(Dihed)        0.00      Max(Improp)    0.00
          ---------------------------------------------------------------------

The optimization has not yet converged - more geometry cycles are needed


    ---------------------------------------------------------------------------
                         Redundant Internal Coordinates
                            (Angstroem and degrees)

        Definition                    Value    dE/dq     Step     New-Value
    ----------------------------------------------------------------------------
     1. B(H   1,H   0)                1.2084 -0.005897  0.1588    1.3671   
     2. B(H   2,H   1)                0.7750 -0.026217  0.0000    0.7750 C 
     3. L(H   0,H   1,H   2, 1)       180.00 -0.000000   -0.00    180.00   
     4. L(H   0,H   1,H   2, 2)       180.00  0.000000    0.00    180.00   
    ----------------------------------------------------------------------------

         *************************************************************
         *                GEOMETRY OPTIMIZATION CYCLE   3            *
         *************************************************************
---------------------------------
CARTESIAN COORDINATES (ANGSTROEM)
---------------------------------
  H     -0.369755   -0.000000   -0.000000
  H      0.997377    0.000000    0.000000
  H      1.772377   -0.000000   -0.000000

----------------------------
CARTESIAN COORDINATES (A.U.)
----------------------------
  NO LB      ZA    FRAG     MASS         X           Y           Z
   0 H     1.0000    0     1.008   -0.698735   -0.000000   -0.000000
   1 H     1.0000    0     1.008    1.884770    0.000000    0.000000
   2 H     1.0000    0     1.008    3.349308   -0.000000   -0.000000

--------------------------------
INTERNAL COORDINATES (ANGSTROEM)
--------------------------------
 H      0   0   0     0.000000000000     0.00000000     0.00000000
 H      1   0   0     1.367132049803     0.00000000     0.00000000
 H      2   1   0     0.774999997995   179.99999129     0.00000000

---------------------------
INTERNAL COORDINATES (A.U.)
---------------------------
 H      0   0   0     0.000000000000     0.00000000     0.00000000
 H      1   0   0     2.583505163035     0.00000000     0.00000000
 H      2   1   0     1.464537750000   179.99999129     0.00000000



           ************************************************************
           *        Program running with 8 parallel MPI-processes     *
           *              working on a common directory               *
           ************************************************************
 One Electron integrals                  ... done
 Pre-screening matrix                    ... done


           ************************************************************
           *        Program running with 8 parallel MPI-processes     *
           *              working on a common directory               *
           ************************************************************

Diagonalization of the overlap matrix:
Smallest eigenvalue                        ... 3.439e-02
Time for diagonalization                   ...    0.001 sec
Threshold for overlap eigenvalues          ... 1.000e-08
Number of eigenvalues below threshold      ... 0
Time for construction of square roots      ...    0.001 sec
Total time needed                          ...    0.001 sec

-------------------
DFT GRID GENERATION
-------------------

General Integration Accuracy     IntAcc      ...  4.340
Radial Grid Type                 RadialGrid  ... Gauss-Chebyshev
Angular Grid (max. acc.)         AngularGrid ... Lebedev-110
Angular grid pruning method      GridPruning ... 3 (G Style)
Weight generation scheme         WeightScheme... Becke
Basis function cutoff            BFCut       ...    1.0000e-11
Integration weight cutoff        WCut        ...    1.0000e-14
Grids for H and He will be reduced by one unit

# of grid points (after initial pruning)     ...   2382 (   0.0 sec)
# of grid points (after weights+screening)   ...   2340 (   0.0 sec)
nearest neighbour list constructed           ...    0.0 sec
Grid point re-assignment to atoms done       ...    0.0 sec
Grid point division into batches done        ...    0.0 sec
Reduced shell lists constructed in    0.0 sec

Total number of grid points                  ...     2340
Total number of batches                      ...       38
Average number of points per batch           ...       61
Average number of grid points per atom       ...      780
Average number of shells per batch           ...     7.33 (81.48%)
Average number of basis functions per batch  ...    12.00 (80.00%)
Average number of large shells per batch     ...     7.00 (95.45%)
Average number of large basis fcns per batch ...    11.33 (94.44%)
Maximum spatial batch extension              ...  12.73, 21.59, 21.59 au
Average spatial batch extension              ...   1.28,  1.53,  2.43 au

Time for grid setup =    0.008 sec

--------------
SCF ITERATIONS
--------------
ITER       Energy         Delta-E        Max-DP      RMS-DP      [F,P]     Damp
               ***  Starting incremental Fock matrix formation  ***
  0     -1.6541060602   0.000000000000 0.00632714  0.00048809  0.0220029 0.7000
  1     -1.6544835986  -0.000377538451 0.00606858  0.00048601  0.0180383 0.7000
                               ***Turning on DIIS***
  2     -1.6548020715  -0.000318472874 0.01596919  0.00139554  0.0139388 0.0000
  3     -1.6556402470  -0.000838175487 0.00362743  0.00043400  0.0029212 0.0000
  4     -1.6556849447  -0.000044697717 0.00163483  0.00022400  0.0018010 0.0000
  5     -1.6556988236  -0.000013878944 0.00198669  0.00025140  0.0009035 0.0000
  6     -1.6557041434  -0.000005319809 0.00016249  0.00001824  0.0001140 0.0000
  7     -1.6557041736  -0.000000030178 0.00002016  0.00000206  0.0000173 0.0000
                 **** Energy Check signals convergence ****

               *****************************************************
               *                     SUCCESS                       *
               *           SCF CONVERGED AFTER   8 CYCLES          *
               *****************************************************

Setting up the final grid:

General Integration Accuracy     IntAcc      ...  4.670
Radial Grid Type                 RadialGrid  ... Gauss-Chebyshev
Angular Grid (max. acc.)         AngularGrid ... Lebedev-302
Angular grid pruning method      GridPruning ... 3 (G Style)
Weight generation scheme         WeightScheme... Becke
Basis function cutoff            BFCut       ...    1.0000e-11
Integration weight cutoff        WCut        ...    1.0000e-14
Grids for H and He will be reduced by one unit

# of grid points (after initial pruning)     ...  10182 (   0.0 sec)
# of grid points (after weights+screening)   ...  10072 (   0.0 sec)
nearest neighbour list constructed           ...    0.0 sec
Grid point re-assignment to atoms done       ...    0.0 sec
Grid point division into batches done        ...    0.0 sec
Reduced shell lists constructed in    0.0 sec

Total number of grid points                  ...    10072
Total number of batches                      ...      159
Average number of points per batch           ...       63
Average number of grid points per atom       ...     3357
Average number of shells per batch           ...     6.00 (66.67%)
Average number of basis functions per batch  ...     8.76 (58.41%)
Average number of large shells per batch     ...     5.29 (88.10%)
Average number of large basis fcns per batch ...     7.48 (85.33%)
Maximum spatial batch extension              ...  11.70, 15.43, 15.43 au
Average spatial batch extension              ...   0.94,  1.10,  1.02 au

Final grid set up in    0.0 sec
Final integration                            ... done (   0.0 sec)
Change in XC energy                          ...     0.000269826
Integrated number of electrons               ...     2.999996448
Previous integrated no of electrons          ...     3.000128095
Total Energy       :           -1.65543435 Eh             -45.04666 eV
  Last Energy change         ...   -1.5030e-09  Tolerance :   1.0000e-08
  Last MAX-Density change    ...    5.8327e-06  Tolerance :   1.0000e-07
             **** THE GBW FILE WAS UPDATED (h3_subst_scan3_orca.gbw) ****
             **** DENSITY FILE WAS UPDATED (h3_subst_scan3_orca.scfp.tmp) ****
             **** ENERGY FILE WAS UPDATED (h3_subst_scan3_orca.en.tmp) ****
----------------------
UHF SPIN CONTAMINATION
----------------------

Warning: in a DFT calculation there is little theoretical justification to 
         calculate <S**2> as in Hartree-Fock theory. We will do it anyways
         but you should keep in mind that the values have only limited relevance

Expectation value of <S**2>     :     0.752790
Ideal value S*(S+1) for S=0.5   :     0.750000
Deviation                       :     0.002790

Total SCF time: 0 days 0 hours 0 min 1 sec 


-------------------------------------------------------------------------------
                          DFT DISPERSION CORRECTION                            
                                                                               
                              DFTD3 V3.1  Rev 1                                
                          USING Becke-Johnson damping                          
-------------------------------------------------------------------------------
-------------------------   ----------------
Dispersion correction           -0.000364388
-------------------------   ----------------


-------------------------   --------------------
FINAL SINGLE POINT ENERGY        -1.655798737083
-------------------------   --------------------



           ************************************************************
           *        Program running with 8 parallel MPI-processes     *
           *              working on a common directory               *
           ************************************************************
------------------------------------------------------------------------------
                         ORCA SCF GRADIENT CALCULATION
------------------------------------------------------------------------------

Gradient of the Kohn-Sham DFT energy:
Kohn-Sham wavefunction type      ... UKS
Hartree-Fock exchange scaling    ...    0.000
Number of operators              ...    2
Number of atoms                  ...    3
Basis set dimensions             ...   15
Integral neglect threshold       ... 2.5e-11
Integral primitive cutoff        ... 2.5e-12

Nuclear repulsion gradient       ... done
One Electron Gradient            ... done
Pre-screening matrix             ... done
RI-J gradient                    ... done
Exchange-correlation gradient    ... done
Dispersion correction            ... done

------------------
CARTESIAN GRADIENT
------------------

   1   H   :    0.003811890   -0.000000000   -0.000000000
   2   H   :    0.010860921   -0.000000000   -0.000000000
   3   H   :   -0.014672811    0.000000000    0.000000000

Difference to translation invariance:
           :    0.0000000000    0.0000000000    0.0000000000

Norm of the cartesian gradient     ...    0.0186489005
RMS gradient                       ...    0.0062163002
MAX gradient                       ...    0.0146728108

-------
TIMINGS
-------

Total SCF gradient time            ...        0.304 sec

One electron gradient       ....       0.002 sec  (  0.5%)
Prescreening matrices       ....       0.000 sec  (  0.0%)
RI-J Coulomb gradient       ....       0.085 sec  ( 28.0%)
XC gradient                 ....       0.007 sec  (  2.4%)
------------------------------------------------------------------------------
                         ORCA GEOMETRY RELAXATION STEP
------------------------------------------------------------------------------

Reading the OPT-File                    .... done
Getting information on internals        .... done
Copying old internal coords+grads       .... done
Making the new internal coordinates     .... (new redundants).... done
Validating the new internal coordinates .... (new redundants).... done
Calculating the B-matrix                .... done
Calculating the G,G- and P matrices     .... done
Transforming gradient to internals      .... done
Projecting the internal gradient        .... done
Number of atoms                         ....   3
Number of internal coordinates          ....   4
Current Energy                          ....    -1.655798737 Eh
Current gradient norm                   ....     0.018648900 Eh/bohr
Maximum allowed component of the step   ....  0.300
Current trust radius                    ....  0.300
Updating the Hessian (BFGS)             .... done
Forming the augmented Hessian           .... done
Diagonalizing the augmented Hessian     .... done
Last element of RFO vector              ....  0.914793527
Lowest eigenvalues of augmented Hessian:
 -0.001683118  0.008633087  0.165479747  0.165479747
Length of the computed step             ....  0.441544204
Warning: the length of the step is outside the trust region - taking restricted step instead
The input lambda is                     ....    -0.001683
   iter:   1  x=   -0.004007  g=   45.166064 f(x)=     0.104961
   iter:   2  x=   -0.005412  g=   22.092126 f(x)=     0.031032
   iter:   3  x=   -0.005742  g=   15.384513 f(x)=     0.005089
   iter:   4  x=   -0.005756  g=   14.212787 f(x)=     0.000197
   iter:   5  x=   -0.005756  g=   14.166279 f(x)=     0.000000
   iter:   6  x=   -0.005756  g=   14.166202 f(x)=     0.000000
   iter:   7  x=   -0.005756  g=   14.166202 f(x)=     0.000000
The output lambda is                    ....    -0.005756 (7 iterations)
The final length of the internal step   ....  0.300000000
Converting the step to cartesian space:
 Initial RMS(Int)=    0.1500000000
Transforming coordinates:
 Iter   0:  RMS(Cart)=    0.0544331054 RMS(Int)=    0.1000000000
 Iter   1:  RMS(Cart)=    0.0272165527 RMS(Int)=    0.0500000000
 Iter   2:  RMS(Cart)=    0.0000000034 RMS(Int)=    0.0000000053
Imposing constraints:
 Iter   0:  RMS(Cart)=    0.0000000000 RMS(Int)=    0.0000000000
CONVERGED
done
Storing new coordinates                 .... done

                                .--------------------.
          ----------------------|Geometry convergence|-------------------------
          Item                value                   Tolerance       Converged
          ---------------------------------------------------------------------
          Energy change      -0.0014609489            0.0000300000      NO
          RMS gradient        0.0019059449            0.0005000000      NO
          MAX gradient        0.0038118897            0.0020000000      NO
          RMS step            0.1500000000            0.0070000000      NO
          MAX step            0.3000000000            0.0100000000      NO
          ........................................................
          Max(Bonds)      0.1588      Max(Angles)    0.00
          Max(Dihed)        0.00      Max(Improp)    0.00
          ---------------------------------------------------------------------

The optimization has not yet converged - more geometry cycles are needed


    ---------------------------------------------------------------------------
                         Redundant Internal Coordinates
                            (Angstroem and degrees)

        Definition                    Value    dE/dq     Step     New-Value
    ----------------------------------------------------------------------------
     1. B(H   1,H   0)                1.3671 -0.003812  0.1588    1.5259   
     2. B(H   2,H   1)                0.7750 -0.014673 -0.0000    0.7750 C 
     3. L(H   0,H   1,H   2, 1)       180.00 -0.000000   -0.00    180.00   
     4. L(H   0,H   1,H   2, 2)       180.00  0.000000    0.00    180.00   
    ----------------------------------------------------------------------------

         *************************************************************
         *                GEOMETRY OPTIMIZATION CYCLE   4            *
         *************************************************************
---------------------------------
CARTESIAN COORDINATES (ANGSTROEM)
---------------------------------
  H     -0.475590   -0.000000   -0.000000
  H      1.050295    0.000000    0.000000
  H      1.825295   -0.000000   -0.000000

----------------------------
CARTESIAN COORDINATES (A.U.)
----------------------------
  NO LB      ZA    FRAG     MASS         X           Y           Z
   0 H     1.0000    0     1.008   -0.898735   -0.000000   -0.000000
   1 H     1.0000    0     1.008    1.984770    0.000000    0.000000
   2 H     1.0000    0     1.008    3.449308   -0.000000   -0.000000

--------------------------------
INTERNAL COORDINATES (ANGSTROEM)
--------------------------------
 H      0   0   0     0.000000000000     0.00000000     0.00000000
 H      1   0   0     1.525885212293     0.00000000     0.00000000
 H      2   1   0     0.774999997995   179.99998639     0.00000000

---------------------------
INTERNAL COORDINATES (A.U.)
---------------------------
 H      0   0   0     0.000000000000     0.00000000     0.00000000
 H      1   0   0     2.883505163035     0.00000000     0.00000000
 H      2   1   0     1.464537750000   179.99998639     0.00000000



           ************************************************************
           *        Program running with 8 parallel MPI-processes     *
           *              working on a common directory               *
           ************************************************************
 One Electron integrals                  ... done
 Pre-screening matrix                    ... done


           ************************************************************
           *        Program running with 8 parallel MPI-processes     *
           *              working on a common directory               *
           ************************************************************

Diagonalization of the overlap matrix:
Smallest eigenvalue                        ... 3.930e-02
Time for diagonalization                   ...    0.000 sec
Threshold for overlap eigenvalues          ... 1.000e-08
Number of eigenvalues below threshold      ... 0
Time for construction of square roots      ...    0.001 sec
Total time needed                          ...    0.001 sec

-------------------
DFT GRID GENERATION
-------------------

General Integration Accuracy     IntAcc      ...  4.340
Radial Grid Type                 RadialGrid  ... Gauss-Chebyshev
Angular Grid (max. acc.)         AngularGrid ... Lebedev-110
Angular grid pruning method      GridPruning ... 3 (G Style)
Weight generation scheme         WeightScheme... Becke
Basis function cutoff            BFCut       ...    1.0000e-11
Integration weight cutoff        WCut        ...    1.0000e-14
Grids for H and He will be reduced by one unit

# of grid points (after initial pruning)     ...   2382 (   0.0 sec)
# of grid points (after weights+screening)   ...   2340 (   0.0 sec)
nearest neighbour list constructed           ...    0.0 sec
Grid point re-assignment to atoms done       ...    0.0 sec
Grid point division into batches done        ...    0.0 sec
Reduced shell lists constructed in    0.0 sec

Total number of grid points                  ...     2340
Total number of batches                      ...       38
Average number of points per batch           ...       61
Average number of grid points per atom       ...      780
Average number of shells per batch           ...     7.33 (81.48%)
Average number of basis functions per batch  ...    12.00 (80.00%)
Average number of large shells per batch     ...     7.00 (95.45%)
Average number of large basis fcns per batch ...    11.33 (94.44%)
Maximum spatial batch extension              ...  12.73, 21.59, 21.59 au
Average spatial batch extension              ...   1.31,  1.55,  2.42 au

Time for grid setup =    0.007 sec

--------------
SCF ITERATIONS
--------------
ITER       Energy         Delta-E        Max-DP      RMS-DP      [F,P]     Damp
               ***  Starting incremental Fock matrix formation  ***
  0     -1.6555026100   0.000000000000 0.00537646  0.00039320  0.0176672 0.7000
  1     -1.6557530186  -0.000250408600 0.00511515  0.00037989  0.0145339 0.7000
                               ***Turning on DIIS***
  2     -1.6559632968  -0.000210278258 0.01337884  0.00105568  0.0112869 0.0000
  3     -1.6565150631  -0.000551766260 0.00248802  0.00030041  0.0025042 0.0000
  4     -1.6565431528  -0.000028089678 0.00101471  0.00015636  0.0014178 0.0000
  5     -1.6565519845  -0.000008831752 0.00121902  0.00017377  0.0007047 0.0000
  6     -1.6565553600  -0.000003375515 0.00010505  0.00001277  0.0000883 0.0000
  7     -1.6565553789  -0.000000018884 0.00001733  0.00000178  0.0000135 0.0000
                 **** Energy Check signals convergence ****

               *****************************************************
               *                     SUCCESS                       *
               *           SCF CONVERGED AFTER   8 CYCLES          *
               *****************************************************

Setting up the final grid:

General Integration Accuracy     IntAcc      ...  4.670
Radial Grid Type                 RadialGrid  ... Gauss-Chebyshev
Angular Grid (max. acc.)         AngularGrid ... Lebedev-302
Angular grid pruning method      GridPruning ... 3 (G Style)
Weight generation scheme         WeightScheme... Becke
Basis function cutoff            BFCut       ...    1.0000e-11
Integration weight cutoff        WCut        ...    1.0000e-14
Grids for H and He will be reduced by one unit

# of grid points (after initial pruning)     ...  10182 (   0.0 sec)
# of grid points (after weights+screening)   ...  10082 (   0.0 sec)
nearest neighbour list constructed           ...    0.0 sec
Grid point re-assignment to atoms done       ...    0.0 sec
Grid point division into batches done        ...    0.0 sec
Reduced shell lists constructed in    0.0 sec

Total number of grid points                  ...    10082
Total number of batches                      ...      159
Average number of points per batch           ...       63
Average number of grid points per atom       ...     3361
Average number of shells per batch           ...     5.95 (66.14%)
Average number of basis functions per batch  ...     8.62 (57.46%)
Average number of large shells per batch     ...     5.19 (87.20%)
Average number of large basis fcns per batch ...     7.38 (85.64%)
Maximum spatial batch extension              ...  12.00, 15.43, 15.43 au
Average spatial batch extension              ...   0.95,  1.10,  1.03 au

Final grid set up in    0.0 sec
Final integration                            ... done (   0.0 sec)
Change in XC energy                          ...     0.000024628
Integrated number of electrons               ...     2.999992165
Previous integrated no of electrons          ...     3.000681138
Total Energy       :           -1.65653075 Eh             -45.07649 eV
  Last Energy change         ...   -1.0396e-09  Tolerance :   1.0000e-08
  Last MAX-Density change    ...    5.0687e-06  Tolerance :   1.0000e-07
             **** THE GBW FILE WAS UPDATED (h3_subst_scan3_orca.gbw) ****
             **** DENSITY FILE WAS UPDATED (h3_subst_scan3_orca.scfp.tmp) ****
             **** ENERGY FILE WAS UPDATED (h3_subst_scan3_orca.en.tmp) ****
----------------------
UHF SPIN CONTAMINATION
----------------------

Warning: in a DFT calculation there is little theoretical justification to 
         calculate <S**2> as in Hartree-Fock theory. We will do it anyways
         but you should keep in mind that the values have only limited relevance

Expectation value of <S**2>     :     0.751751
Ideal value S*(S+1) for S=0.5   :     0.750000
Deviation                       :     0.001751

Total SCF time: 0 days 0 hours 0 min 1 sec 


-------------------------------------------------------------------------------
                          DFT DISPERSION CORRECTION                            
                                                                               
                              DFTD3 V3.1  Rev 1                                
                          USING Becke-Johnson damping                          
-------------------------------------------------------------------------------
-------------------------   ----------------
Dispersion correction           -0.000358071
-------------------------   ----------------


-------------------------   --------------------
FINAL SINGLE POINT ENERGY        -1.656888823493
-------------------------   --------------------



           ************************************************************
           *        Program running with 8 parallel MPI-processes     *
           *              working on a common directory               *
           ************************************************************
------------------------------------------------------------------------------
                         ORCA SCF GRADIENT CALCULATION
------------------------------------------------------------------------------

Gradient of the Kohn-Sham DFT energy:
Kohn-Sham wavefunction type      ... UKS
Hartree-Fock exchange scaling    ...    0.000
Number of operators              ...    2
Number of atoms                  ...    3
Basis set dimensions             ...   15
Integral neglect threshold       ... 2.5e-11
Integral primitive cutoff        ... 2.5e-12

Nuclear repulsion gradient       ... done
One Electron Gradient            ... done
Pre-screening matrix             ... done
RI-J gradient                    ... done
Exchange-correlation gradient    ... done
Dispersion correction            ... done

------------------
CARTESIAN GRADIENT
------------------

   1   H   :    0.003139212   -0.000000000   -0.000000000
   2   H   :    0.004226830   -0.000000000   -0.000000000
   3   H   :   -0.007366042    0.000000000    0.000000000

Difference to translation invariance:
           :    0.0000000000    0.0000000000    0.0000000000

Norm of the cartesian gradient     ...    0.0090542431
RMS gradient                       ...    0.0030180810
MAX gradient                       ...    0.0073660420

-------
TIMINGS
-------

Total SCF gradient time            ...        0.320 sec

One electron gradient       ....       0.001 sec  (  0.5%)
Prescreening matrices       ....       0.000 sec  (  0.0%)
RI-J Coulomb gradient       ....       0.086 sec  ( 26.8%)
XC gradient                 ....       0.007 sec  (  2.3%)
------------------------------------------------------------------------------
                         ORCA GEOMETRY RELAXATION STEP
------------------------------------------------------------------------------

Reading the OPT-File                    .... done
Getting information on internals        .... done
Copying old internal coords+grads       .... done
Making the new internal coordinates     .... (new redundants).... done
Validating the new internal coordinates .... (new redundants).... done
Calculating the B-matrix                .... done
Calculating the G,G- and P matrices     .... done
Transforming gradient to internals      .... done
Projecting the internal gradient        .... done
Number of atoms                         ....   3
Number of internal coordinates          ....   4
Current Energy                          ....    -1.656888823 Eh
Current gradient norm                   ....     0.009054243 Eh/bohr
[...]
 Density Functional     Method          .... DFT(GTOs)
 Exchange Functional    Exchange        .... PBE
   PBE kappa parameter   XKappa         ....  0.804000
   PBE mue parameter    XMuePBE         ....  0.219520
 Correlation Functional Correlation     .... PBE
   PBE beta parameter  CBetaPBE         ....  0.066725
 LDA part of GGA corr.  LDAOpt          .... PW91-LDA
 Gradients option       PostSCFGGA      .... off
   Density functional embedding theory  .... OFF
   NL short-range parameter             ....  6.400000
 RI-approximation to the Coulomb term is turned on
   Number of auxiliary basis functions  .... 33


General Settings:
 Integral files         IntName         .... h3_subst_scan3_orca
 Hartree-Fock type      HFTyp           .... UHF
 Total Charge           Charge          ....    0
 Multiplicity           Mult            ....    2
 Number of Electrons    NEL             ....    3
 Basis Dimension        Dim             ....   15
 Nuclear Repulsion      ENuc            ....      1.0190334973 Eh

Convergence Acceleration:
 DIIS                   CNVDIIS         .... on
   Start iteration      DIISMaxIt       ....    12
   Startup error        DIISStart       ....  0.200000
   # of expansion vecs  DIISMaxEq       ....     5
   Bias factor          DIISBfac        ....   1.050
   Max. coefficient     DIISMaxC        ....  10.000
 Newton-Raphson         CNVNR           .... off
 SOSCF                  CNVSOSCF        .... off
 Level Shifting         CNVShift        .... on
   Level shift para.    LevelShift      ....    0.2500
   Turn off err/grad.   ShiftErr        ....    0.0010
 Zerner damping         CNVZerner       .... off
 Static damping         CNVDamp         .... on
   Fraction old density DampFac         ....    0.7000
   Max. Damping (<1)    DampMax         ....    0.9800
   Min. Damping (>=0)   DampMin         ....    0.0000
   Turn off err/grad.   DampErr         ....    0.1000
 Fernandez-Rico         CNVRico         .... off

SCF Procedure:
 Maximum # iterations   MaxIter         ....   250
 SCF integral mode      SCFMode         .... Direct
   Integral package                     .... LIBINT
 Reset frequency        DirectResetFreq ....    20
 Integral Threshold     Thresh          ....  2.500e-11 Eh
 Primitive CutOff       TCut            ....  2.500e-12 Eh

Convergence Tolerance:
 Convergence Check Mode ConvCheckMode   .... Total+1el-Energy
 Convergence forced     ConvForced      .... 0
 Energy Change          TolE            ....  1.000e-08 Eh
 1-El. energy change                    ....  1.000e-05 Eh
 DIIS Error             TolErr          ....  5.000e-07


Diagonalization of the overlap matrix:
Smallest eigenvalue                        ... 5.693e-02
Time for diagonalization                   ...    0.000 sec
Threshold for overlap eigenvalues          ... 1.000e-08
Number of eigenvalues below threshold      ... 0
Time for construction of square roots      ...    0.000 sec
Total time needed                          ...    0.001 sec

---------------------
INITIAL GUESS: MOREAD
---------------------
Guess MOs are being read from file: h3_subst_scan3_orca.gbw
Input Geometry matches current geometry (good)
Input basis set matches current basis set (good)
MOs were renormalized
MOs were reorthogonalized (Cholesky)
                      ------------------
                      INITIAL GUESS DONE (   0.0 sec)
                      ------------------
-------------------
DFT GRID GENERATION
-------------------

General Integration Accuracy     IntAcc      ...  4.340
Radial Grid Type                 RadialGrid  ... Gauss-Chebyshev
Angular Grid (max. acc.)         AngularGrid ... Lebedev-110
Angular grid pruning method      GridPruning ... 3 (G Style)
Weight generation scheme         WeightScheme... Becke
Basis function cutoff            BFCut       ...    1.0000e-11
Integration weight cutoff        WCut        ...    1.0000e-14
Grids for H and He will be reduced by one unit

# of grid points (after initial pruning)     ...   2382 (   0.0 sec)
# of grid points (after weights+screening)   ...   2348 (   0.0 sec)
nearest neighbour list constructed           ...    0.0 sec
Grid point re-assignment to atoms done       ...    0.0 sec
Grid point division into batches done        ...    0.0 sec
Reduced shell lists constructed in    0.0 sec

Total number of grid points                  ...     2348
Total number of batches                      ...       38
Average number of points per batch           ...       61
Average number of grid points per atom       ...      783
Average number of shells per batch           ...     6.83 (75.93%)
Average number of basis functions per batch  ...    11.17 (74.44%)
Average number of large shells per batch     ...     6.17 (90.24%)
Average number of large basis fcns per batch ...     9.17 (82.09%)
Maximum spatial batch extension              ...  13.16, 21.59, 21.59 au
Average spatial batch extension              ...   1.28,  1.68,  2.44 au

Time for grid setup =    0.006 sec

--------------
SCF ITERATIONS
--------------
ITER       Energy         Delta-E        Max-DP      RMS-DP      [F,P]     Damp
               ***  Starting incremental Fock matrix formation  ***
  0     -1.6590986320   0.000000000000 0.00002934  0.00000286  0.0001208 0.7000
  1     -1.6590986472  -0.000000015226 0.00002855  0.00000318  0.0000995 0.7000
                               ***Turning on DIIS***
  2     -1.6590986598  -0.000000012540 0.00010166  0.00001060  0.0000778 0.0000
  3     -1.6590986916  -0.000000031833 0.00001292  0.00000120  0.0000133 0.0000
                 **** Energy Check signals convergence ****

               *****************************************************
               *                     SUCCESS                       *
               *           SCF CONVERGED AFTER   4 CYCLES          *
               *****************************************************

Setting up the final grid:

General Integration Accuracy     IntAcc      ...  4.670
Radial Grid Type                 RadialGrid  ... Gauss-Chebyshev
Angular Grid (max. acc.)         AngularGrid ... Lebedev-302
Angular grid pruning method      GridPruning ... 3 (G Style)
Weight generation scheme         WeightScheme... Becke
Basis function cutoff            BFCut       ...    1.0000e-11
Integration weight cutoff        WCut        ...    1.0000e-14
Grids for H and He will be reduced by one unit

# of grid points (after initial pruning)     ...  10182 (   0.0 sec)
# of grid points (after weights+screening)   ...  10110 (   0.0 sec)
nearest neighbour list constructed           ...    0.0 sec
Grid point re-assignment to atoms done       ...    0.0 sec
Grid point division into batches done        ...    0.0 sec
Reduced shell lists constructed in    0.0 sec

Total number of grid points                  ...    10110
Total number of batches                      ...      160
Average number of points per batch           ...       63
Average number of grid points per atom       ...     3370
Average number of shells per batch           ...     5.76 (64.02%)
Average number of basis functions per batch  ...     8.43 (56.19%)
Average number of large shells per batch     ...     4.43 (76.86%)
Average number of large basis fcns per batch ...     5.76 (68.36%)
Maximum spatial batch extension              ...  12.96, 15.43, 15.43 au
Average spatial batch extension              ...   0.95,  1.05,  1.07 au

Final grid set up in    0.0 sec
Final integration                            ... done (   0.0 sec)
Change in XC energy                          ...    -0.000364314
Integrated number of electrons               ...     2.999987163
Previous integrated no of electrons          ...     2.997930022

----------------
TOTAL SCF ENERGY
----------------

Total Energy       :           -1.65946301 Eh             -45.15628 eV

Components:
Nuclear Repulsion  :            1.01903350 Eh              27.72931 eV
Electronic Energy  :           -2.67849650 Eh             -72.88560 eV
One Electron Energy:           -3.62943722 Eh             -98.76201 eV
Two Electron Energy:            0.95094072 Eh              25.87641 eV

Virial components:
Potential Energy   :           -3.22907115 Eh             -87.86749 eV
Kinetic Energy     :            1.56960814 Eh              42.71121 eV
Virial Ratio       :            2.05724669


DFT components:
N(Alpha)           :        1.999988192849 electrons
N(Beta)            :        0.999998969766 electrons
N(Total)           :        2.999987162616 electrons
E(X)               :       -0.940314304427 Eh       
E(C)               :       -0.050863215291 Eh       
E(XC)              :       -0.991177519718 Eh       
DFET-embed. en.    :        0.000000000000 Eh       

---------------
SCF CONVERGENCE
---------------

  Last Energy change         ...   -5.3465e-10  Tolerance :   1.0000e-08
  Last MAX-Density change    ...    4.9733e-06  Tolerance :   1.0000e-07
  Last RMS-Density change    ...    4.9778e-07  Tolerance :   5.0000e-09
  Last DIIS Error            ...    8.0362e-06  Tolerance :   5.0000e-07

             **** THE GBW FILE WAS UPDATED (h3_subst_scan3_orca.gbw) ****
             **** DENSITY FILE WAS UPDATED (h3_subst_scan3_orca.scfp.tmp) ****
             **** ENERGY FILE WAS UPDATED (h3_subst_scan3_orca.en.tmp) ****
----------------------
UHF SPIN CONTAMINATION
----------------------

Warning: in a DFT calculation there is little theoretical justification to 
         calculate <S**2> as in Hartree-Fock theory. We will do it anyways
         but you should keep in mind that the values have only limited relevance

Expectation value of <S**2>     :     0.750003
Ideal value S*(S+1) for S=0.5   :     0.750000
Deviation                       :     0.000003

----------------
ORBITAL ENERGIES
----------------
                 SPIN UP ORBITALS
  NO   OCC          E(Eh)            E(eV) 
   0   1.0000      -0.370515       -10.0822 
   1   1.0000      -0.276687        -7.5290 
   2   0.0000       0.051572         1.4034 
   3   0.0000       0.303289         8.2529 
   4   0.0000       0.422304        11.4915 
   5   0.0000       0.677773        18.4432 
   6   0.0000       1.108049        30.1515 
   7   0.0000       1.108049        30.1515 
   8   0.0000       1.284246        34.9461 
   9   0.0000       1.284246        34.9461 
  10   0.0000       1.303142        35.4603 
  11   0.0000       1.713601        46.6294 
  12   0.0000       1.858147        50.5627 
  13   0.0000       1.858147        50.5627 
  14   0.0000       3.207661        87.2849 

                 SPIN DOWN ORBITALS
  NO   OCC          E(Eh)            E(eV) 
   0   1.0000      -0.369794       -10.0626 
   1   0.0000       0.026615         0.7242 
   2   0.0000       0.112437         3.0596 
   3   0.0000       0.327261         8.9052 
   4   0.0000       0.676132        18.3985 
   5   0.0000       0.849267        23.1097 
   6   0.0000       1.108321        30.1589 
   7   0.0000       1.108321        30.1589 
   8   0.0000       1.711660        46.5766 
   9   0.0000       1.787797        48.6484 
  10   0.0000       1.787797        48.6484 
  11   0.0000       1.810577        49.2683 
  12   0.0000       1.858507        50.5726 
  13   0.0000       1.858507        50.5726 
  14   0.0000       3.208585        87.3100 

                    ********************************
                    * MULLIKEN POPULATION ANALYSIS *
                    ********************************

--------------------------------------------
MULLIKEN ATOMIC CHARGES AND SPIN POPULATIONS
--------------------------------------------
   0 H :    0.003985    0.995012
   1 H :   -0.003200    0.001629
   2 H :   -0.000786    0.003359
Sum of atomic charges         :    0.0000000
Sum of atomic spin populations:    1.0000000

-----------------------------------------------------
MULLIKEN REDUCED ORBITAL CHARGES AND SPIN POPULATIONS
-----------------------------------------------------
CHARGE
  0 H s       :     0.995990  s :     0.995990
      pz      :     0.000000  p :     0.000025
      px      :     0.000025
      py      :     0.000000
  1 H s       :     0.994832  s :     0.994832
      pz      :     0.000000  p :     0.008368
      px      :     0.008368
      py      :     0.000000
  2 H s       :     0.992263  s :     0.992263
      pz      :     0.000000  p :     0.008523
      px      :     0.008523
      py      :     0.000000

SPIN
  0 H s       :     0.994998  s :     0.994998
      pz      :     0.000000  p :     0.000014
      px      :     0.000014
      py      :     0.000000
  1 H s       :     0.001524  s :     0.001524
      pz      :    -0.000000  p :     0.000105
      px      :     0.000105
      py      :    -0.000000
  2 H s       :     0.003355  s :     0.003355
      pz      :     0.000000  p :     0.000003
      px      :     0.000003
      py      :     0.000000


                     *******************************
                     * LOEWDIN POPULATION ANALYSIS *
                     *******************************

-------------------------------------------
LOEWDIN ATOMIC CHARGES AND SPIN POPULATIONS
-------------------------------------------
   0 H :    0.003936    0.994719
   1 H :   -0.003042    0.002322
   2 H :   -0.000894    0.002959

----------------------------------------------------
LOEWDIN REDUCED ORBITAL CHARGES AND SPIN POPULATIONS
----------------------------------------------------
CHARGE
  0 H s       :     0.996044  s :     0.996044
      pz      :     0.000000  p :     0.000020
      px      :     0.000020
      py      :     0.000000
  1 H s       :     0.977677  s :     0.977677
      pz      :     0.000000  p :     0.025365
      px      :     0.025365
      py      :     0.000000
  2 H s       :     0.975831  s :     0.975831
      pz      :     0.000000  p :     0.025063
      px      :     0.025063
      py      :     0.000000

SPIN
  0 H s       :     0.994710  s :     0.994710
      pz      :     0.000000  p :     0.000009
      px      :     0.000009
      py      :     0.000000
  1 H s       :     0.001771  s :     0.001771
      pz      :     0.000000  p :     0.000551
      px      :     0.000551
      py      :     0.000000
  2 H s       :     0.003028  s :     0.003028
      pz      :    -0.000000  p :    -0.000068
      px      :    -0.000068
      py      :    -0.000000


                      *****************************
                      * MAYER POPULATION ANALYSIS *
                      *****************************

  NA   - Mulliken gross atomic population
  ZA   - Total nuclear charge
  QA   - Mulliken gross atomic charge
  VA   - Mayer's total valence
  BVA  - Mayer's bonded valence
  FA   - Mayer's free valence

  ATOM       NA         ZA         QA         VA         BVA        FA
  0 H      0.9960     1.0000     0.0040     1.0006     0.0105     0.9902
  1 H      1.0032     1.0000    -0.0032     1.0058     1.0058     0.0000
  2 H      1.0008     1.0000    -0.0008     0.9983     0.9983     0.0000

  Mayer bond orders larger than 0.1
B(  1-H ,  2-H ) :   0.9968 

-------
TIMINGS
-------

Total SCF time: 0 days 0 hours 0 min 0 sec 

Total time                  ....       0.665 sec
Sum of individual times     ....       0.555 sec  ( 83.5%)

Fock matrix formation       ....       0.512 sec  ( 76.9%)
  Split-RI-J                ....       0.456 sec  ( 89.0% of F)
  XC integration            ....       0.015 sec  (  2.9% of F)
    Basis function eval.    ....       0.002 sec  ( 14.2% of XC)
    Density eval.           ....       0.002 sec  ( 13.2% of XC)
    XC-Functional eval.     ....       0.003 sec  ( 17.9% of XC)
    XC-Potential eval.      ....       0.001 sec  (  4.6% of XC)
Diagonalization             ....       0.001 sec  (  0.1%)
Density matrix formation    ....       0.000 sec  (  0.0%)
Population analysis         ....       0.002 sec  (  0.3%)
Initial guess               ....       0.001 sec  (  0.2%)
Orbital Transformation      ....       0.000 sec  (  0.0%)
Orbital Orthonormalization  ....       0.000 sec  (  0.0%)
DIIS solution               ....       0.000 sec  (  0.1%)
Grid generation             ....       0.039 sec  (  5.8%)


-------------------------------------------------------------------------------
                          DFT DISPERSION CORRECTION                            
                                                                               
                              DFTD3 V3.1  Rev 1                                
                          USING Becke-Johnson damping                          
-------------------------------------------------------------------------------
The PBE functional is recognized
Active option DFTDOPT                   ...         4   

molecular C6(AA) [au] = 39.715229 


            DFT-D V3
 parameters
 s6 scaling factor         :     1.0000 
 a1 scaling factor         :     0.4289 
 s8 scaling factor         :     0.7875 
 a2 scaling factor         :     4.4407 
 ad hoc parameters k1-k3   :    16.0000     1.3333    -4.0000 

 Edisp/kcal,au: -0.145367767393  -0.000231658258 
 E6   /kcal   :  -0.114495446 
 E8   /kcal   :  -0.030872321 
 % E8         :  21.237391239 

-------------------------   ----------------
Dispersion correction           -0.000231658
-------------------------   ----------------


-------------------------   --------------------
FINAL SINGLE POINT ENERGY        -1.659694664586
-------------------------   --------------------

                                *** OPTIMIZATION RUN DONE ***

                            ***************************************
                            *     ORCA property calculations      *
                            ***************************************

                                    ---------------------
                                    Active property flags
                                    ---------------------
   (+) Dipole Moment


------------------------------------------------------------------------------
                       ORCA ELECTRIC PROPERTIES CALCULATION
------------------------------------------------------------------------------

Dipole Moment Calculation                       ... on
Quadrupole Moment Calculation                   ... off
Polarizability Calculation                      ... off
GBWName                                         ... h3_subst_scan3_orca.gbw
Electron density file                           ... h3_subst_scan3_orca.scfp.tmp
The origin for moment calculation is the CENTER OF MASS  = ( 1.511781, -0.000000  0.000000)

-------------
DIPOLE MOMENT
-------------
                                X             Y             Z
Electronic contribution:     -0.01969      -0.00000      -0.00000
Nuclear contribution   :      0.00000       0.00000       0.00000
                        -----------------------------------------
Total Dipole Moment    :     -0.01969      -0.00000      -0.00000
                        -----------------------------------------
Magnitude (a.u.)       :      0.01969
Magnitude (Debye)      :      0.05004



--------------------
Rotational spectrum 
--------------------
 
Rotational constants in cm-1:     0.000000     2.353927     2.353927 
Rotational constants in MHz :     0.000000 70568.966351 70568.966351 

 Dipole components along the rotational axes: 
x,y,z [a.u.] :     0.019688     0.000000     0.000000 
x,y,z [Debye]:     0.050043     0.000000     0.000000 

 

Timings for individual modules:

Sum of individual times         ...       54.342 sec (=   0.906 min)
GTO integral calculation        ...       14.062 sec (=   0.234 min)  25.9 %
SCF iterations                  ...       24.785 sec (=   0.413 min)  45.6 %
SCF Gradient evaluation         ...       15.197 sec (=   0.253 min)  28.0 %
Geometry relaxation             ...        0.298 sec (=   0.005 min)   0.5 %
                             ****ORCA TERMINATED NORMALLY****
TOTAL RUN TIME: 0 days 0 hours 0 minutes 56 seconds 727 msec
