
                                 *****************
                                 * O   R   C   A *
                                 *****************

           --- An Ab Initio, DFT and Semiempirical electronic structure package ---

                  #######################################################
                  #                        -***-                        #
                  #          Department of theory and spectroscopy      #
                  #               Directorship: Frank Neese             #
                  #        Max Planck Institute fuer Kohlenforschung    #
                  #                Kaiser Wilhelm Platz 1               #
                  #                 D-45470 Muelheim/Ruhr               #
                  #                      Germany                        #
                  #                                                     #
                  #                  All rights reserved                #
                  #                        -***-                        #
                  #######################################################


                         Program Version 4.1.1  - RELEASE  -


 With contributions from (in alphabetic order):
   Daniel Aravena         : Magnetic Properties
   Michael Atanasov       : Ab Initio Ligand Field Theory
   Alexander A. Auer      : GIAO ZORA
   Ute Becker             : Parallelization
   Giovanni Bistoni       : ED, Open-shell LED
   Martin Brehm           : Molecular dynamics
   Dmytro Bykov           : SCF Hessian
   Vijay G. Chilkuri      : MRCI spin determinant printing
   Dipayan Datta          : RHF DLPNO-CCSD density
   Achintya Kumar Dutta   : EOM-CC, STEOM-CC
   Dmitry Ganyushin       : Spin-Orbit,Spin-Spin,Magnetic field MRCI
   Miquel Garcia          : C-PCM Hessian
   Yang Guo               : DLPNO-NEVPT2, CIM, IAO-localization
   Andreas Hansen         : Spin unrestricted coupled pair/coupled cluster methods
   Benjamin Helmich-Paris : CASSCF linear response (MC-RPA)
   Lee Huntington         : MR-EOM, pCC
   Robert Izsak           : Overlap fitted RIJCOSX, COSX-SCS-MP3, EOM
   Christian Kollmar      : KDIIS, OOCD, Brueckner-CCSD(T), CCSD density
   Simone Kossmann        : Meta GGA functionals, TD-DFT gradient, OOMP2, MP2 Hessian
   Martin Krupicka        : AUTO-CI
   Lucas Lang             : DCDCAS
   Dagmar Lenk            : GEPOL surface, SMD
   Dimitrios Liakos       : Extrapolation schemes; parallel MDCI
   Dimitrios Manganas     : ROCIS; embedding schemes
   Dimitrios Pantazis     : SARC Basis sets
   Taras Petrenko         : DFT Hessian,TD-DFT gradient, ASA, ECA, R-Raman, ABS, FL, XAS/XES, NRVS
   Peter Pinski           : DLPNO-MP2, DLPNO-MP2 Gradient
   Christoph Reimann      : Effective Core Potentials
   Marius Retegan         : Local ZFS, SOC
   Christoph Riplinger    : Optimizer, TS searches, QM/MM, DLPNO-CCSD(T), (RO)-DLPNO pert. Triples
   Tobias Risthaus        : Range-separated hybrids, TD-DFT gradient, RPA, STAB
   Michael Roemelt        : Restricted open shell CIS
   Masaaki Saitow         : Open-shell DLPNO
   Barbara Sandhoefer     : DKH picture change effects
   Avijit Sen             : IP-ROCIS
   Kantharuban Sivalingam : CASSCF convergence, NEVPT2, FIC-MRCI
   Bernardo de Souza      : ESD, SOC TD-DFT
   Georgi Stoychev        : AutoAux, RI-MP2 NMR
   Willem Van den Heuvel  : Paramagnetic NMR
   Boris Wezisla          : Elementary symmetry handling
   Frank Wennmohs         : Technical directorship


 We gratefully acknowledge several colleagues who have allowed us to
 interface, adapt or use parts of their codes:
   Stefan Grimme, W. Hujo, H. Kruse,             : VdW corrections, initial TS optimization,
                  C. Bannwarth                     DFT functionals, gCP, sTDA/sTD-DF
   Ed Valeev                                     : LibInt (2-el integral package), F12 methods
   Garnet Chan, S. Sharma, J. Yang, R. Olivares  : DMRG
   Ulf Ekstrom                                   : XCFun DFT Library
   Mihaly Kallay                                 : mrcc  (arbitrary order and MRCC methods)
   Andreas Klamt, Michael Diedenhofen            : otool_cosmo (COSMO solvation model)
   Jiri Pittner, Ondrej Demel                    : Mk-CCSD
   Frank Weinhold                                : gennbo (NPA and NBO analysis)
   Christopher J. Cramer and Donald G. Truhlar   : smd solvation model
   Lars Goerigk                                  : TD-DFT with DH, B97 family of functionals
   V. Asgeirsson, H. Jonsson                     : NEB implementation
   FAccTs GmbH                                   : IRC, NEB, NEB-TS, Multilevel


 Your calculation uses the libint2 library for the computation of 2-el integrals
 For citations please refer to: http://libint.valeyev.net

 This ORCA versions uses:
   CBLAS   interface :  Fast vector & matrix operations
   LAPACKE interface :  Fast linear algebra routines
   SCALAPACK package :  Parallel linear algebra routines


Your calculation utilizes the atom-pairwise dispersion correction
with the Becke-Johnson damping scheme (D3BJ)
Cite in your paper:
S.Grimme, S.Ehrlich, L.Goerigk, J Comput Chem, (2011), 32, 1456–1465 
S.Grimme, J.Antony, S.Ehrlich and H.Krieg, J.Chem.Phys., 132, (2010), 154104 
   

----- Orbital basis set information -----
Your calculation utilizes the basis: def2-SVP
   F. Weigend and R. Ahlrichs, Phys. Chem. Chem. Phys. 7, 3297 (2005).

----- AuxJ basis set information -----
Your calculation utilizes the auxiliary basis: def2/J
   F. Weigend, Phys. Chem. Chem. Phys. 8, 1057 (2006).

================================================================================
                                        WARNINGS
                       Please study these warnings very carefully!
================================================================================


WARNING: Geometry Optimization
  ===> : Switching off AutoStart
         For restart on a previous wavefunction, please use MOREAD

INFO   : the flag for use of LIBINT has been found!

================================================================================
                                       INPUT FILE
================================================================================
NAME = h4_scan1_1_orca.inp
|  1> ! LooseOpt PBE RI D3BJ def2-SVP def2/J
|  2> %geom Constraints
|  3> { B 0 2 0.8999999999999999 C }
|  4> { B 1 3 0.8999999999999999 C }
|  5>     end
|  6> end
|  7> %geom MaxIter 100 end
|  8> %scf 
|  9> maxiter 250 
| 10> end
| 11> % maxcore 1000
| 12> *xyz 0 1
| 13> H  -0.02498100  0.10000000 -0.00000000 
| 14> H   0.72498100 -0.00000000  0.00000000 
| 15> H  -0.02498100 -0.80000000  0.00000000 
| 16> H   0.72498100 -0.70000000 -0.00000000 
| 17> *
| 18> 
| 19>                          ****END OF INPUT****
================================================================================

                       *****************************
                       * Geometry Optimization Run *
                       *****************************

Geometry optimization settings:
Update method            Update   .... BFGS
Choice of coordinates    CoordSys .... Z-matrix Internals
Initial Hessian          InHess   .... Almoef's Model

Convergence Tolerances:
Energy Change            TolE     ....  3.0000e-05 Eh
Max. Gradient            TolMAXG  ....  2.0000e-03 Eh/bohr
RMS Gradient             TolRMSG  ....  5.0000e-04 Eh/bohr
Max. Displacement        TolMAXD  ....  1.0000e-02 bohr
RMS Displacement         TolRMSD  ....  7.0000e-03 bohr

------------------------------------------------------------------------------
                        ORCA OPTIMIZATION COORDINATE SETUP
------------------------------------------------------------------------------

The optimization will be done in new redundant internal coordinates
Making redundant internal coordinates   ...  (new redundants) done
Evaluating the initial hessian          ...  (Almloef) done
Evaluating the coordinates              ...  done
Calculating the B-matrix                .... done
Calculating the G-matrix                .... done
Diagonalizing the G-matrix              .... done
Imposing constraints:
 Iter   0:  RMS(Cart)=    0.0347648507 RMS(Int)=    0.1510129868
 Iter   1:  RMS(Cart)=    0.0330183817 RMS(Int)=    0.0443456210
 Iter   2:  RMS(Cart)=    0.0086706503 RMS(Int)=    0.0145419250
 Iter   3:  RMS(Cart)=    0.0028170134 RMS(Int)=    0.0048056761
 Iter   4:  RMS(Cart)=    0.0009309396 RMS(Int)=    0.0015881338
 Iter   5:  RMS(Cart)=    0.0003076480 RMS(Int)=    0.0005248312
 Iter   6:  RMS(Cart)=    0.0001016686 RMS(Int)=    0.0001734412
 Iter   7:  RMS(Cart)=    0.0000335985 RMS(Int)=    0.0000573172
 Iter   8:  RMS(Cart)=    0.0000111033 RMS(Int)=    0.0000189416
 Iter   9:  RMS(Cart)=    0.0000036693 RMS(Int)=    0.0000062597
 Iter  10:  RMS(Cart)=    0.0000012126 RMS(Int)=    0.0000020686
 Iter  11:  RMS(Cart)=    0.0000004007 RMS(Int)=    0.0000006836
 Iter  12:  RMS(Cart)=    0.0000001324 RMS(Int)=    0.0000002259
 Iter  13:  RMS(Cart)=    0.0000000438 RMS(Int)=    0.0000000747
CONVERGED
Will constrain atom 0 coordinate 2 
Will constrain atom 1 coordinate 2 
Will constrain atom 2 coordinate 2 
Will constrain atom 3 coordinate 2 
The first mode is                       ....    1
The number of degrees of freedom        ....    6
Storing new coordinates                 .... done

    -----------------------------------------------------------------
                    Redundant Internal Coordinates


    -----------------------------------------------------------------
         Definition                    Initial Value    Approx d2E/dq
    -----------------------------------------------------------------
      1. B(H   1,H   0)                  0.7567         0.234637   
      2. B(H   2,H   0)                  0.9000         0.138551 C 
      3. B(H   3,H   1)                  0.9000         0.288866 C 
      4. B(H   3,H   2)                  0.7567         0.234637   
      5. A(H   0,H   1,H   3)           90.0000         0.200426   
      6. A(H   1,H   3,H   2)           90.0000         0.200426   
      7. D(H   2,H   3,H   1,H   0)      0.0000         3.410758   
    -----------------------------------------------------------------

Number of atoms                         .... 4
Number of degrees of freedom            .... 7

         *************************************************************
         *                GEOMETRY OPTIMIZATION CYCLE   1            *
         *************************************************************
---------------------------------
CARTESIAN COORDINATES (ANGSTROEM)
---------------------------------
  H     -0.028357    0.100000    0.000000
  H      0.728357    0.100000    0.000000
  H     -0.028357   -0.800000    0.000000
  H      0.728357   -0.800000    0.000000

----------------------------
CARTESIAN COORDINATES (A.U.)
----------------------------
  NO LB      ZA    FRAG     MASS         X           Y           Z
   0 H     1.0000    0     1.008   -0.053587    0.188973    0.000000
   1 H     1.0000    0     1.008    1.376396    0.188973    0.000000
   2 H     1.0000    0     1.008   -0.053587   -1.511781    0.000000
   3 H     1.0000    0     1.008    1.376396   -1.511781    0.000000

--------------------------------
INTERNAL COORDINATES (ANGSTROEM)
--------------------------------
 H      0   0   0     0.000000000000     0.00000000     0.00000000
 H      1   0   0     0.756599630878     0.00000000     0.00000000
 H      1   2   0     0.900000000000    82.40497631     0.00000000
 H      2   1   3     0.700000000000    97.59502369     0.00000000

---------------------------
INTERNAL COORDINATES (A.U.)
---------------------------
 H      0   0   0     0.000000000000     0.00000000     0.00000000
 H      1   0   0     1.429766095384     0.00000000     0.00000000
 H      1   2   0     1.700753520529    82.40497631     0.00000000
 H      2   1   3     1.322808293745    97.59502369     0.00000000

---------------------
BASIS SET INFORMATION
---------------------
There are 1 groups of distinct atoms

 Group   1 Type H   : 4s1p contracted to 2s1p pattern {31/1}

Atom   0H    basis set group =>   1
Atom   1H    basis set group =>   1
Atom   2H    basis set group =>   1
Atom   3H    basis set group =>   1
-------------------------------
AUXILIARY BASIS SET INFORMATION
-------------------------------
There are 1 groups of distinct atoms

 Group   1 Type H   : 5s2p1d contracted to 3s1p1d pattern {311/2/1}

Atom   0H    basis set group =>   1
Atom   1H    basis set group =>   1
Atom   2H    basis set group =>   1
Atom   3H    basis set group =>   1
------------------------------------------------------------------------------
                           ORCA GTO INTEGRAL CALCULATION
                           -- RI-GTO INTEGRALS CHOSEN --
------------------------------------------------------------------------------

                         BASIS SET STATISTICS AND STARTUP INFO

Gaussian basis set:
 # of primitive gaussian shells          ...   20
 # of primitive gaussian functions       ...   28
 # of contracted shells                  ...   12
 # of contracted basis functions         ...   20
 Highest angular momentum                ...    1
 Maximum contraction depth               ...    3
Auxiliary gaussian basis set:
 # of primitive gaussian shells          ...   32
 # of primitive gaussian functions       ...   64
 # of contracted shells                  ...   20
 # of contracted aux-basis functions     ...   44
 Highest angular momentum                ...    2
 Maximum contraction depth               ...    3
Ratio of auxiliary to basis functions    ...  2.20
Integral package used                  ... LIBINT
 One Electron integrals                  ... done
 Ordering auxiliary basis shells         ... done
 Integral threshhold             Thresh  ...  2.500e-11
 Primitive cut-off               TCut    ...  2.500e-12
 Pre-screening matrix                    ... done
 Shell pair data                         ... 
 Ordering of the shell pairs             ... done (   0.000 sec) 78 of 78 pairs
 Determination of significant pairs      ... done (   0.000 sec)
 Creation of shell pair data             ... done (   0.000 sec)
 Storage of shell pair data              ... done (   0.000 sec)
 Shell pair data done in (   0.000 sec)
 Computing two index integrals           ... done
 Cholesky decomposition of the V-matrix  ... done


Timings:
 Total evaluation time                   ...   0.117 sec (  0.002 min)
 One electron matrix time                ...   0.004 sec (  0.000 min) =  3.2%
 Schwartz matrix evaluation time         ...   0.105 sec (  0.002 min) = 89.5%
 Two index repulsion integral time       ...   0.000 sec (  0.000 min) =  0.1%
 Cholesky decomposition of V             ...   0.000 sec (  0.000 min) =  0.2%
 Three index repulsion integral time     ...   0.000 sec (  0.000 min) =  0.0%

-------------------------------------------------------------------------------
                                 ORCA SCF
-------------------------------------------------------------------------------

------------
SCF SETTINGS
------------
Hamiltonian:
 Density Functional     Method          .... DFT(GTOs)
 Exchange Functional    Exchange        .... PBE
   PBE kappa parameter   XKappa         ....  0.804000
   PBE mue parameter    XMuePBE         ....  0.219520
 Correlation Functional Correlation     .... PBE
   PBE beta parameter  CBetaPBE         ....  0.066725
 LDA part of GGA corr.  LDAOpt          .... PW91-LDA
 Gradients option       PostSCFGGA      .... off
   Density functional embedding theory  .... OFF
   NL short-range parameter             ....  6.400000
 RI-approximation to the Coulomb term is turned on
   Number of auxiliary basis functions  .... 44


General Settings:
 Integral files         IntName         .... h4_scan1_1_orca
 Hartree-Fock type      HFTyp           .... RHF
 Total Charge           Charge          ....    0
 Multiplicity           Mult            ....    1
 Number of Electrons    NEL             ....    4
 Basis Dimension        Dim             ....   20
 Nuclear Repulsion      ENuc            ....      3.4746452770 Eh

Convergence Acceleration:
 DIIS                   CNVDIIS         .... on
   Start iteration      DIISMaxIt       ....    12
   Startup error        DIISStart       ....  0.200000
   # of expansion vecs  DIISMaxEq       ....     5
   Bias factor          DIISBfac        ....   1.050
   Max. coefficient     DIISMaxC        ....  10.000
 Newton-Raphson         CNVNR           .... off
 SOSCF                  CNVSOSCF        .... on
   Start iteration      SOSCFMaxIt      ....   150
   Startup grad/error   SOSCFStart      ....  0.003300
 Level Shifting         CNVShift        .... on
   Level shift para.    LevelShift      ....    0.2500
   Turn off err/grad.   ShiftErr        ....    0.0010
 Zerner damping         CNVZerner       .... off
 Static damping         CNVDamp         .... on
   Fraction old density DampFac         ....    0.7000
   Max. Damping (<1)    DampMax         ....    0.9800
   Min. Damping (>=0)   DampMin         ....    0.0000
   Turn off err/grad.   DampErr         ....    0.1000
 Fernandez-Rico         CNVRico         .... off

SCF Procedure:
 Maximum # iterations   MaxIter         ....   250
 SCF integral mode      SCFMode         .... Direct
   Integral package                     .... LIBINT
 Reset frequency        DirectResetFreq ....    20
 Integral Threshold     Thresh          ....  2.500e-11 Eh
 Primitive CutOff       TCut            ....  2.500e-12 Eh

Convergence Tolerance:
 Convergence Check Mode ConvCheckMode   .... Total+1el-Energy
 Convergence forced     ConvForced      .... 0
 Energy Change          TolE            ....  1.000e-08 Eh
 1-El. energy change                    ....  1.000e-05 Eh
 Orbital Gradient       TolG            ....  1.000e-05
 Orbital Rotation angle TolX            ....  1.000e-05
 DIIS Error             TolErr          ....  5.000e-07


Diagonalization of the overlap matrix:
Smallest eigenvalue                        ... 1.493e-02
Time for diagonalization                   ...    0.001 sec
Threshold for overlap eigenvalues          ... 1.000e-08
Number of eigenvalues below threshold      ... 0
Time for construction of square roots      ...    0.000 sec
Total time needed                          ...    0.001 sec

-------------------
DFT GRID GENERATION
-------------------

General Integration Accuracy     IntAcc      ...  4.340
Radial Grid Type                 RadialGrid  ... Gauss-Chebyshev
Angular Grid (max. acc.)         AngularGrid ... Lebedev-110
Angular grid pruning method      GridPruning ... 3 (G Style)
Weight generation scheme         WeightScheme... Becke
Basis function cutoff            BFCut       ...    1.0000e-11
Integration weight cutoff        WCut        ...    1.0000e-14
Grids for H and He will be reduced by one unit

# of grid points (after initial pruning)     ...   3176 (   0.0 sec)
# of grid points (after weights+screening)   ...   3040 (   0.0 sec)
nearest neighbour list constructed           ...    0.0 sec
Grid point re-assignment to atoms done       ...    0.0 sec
Grid point division into batches done        ...    0.0 sec
Reduced shell lists constructed in    0.0 sec

Total number of grid points                  ...     3040
Total number of batches                      ...       48
Average number of points per batch           ...       63
Average number of grid points per atom       ...      760
Average number of shells per batch           ...    11.76 (97.96%)
Average number of basis functions per batch  ...    19.59 (97.96%)
Average number of large shells per batch     ...    11.67 (99.31%)
Average number of large basis fcns per batch ...    19.35 (98.75%)
Maximum spatial batch extension              ...  15.26, 15.26, 21.59 au
Average spatial batch extension              ...   5.01,  5.01,  6.82 au

Time for grid setup =    0.008 sec

------------------------------
INITIAL GUESS: MODEL POTENTIAL
------------------------------
Loading Hartree-Fock densities                     ... done
Calculating cut-offs                               ... done
Setting up the integral package                    ... done
Initializing the effective Hamiltonian             ... done
Starting the Coulomb interaction                   ... done (   0.0 sec)
Reading the grid                                   ... done
Mapping shells                                     ... done
Starting the XC term evaluation                    ... done (   0.0 sec)
  promolecular density results
     # of electrons  =      4.009392140
     EX              =     -1.209950866
     EC              =     -0.105683918
     EX+EC           =     -1.315634783
Transforming the Hamiltonian                       ... done (   0.0 sec)
Diagonalizing the Hamiltonian                      ... done (   0.0 sec)
Back transforming the eigenvectors                 ... done (   0.0 sec)
Now organizing SCF variables                       ... done
                      ------------------
                      INITIAL GUESS DONE (   0.1 sec)
                      ------------------
--------------
SCF ITERATIONS
--------------
ITER       Energy         Delta-E        Max-DP      RMS-DP      [F,P]     Damp
               ***  Starting incremental Fock matrix formation  ***
  0     -2.0242885705   0.000000000000 0.03314057  0.00562484  0.0535575 0.7000
  1     -2.0276177359  -0.003329165395 0.03174962  0.00533894  0.0351390 0.7000
                               ***Turning on DIIS***
  2     -2.0296894057  -0.002071669797 0.07357473  0.01236275  0.0204117 0.0000
  3     -2.0330990384  -0.003409632637 0.01299274  0.00218165  0.0103347 0.0000
                      *** Initiating the SOSCF procedure ***
                           *** Shutting down DIIS ***
                      *** Re-Reading the Fockian *** 
                      *** Removing any level shift *** 
ITER      Energy       Delta-E        Grad      Rot      Max-DP    RMS-DP
  4     -2.03341680  -0.0003177588  0.002226  0.002226  0.005422  0.000902
               *** Restarting incremental Fock matrix formation ***
  5     -2.03344943  -0.0000326288  0.000773  0.001472  0.002801  0.000465
  6     -2.03345095  -0.0000015222  0.000312  0.000392  0.000726  0.000122
  7     -2.03345137  -0.0000004246  0.000005  0.000003  0.000003  0.000001
                 **** Energy Check signals convergence ****
              ***Rediagonalizing the Fockian in SOSCF/NRSCF***

               *****************************************************
               *                     SUCCESS                       *
               *           SCF CONVERGED AFTER   8 CYCLES          *
               *****************************************************

Setting up the final grid:

General Integration Accuracy     IntAcc      ...  4.670
Radial Grid Type                 RadialGrid  ... Gauss-Chebyshev
Angular Grid (max. acc.)         AngularGrid ... Lebedev-302
Angular grid pruning method      GridPruning ... 3 (G Style)
Weight generation scheme         WeightScheme... Becke
Basis function cutoff            BFCut       ...    1.0000e-11
Integration weight cutoff        WCut        ...    1.0000e-14
Grids for H and He will be reduced by one unit

# of grid points (after initial pruning)     ...  13576 (   0.0 sec)
# of grid points (after weights+screening)   ...  13264 (   0.0 sec)
nearest neighbour list constructed           ...    0.0 sec
Grid point re-assignment to atoms done       ...    0.0 sec
Grid point division into batches done        ...    0.0 sec
Reduced shell lists constructed in    0.0 sec

Total number of grid points                  ...    13264
Total number of batches                      ...      208
Average number of points per batch           ...       63
Average number of grid points per atom       ...     3316
Average number of shells per batch           ...    11.20 (93.30%)
Average number of basis functions per batch  ...    18.18 (90.91%)
Average number of large shells per batch     ...    10.78 (96.24%)
Average number of large basis fcns per batch ...    17.46 (96.05%)
Maximum spatial batch extension              ...  14.16, 14.23, 18.85 au
Average spatial batch extension              ...   2.84,  2.87,  3.34 au

Final grid set up in    0.0 sec
Final integration                            ... done (   0.0 sec)
Change in XC energy                          ...     0.000547804
Integrated number of electrons               ...     3.999969581
Previous integrated no of electrons          ...     4.002361950

----------------
TOTAL SCF ENERGY
----------------

Total Energy       :           -2.03290357 Eh             -55.31812 eV

Components:
Nuclear Repulsion  :            3.47464528 Eh              94.54990 eV
Electronic Energy  :           -5.50754885 Eh            -149.86802 eV
One Electron Energy:           -8.34704299 Eh            -227.13459 eV
Two Electron Energy:            2.83949414 Eh              77.26656 eV

Virial components:
Potential Energy   :           -4.59210602 Eh            -124.95756 eV
Kinetic Energy     :            2.55920245 Eh              69.63944 eV
Virial Ratio       :            1.79435043


DFT components:
N(Alpha)           :        1.999984790525 electrons
N(Beta)            :        1.999984790525 electrons
N(Total)           :        3.999969581050 electrons
E(X)               :       -1.337152686580 Eh       
E(C)               :       -0.104873456336 Eh       
E(XC)              :       -1.442026142916 Eh       
DFET-embed. en.    :        0.000000000000 Eh       

---------------
SCF CONVERGENCE
---------------

  Last Energy change         ...   -6.3584e-11  Tolerance :   1.0000e-08
  Last MAX-Density change    ...    2.9558e-07  Tolerance :   1.0000e-07
  Last RMS-Density change    ...    5.5796e-08  Tolerance :   5.0000e-09
  Last Orbital Gradient      ...    3.5398e-07  Tolerance :   1.0000e-05
  Last Orbital Rotation      ...    1.7974e-07  Tolerance :   1.0000e-05

             **** THE GBW FILE WAS UPDATED (h4_scan1_1_orca.gbw) ****
             **** DENSITY FILE WAS UPDATED (h4_scan1_1_orca.scfp.tmp) ****
             **** ENERGY FILE WAS UPDATED (h4_scan1_1_orca.en.tmp) ****
----------------
ORBITAL ENERGIES
----------------

  NO   OCC          E(Eh)            E(eV) 
   0   2.0000      -0.658176       -17.9099 
   1   2.0000      -0.163730        -4.4553 
   2   0.0000      -0.098896        -2.6911 
   3   0.0000       0.190073         5.1721 
   4   0.0000       0.193651         5.2695 
   5   0.0000       0.361545         9.8381 
   6   0.0000       0.443350        12.0642 
   7   0.0000       0.772055        21.0087 
   8   0.0000       0.835948        22.7473 
   9   0.0000       1.215626        33.0789 
  10   0.0000       1.431830        38.9621 
  11   0.0000       1.438724        39.1497 
  12   0.0000       1.544232        42.0207 
  13   0.0000       1.977397        53.8077 
  14   0.0000       2.022930        55.0467 
  15   0.0000       2.204412        59.9851 
  16   0.0000       2.434120        66.2358 
  17   0.0000       2.950509        80.2874 
  18   0.0000       2.957184        80.4691 
  19   0.0000       3.808782       103.6422 

                    ********************************
                    * MULLIKEN POPULATION ANALYSIS *
                    ********************************

-----------------------
MULLIKEN ATOMIC CHARGES
-----------------------
   0 H :   -0.000000
   1 H :    0.000000
   2 H :   -0.000000
   3 H :    0.000000
Sum of atomic charges:    0.0000000

--------------------------------
MULLIKEN REDUCED ORBITAL CHARGES
--------------------------------
  0 H s       :     0.974066  s :     0.974066
      pz      :     0.000000  p :     0.025934
      px      :     0.010331
      py      :     0.015603
  1 H s       :     0.974066  s :     0.974066
      pz      :    -0.000000  p :     0.025934
      px      :     0.010331
      py      :     0.015603
  2 H s       :     0.974066  s :     0.974066
      pz      :     0.000000  p :     0.025934
      px      :     0.010331
      py      :     0.015603
  3 H s       :     0.974066  s :     0.974066
      pz      :     0.000000  p :     0.025934
      px      :     0.010331
      py      :     0.015603


                     *******************************
                     * LOEWDIN POPULATION ANALYSIS *
                     *******************************

----------------------
LOEWDIN ATOMIC CHARGES
----------------------
   0 H :   -0.000000
   1 H :    0.000000
   2 H :   -0.000000
   3 H :    0.000000

-------------------------------
LOEWDIN REDUCED ORBITAL CHARGES
-------------------------------
  0 H s       :     0.863144  s :     0.863144
      pz      :     0.000000  p :     0.136856
      px      :     0.025798
      py      :     0.111058
  1 H s       :     0.863144  s :     0.863144
      pz      :     0.000000  p :     0.136856
      px      :     0.025798
      py      :     0.111058
  2 H s       :     0.863144  s :     0.863144
      pz      :     0.000000  p :     0.136856
      px      :     0.025798
      py      :     0.111058
  3 H s       :     0.863144  s :     0.863144
      pz      :     0.000000  p :     0.136856
      px      :     0.025798
      py      :     0.111058


                      *****************************
                      * MAYER POPULATION ANALYSIS *
                      *****************************

  NA   - Mulliken gross atomic population
  ZA   - Total nuclear charge
  QA   - Mulliken gross atomic charge
  VA   - Mayer's total valence
  BVA  - Mayer's bonded valence
  FA   - Mayer's free valence

  ATOM       NA         ZA         QA         VA         BVA        FA
  0 H      1.0000     1.0000    -0.0000     0.9138     0.9138     0.0000
  1 H      1.0000     1.0000     0.0000     0.9138     0.9138     0.0000
  2 H      1.0000     1.0000    -0.0000     0.9138     0.9138     0.0000
  3 H      1.0000     1.0000     0.0000     0.9138     0.9138     0.0000

  Mayer bond orders larger than 0.1
B(  0-H ,  1-H ) :   1.0862 B(  2-H ,  3-H ) :   1.0862 

-------
TIMINGS
-------

Total SCF time: 0 days 0 hours 0 min 0 sec 

Total time                  ....       0.855 sec
Sum of individual times     ....       0.793 sec  ( 92.8%)

Fock matrix formation       ....       0.613 sec  ( 71.6%)
  Split-RI-J                ....       0.535 sec  ( 87.3% of F)
  XC integration            ....       0.072 sec  ( 11.8% of F)
    Basis function eval.    ....       0.025 sec  ( 34.0% of XC)
    Density eval.           ....       0.009 sec  ( 12.4% of XC)
    XC-Functional eval.     ....       0.024 sec  ( 32.9% of XC)
    XC-Potential eval.      ....       0.006 sec  (  8.9% of XC)
Diagonalization             ....       0.000 sec  (  0.0%)
Density matrix formation    ....       0.000 sec  (  0.0%)
Population analysis         ....       0.049 sec  (  5.7%)
Initial guess               ....       0.071 sec  (  8.4%)
Orbital Transformation      ....       0.000 sec  (  0.0%)
Orbital Orthonormalization  ....       0.000 sec  (  0.0%)
DIIS solution               ....       0.000 sec  (  0.0%)
SOSCF solution              ....       0.016 sec  (  1.9%)
Grid generation             ....       0.043 sec  (  5.1%)


-------------------------------------------------------------------------------
                          DFT DISPERSION CORRECTION                            
                                                                               
                              DFTD3 V3.1  Rev 1                                
                          USING Becke-Johnson damping                          
-------------------------------------------------------------------------------
The PBE functional is recognized
Active option DFTDOPT                   ...         4   

molecular C6(AA) [au] = 48.664929 


            DFT-D V3
 parameters
 s6 scaling factor         :     1.0000 
 a1 scaling factor         :     0.4289 
 s8 scaling factor         :     0.7875 
 a2 scaling factor         :     4.4407 
 ad hoc parameters k1-k3   :    16.0000     1.3333    -4.0000 

 Edisp/kcal,au: -0.333636409407  -0.000531683405 
 E6   /kcal   :  -0.262537493 
 E8   /kcal   :  -0.071098917 
 % E8         :  21.310299134 

-------------------------   ----------------
Dispersion correction           -0.000531683
-------------------------   ----------------


-------------------------   --------------------
FINAL SINGLE POINT ENERGY        -2.033435252601
-------------------------   --------------------

------------------------------------------------------------------------------
                         ORCA SCF GRADIENT CALCULATION
------------------------------------------------------------------------------

Gradient of the Kohn-Sham DFT energy:
Kohn-Sham wavefunction type      ... RKS
Hartree-Fock exchange scaling    ...    0.000
Number of operators              ...    1
Number of atoms                  ...    4
Basis set dimensions             ...   20
Integral neglect threshold       ... 2.5e-11
Integral primitive cutoff        ... 2.5e-12

Nuclear repulsion gradient       ... done
One Electron Gradient            ... done
Pre-screening matrix             ... done
RI-J gradient                    ... done
Exchange-correlation gradient    ... done
Dispersion correction            ... done

------------------
CARTESIAN GRADIENT
------------------

WARNING: THERE ARE 4 CONSTRAINED CARTESIAN COORDINATES
   1   H   :   -0.006581573   -0.217398287   -0.000000000
   2   H   :    0.006581573   -0.217398300   -0.000000000
   3   H   :   -0.006581573    0.217398287    0.000000000
   4   H   :    0.006581573    0.217398300    0.000000000

Difference to translation invariance:
           :    0.0000000000    0.0000000000    0.0000000000

Norm of the cartesian gradient     ...    0.4349957935
RMS gradient                       ...    0.1255724692
MAX gradient                       ...    0.2173983002

-------
TIMINGS
-------

Total SCF gradient time            ...        0.262 sec

One electron gradient       ....       0.001 sec  (  0.2%)
Prescreening matrices       ....       0.000 sec  (  0.1%)
RI-J Coulomb gradient       ....       0.057 sec  ( 21.6%)
XC gradient                 ....       0.064 sec  ( 24.4%)
------------------------------------------------------------------------------
                         ORCA GEOMETRY RELAXATION STEP
------------------------------------------------------------------------------

Reading the OPT-File                    .... done
Getting information on internals        .... done
Copying old internal coords+grads       .... done
Making the new internal coordinates     .... (new redundants).... done
Validating the new internal coordinates .... (new redundants).... done
Calculating the B-matrix                .... done
Calculating the G,G- and P matrices     .... done
Transforming gradient to internals      .... done
Projecting the internal gradient        .... done
Number of atoms                         ....   4
Number of internal coordinates          ....   7
Current Energy                          ....    -2.033435253 Eh
Current gradient norm                   ....     0.434995793 Eh/bohr
Maximum allowed component of the step   ....  0.300
Current trust radius                    ....  0.300
Evaluating the initial hessian          ....  (Almloef) done
Projecting the Hessian                  .... done
Forming the augmented Hessian           .... done
Diagonalizing the augmented Hessian     .... done
Last element of RFO vector              ....  0.999215923
Lowest eigenvalues of augmented Hessian:
 -0.000368803  0.183346260  0.234537635  0.234906438  0.426397884
Length of the computed step             ....  0.039623224
The final length of the internal step   ....  0.039623224
Converting the step to cartesian space:
 Initial RMS(Int)=    0.0149761708
Transforming coordinates:
 Iter   0:  RMS(Cart)=    0.0080880567 RMS(Int)=    0.0149761708
 Iter   1:  RMS(Cart)=    0.0000000000 RMS(Int)=    0.0000000000
Imposing constraints:
 Iter   0:  RMS(Cart)=    0.0000000145 RMS(Int)=    0.0000000245
CONVERGED
done
Storing new coordinates                 .... done

                                .--------------------.
          ----------------------|Geometry convergence|-------------------------
          Item                value                   Tolerance       Converged
          ---------------------------------------------------------------------
          RMS gradient        0.0035179989            0.0005000000      NO
          MAX gradient        0.0065815735            0.0020000000      NO
          RMS step            0.0149761708            0.0070000000      NO
          MAX step            0.0280178507            0.0100000000      NO
          ........................................................
          Max(Bonds)      0.0148      Max(Angles)    0.00
          Max(Dihed)        0.00      Max(Improp)    0.00
          ---------------------------------------------------------------------

The optimization has not yet converged - more geometry cycles are needed


    ---------------------------------------------------------------------------
                         Redundant Internal Coordinates
                            (Angstroem and degrees)

        Definition                    Value    dE/dq     Step     New-Value
    ----------------------------------------------------------------------------
     1. B(H   1,H   0)                0.7567  0.006582 -0.0148    0.7419   
     2. B(H   2,H   0)                0.9000 -0.217398 -0.0000    0.9000 C 
     3. B(H   3,H   1)                0.9000 -0.217398 -0.0000    0.9000 C 
     4. B(H   3,H   2)                0.7567  0.006582 -0.0148    0.7419   
     5. A(H   0,H   1,H   3)           90.00  0.000000    0.00     90.00   
     6. A(H   1,H   3,H   2)           90.00  0.000000    0.00     90.00   
     7. D(H   2,H   3,H   1,H   0)      0.00  0.000000   -0.00     -0.00   
    ----------------------------------------------------------------------------

         *************************************************************
         *                GEOMETRY OPTIMIZATION CYCLE   2            *
         *************************************************************
---------------------------------
CARTESIAN COORDINATES (ANGSTROEM)
---------------------------------
  H     -0.020944    0.100000   -0.000000
  H      0.720944    0.100000    0.000000
  H     -0.020944   -0.800000    0.000000
  H      0.720944   -0.800000   -0.000000

----------------------------
CARTESIAN COORDINATES (A.U.)
----------------------------
  NO LB      ZA    FRAG     MASS         X           Y           Z
   0 H     1.0000    0     1.008   -0.039579    0.188973   -0.000000
   1 H     1.0000    0     1.008    1.362387    0.188973    0.000000
   2 H     1.0000    0     1.008   -0.039579   -1.511781    0.000000
   3 H     1.0000    0     1.008    1.362387   -1.511781   -0.000000

--------------------------------
INTERNAL COORDINATES (ANGSTROEM)
--------------------------------
 H      0   0   0     0.000000000000     0.00000000     0.00000000
 H      1   0   0     0.741888118820     0.00000000     0.00000000
 H      1   2   0     0.900000012694    89.99999891     0.00000000
 H      3   1   2     0.741888118229    89.99999909     0.00000000

---------------------------
INTERNAL COORDINATES (A.U.)
---------------------------
 H      0   0   0     0.000000000000     0.00000000     0.00000000
 H      1   0   0     1.401965366581     0.00000000     0.00000000
 H      1   2   0     1.700753544516    89.99999891     0.00000000
 H      3   1   2     1.401965365463    89.99999909     0.00000000

 One Electron integrals                  ... done
 Pre-screening matrix                    ... done

Diagonalization of the overlap matrix:
Smallest eigenvalue                        ... 1.443e-02
Time for diagonalization                   ...    0.000 sec
Threshold for overlap eigenvalues          ... 1.000e-08
Number of eigenvalues below threshold      ... 0
Time for construction of square roots      ...    0.000 sec
Total time needed                          ...    0.001 sec

-------------------
DFT GRID GENERATION
-------------------

General Integration Accuracy     IntAcc      ...  4.340
Radial Grid Type                 RadialGrid  ... Gauss-Chebyshev
Angular Grid (max. acc.)         AngularGrid ... Lebedev-110
Angular grid pruning method      GridPruning ... 3 (G Style)
Weight generation scheme         WeightScheme... Becke
Basis function cutoff            BFCut       ...    1.0000e-11
Integration weight cutoff        WCut        ...    1.0000e-14
Grids for H and He will be reduced by one unit

# of grid points (after initial pruning)     ...   3176 (   0.0 sec)
# of grid points (after weights+screening)   ...   3036 (   0.0 sec)
nearest neighbour list constructed           ...    0.0 sec
Grid point re-assignment to atoms done       ...    0.0 sec
Grid point division into batches done        ...    0.0 sec
Reduced shell lists constructed in    0.0 sec

Total number of grid points                  ...     3036
Total number of batches                      ...       48
Average number of points per batch           ...       63
Average number of grid points per atom       ...      759
Average number of shells per batch           ...    11.76 (97.96%)
Average number of basis functions per batch  ...    19.59 (97.96%)
Average number of large shells per batch     ...    11.67 (99.31%)
Average number of large basis fcns per batch ...    19.35 (98.75%)
Maximum spatial batch extension              ...  15.26, 15.26, 21.59 au
Average spatial batch extension              ...   5.03,  4.92,  6.58 au

Time for grid setup =    0.005 sec

--------------
SCF ITERATIONS
--------------
ITER       Energy         Delta-E        Max-DP      RMS-DP      [F,P]     Damp
               ***  Starting incremental Fock matrix formation  ***
  0     -2.0333776521   0.000000000000 0.00258829  0.00044367  0.0040061 0.7000
                      *** Initiating the SOSCF procedure ***
                      *** Re-Reading the Fockian *** 
                      *** Removing any level shift *** 
ITER      Energy       Delta-E        Grad      Rot      Max-DP    RMS-DP
  1     -2.03339850  -0.0000208486  0.000817  0.000817  0.008023  0.001363
               *** Restarting incremental Fock matrix formation ***
  2     -2.03343017  -0.0000316674  0.000912  0.001582  0.002871  0.000485
  3     -2.03343291  -0.0000027401  0.000466  0.000590  0.001080  0.000182
                  ***Gradient check signals convergence***
              ***Rediagonalizing the Fockian in SOSCF/NRSCF***

               *****************************************************
               *                     SUCCESS                       *
               *           SCF CONVERGED AFTER   4 CYCLES          *
               *****************************************************

Setting up the final grid:

General Integration Accuracy     IntAcc      ...  4.670
Radial Grid Type                 RadialGrid  ... Gauss-Chebyshev
Angular Grid (max. acc.)         AngularGrid ... Lebedev-302
Angular grid pruning method      GridPruning ... 3 (G Style)
Weight generation scheme         WeightScheme... Becke
Basis function cutoff            BFCut       ...    1.0000e-11
Integration weight cutoff        WCut        ...    1.0000e-14
Grids for H and He will be reduced by one unit

# of grid points (after initial pruning)     ...  13576 (   0.0 sec)
# of grid points (after weights+screening)   ...  13264 (   0.0 sec)
nearest neighbour list constructed           ...    0.0 sec
Grid point re-assignment to atoms done       ...    0.0 sec
Grid point division into batches done        ...    0.0 sec
Reduced shell lists constructed in    0.0 sec

Total number of grid points                  ...    13264
Total number of batches                      ...      208
Average number of points per batch           ...       63
Average number of grid points per atom       ...     3316
Average number of shells per batch           ...    11.20 (93.34%)
Average number of basis functions per batch  ...    18.20 (90.98%)
Average number of large shells per batch     ...    10.79 (96.33%)
Average number of large basis fcns per batch ...    17.51 (96.21%)
Maximum spatial batch extension              ...  14.20, 14.21, 18.85 au
Average spatial batch extension              ...   2.82,  2.87,  3.33 au

Final grid set up in    0.0 sec
Final integration                            ... done (   0.0 sec)
Change in XC energy                          ...     0.000451681
Integrated number of electrons               ...     3.999956136
Previous integrated no of electrons          ...     4.002471646
Total Energy       :           -2.03298215 Eh             -55.32026 eV
  Last Energy change         ...   -9.2692e-07  Tolerance :   1.0000e-08
  Last MAX-Density change    ...    1.6848e-06  Tolerance :   1.0000e-07
             **** THE GBW FILE WAS UPDATED (h4_scan1_1_orca.gbw) ****
             **** DENSITY FILE WAS UPDATED (h4_scan1_1_orca.scfp.tmp) ****
             **** ENERGY FILE WAS UPDATED (h4_scan1_1_orca.en.tmp) ****
Total SCF time: 0 days 0 hours 0 min 0 sec 


-------------------------------------------------------------------------------
                          DFT DISPERSION CORRECTION                            
                                                                               
                              DFTD3 V3.1  Rev 1                                
                          USING Becke-Johnson damping                          
-------------------------------------------------------------------------------
-------------------------   ----------------
Dispersion correction           -0.000531150
-------------------------   ----------------


-------------------------   --------------------
FINAL SINGLE POINT ENERGY        -2.033513304857
-------------------------   --------------------

------------------------------------------------------------------------------
                         ORCA SCF GRADIENT CALCULATION
------------------------------------------------------------------------------

Gradient of the Kohn-Sham DFT energy:
Kohn-Sham wavefunction type      ... RKS
Hartree-Fock exchange scaling    ...    0.000
Number of operators              ...    1
Number of atoms                  ...    4
Basis set dimensions             ...   20
Integral neglect threshold       ... 2.5e-11
Integral primitive cutoff        ... 2.5e-12

Nuclear repulsion gradient       ... done
One Electron Gradient            ... done
Pre-screening matrix             ... done
RI-J gradient                    ... done
Exchange-correlation gradient    ... done
Dispersion correction            ... done

------------------
CARTESIAN GRADIENT
------------------

WARNING: THERE ARE 4 CONSTRAINED CARTESIAN COORDINATES
   1   H   :    0.004143523   -0.217822714   -0.000000000
   2   H   :   -0.004143522   -0.217822718   -0.000000000
   3   H   :    0.004143522    0.217822714    0.000000000
   4   H   :   -0.004143523    0.217822718    0.000000000

Difference to translation invariance:
           :    0.0000000000   -0.0000000000    0.0000000000

Norm of the cartesian gradient     ...    0.4357242447
RMS gradient                       ...    0.1257827550
MAX gradient                       ...    0.2178227183

-------
TIMINGS
-------

Total SCF gradient time            ...        0.262 sec

One electron gradient       ....       0.001 sec  (  0.2%)
Prescreening matrices       ....       0.000 sec  (  0.1%)
RI-J Coulomb gradient       ....       0.055 sec  ( 21.0%)
XC gradient                 ....       0.064 sec  ( 24.4%)
------------------------------------------------------------------------------
                         ORCA GEOMETRY RELAXATION STEP
------------------------------------------------------------------------------

Reading the OPT-File                    .... done
Getting information on internals        .... done
Copying old internal coords+grads       .... done
Making the new internal coordinates     .... (new redundants).... done
Validating the new internal coordinates .... (new redundants).... done
Calculating the B-matrix                .... done
Calculating the G,G- and P matrices     .... done
Transforming gradient to internals      .... done
Projecting the internal gradient        .... done
Number of atoms                         ....   4
Number of internal coordinates          ....   7
Current Energy                          ....    -2.033513305 Eh
Current gradient norm                   ....     0.435724245 Eh/bohr
Maximum allowed component of the step   ....  0.300
Current trust radius                    ....  0.300
Updating the Hessian (BFGS)             .... done
Forming the augmented Hessian           .... done
Diagonalizing the augmented Hessian     .... done
Last element of RFO vector              ....  0.999882908
Lowest eigenvalues of augmented Hessian:
 -0.000089681  0.183346260  0.234537635  0.382884782  0.426397884
Length of the computed step             ....  0.015304410
The final length of the internal step   ....  0.015304410
Converting the step to cartesian space:
 Initial RMS(Int)=    0.0057845231
Transforming coordinates:
 Iter   0:  RMS(Cart)=    0.0031239995 RMS(Int)=    0.0057845231
 Iter   1:  RMS(Cart)=    0.0000000000 RMS(Int)=    0.0000000000
Imposing constraints:
 Iter   0:  RMS(Cart)=    0.0000000084 RMS(Int)=    0.0000000148
CONVERGED
done
Storing new coordinates                 .... done

                                .--------------------.
          ----------------------|Geometry convergence|-------------------------
          Item                value                   Tolerance       Converged
          ---------------------------------------------------------------------
          Energy change      -0.0000780523            0.0000300000      NO
          RMS gradient        0.0022148059            0.0005000000      NO
          MAX gradient        0.0041435224            0.0020000000      NO
          RMS step            0.0057845231            0.0070000000      YES
          MAX step            0.0108218519            0.0100000000      NO
          ........................................................
          Max(Bonds)      0.0057      Max(Angles)    0.00
          Max(Dihed)        0.00      Max(Improp)    0.00
          ---------------------------------------------------------------------

The optimization has not yet converged - more geometry cycles are needed


    ---------------------------------------------------------------------------
                         Redundant Internal Coordinates
                            (Angstroem and degrees)

        Definition                    Value    dE/dq     Step     New-Value
    ----------------------------------------------------------------------------
     1. B(H   1,H   0)                0.7419 -0.004144  0.0057    0.7476   
     2. B(H   2,H   0)                0.9000 -0.217823  0.0000    0.9000 C 
     3. B(H   3,H   1)                0.9000 -0.217823 -0.0000    0.9000 C 
     4. B(H   3,H   2)                0.7419 -0.004144  0.0057    0.7476   
     5. A(H   0,H   1,H   3)           90.00  0.000000    0.00     90.00   
     6. A(H   1,H   3,H   2)           90.00  0.000000    0.00     90.00   
     7. D(H   2,H   3,H   1,H   0)     -0.00  0.000000   -0.00     -0.00   
    ----------------------------------------------------------------------------

         *************************************************************
         *                GEOMETRY OPTIMIZATION CYCLE   3            *
         *************************************************************
---------------------------------
CARTESIAN COORDINATES (ANGSTROEM)
---------------------------------
  H     -0.023807    0.100000   -0.000000
  H      0.723807    0.100000    0.000000
  H     -0.023807   -0.800000    0.000000
  H      0.723807   -0.800000   -0.000000

----------------------------
CARTESIAN COORDINATES (A.U.)
----------------------------
  NO LB      ZA    FRAG     MASS         X           Y           Z
   0 H     1.0000    0     1.008   -0.044989    0.188973   -0.000000
   1 H     1.0000    0     1.008    1.367798    0.188973    0.000000
   2 H     1.0000    0     1.008   -0.044989   -1.511781    0.000000
   3 H     1.0000    0     1.008    1.367798   -1.511781   -0.000000

--------------------------------
INTERNAL COORDINATES (ANGSTROEM)
--------------------------------
 H      0   0   0     0.000000000000     0.00000000     0.00000000
 H      1   0   0     0.747614796125     0.00000000     0.00000000
 H      1   2   0     0.900000007537    89.99999926     0.00000000
 H      3   1   2     0.747614795616    89.99999954     0.00000000

---------------------------
INTERNAL COORDINATES (A.U.)
---------------------------
 H      0   0   0     0.000000000000     0.00000000     0.00000000
 H      1   0   0     1.412787218344     0.00000000     0.00000000
 H      1   2   0     1.700753534772    89.99999926     0.00000000
 H      3   1   2     1.412787217381    89.99999954     0.00000000

 One Electron integrals                  ... done
 Pre-screening matrix                    ... done

Diagonalization of the overlap matrix:
Smallest eigenvalue                        ... 1.462e-02
Time for diagonalization                   ...    0.000 sec
Threshold for overlap eigenvalues          ... 1.000e-08
Number of eigenvalues below threshold      ... 0
Time for construction of square roots      ...    0.000 sec
Total time needed                          ...    0.001 sec

-------------------
DFT GRID GENERATION
-------------------

General Integration Accuracy     IntAcc      ...  4.340
Radial Grid Type                 RadialGrid  ... Gauss-Chebyshev
Angular Grid (max. acc.)         AngularGrid ... Lebedev-110
Angular grid pruning method      GridPruning ... 3 (G Style)
Weight generation scheme         WeightScheme... Becke
Basis function cutoff            BFCut       ...    1.0000e-11
Integration weight cutoff        WCut        ...    1.0000e-14
Grids for H and He will be reduced by one unit

# of grid points (after initial pruning)     ...   3176 (   0.0 sec)
# of grid points (after weights+screening)   ...   3036 (   0.0 sec)
nearest neighbour list constructed           ...    0.0 sec
Grid point re-assignment to atoms done       ...    0.0 sec
Grid point division into batches done        ...    0.0 sec
Reduced shell lists constructed in    0.0 sec

Total number of grid points                  ...     3036
Total number of batches                      ...       48
Average number of points per batch           ...       63
Average number of grid points per atom       ...      759
Average number of shells per batch           ...    11.76 (97.96%)
Average number of basis functions per batch  ...    19.59 (97.96%)
Average number of large shells per batch     ...    11.67 (99.31%)
Average number of large basis fcns per batch ...    19.35 (98.75%)
Maximum spatial batch extension              ...  15.26, 15.26, 21.59 au
Average spatial batch extension              ...   5.03,  4.93,  6.59 au

Time for grid setup =    0.005 sec

--------------
SCF ITERATIONS
--------------
ITER       Energy         Delta-E        Max-DP      RMS-DP      [F,P]     Damp
               ***  Starting incremental Fock matrix formation  ***
                      *** Initiating the SOSCF procedure ***
                      *** Re-Reading the Fockian *** 
                      *** Removing any level shift *** 
ITER      Energy       Delta-E        Grad      Rot      Max-DP    RMS-DP
  0     -2.03350586  -2.0335058644  0.001444  0.001444  0.003345  0.000574
               *** Restarting incremental Fock matrix formation ***
  1     -2.03351420  -0.0000083312  0.000230  0.000222  0.000092  0.000022
  2     -2.03351435  -0.0000001562  0.000064  0.000096  0.000178  0.000030
  3     -2.03351437  -0.0000000170  0.000009  0.000015  0.000028  0.000005
                 **** Energy Check signals convergence ****
              ***Rediagonalizing the Fockian in SOSCF/NRSCF***

               *****************************************************
               *                     SUCCESS                       *
               *           SCF CONVERGED AFTER   4 CYCLES          *
               *****************************************************

Setting up the final grid:

General Integration Accuracy     IntAcc      ...  4.670
Radial Grid Type                 RadialGrid  ... Gauss-Chebyshev
Angular Grid (max. acc.)         AngularGrid ... Lebedev-302
Angular grid pruning method      GridPruning ... 3 (G Style)
Weight generation scheme         WeightScheme... Becke
Basis function cutoff            BFCut       ...    1.0000e-11
Integration weight cutoff        WCut        ...    1.0000e-14
Grids for H and He will be reduced by one unit

# of grid points (after initial pruning)     ...  13576 (   0.0 sec)
# of grid points (after weights+screening)   ...  13264 (   0.0 sec)
nearest neighbour list constructed           ...    0.0 sec
Grid point re-assignment to atoms done       ...    0.0 sec
Grid point division into batches done        ...    0.0 sec
Reduced shell lists constructed in    0.0 sec

Total number of grid points                  ...    13264
Total number of batches                      ...      208
Average number of points per batch           ...       63
Average number of grid points per atom       ...     3316
Average number of shells per batch           ...    11.20 (93.34%)
Average number of basis functions per batch  ...    18.20 (90.98%)
Average number of large shells per batch     ...    10.78 (96.24%)
Average number of large basis fcns per batch ...    17.48 (96.06%)
Maximum spatial batch extension              ...  14.16, 14.23, 18.85 au
Average spatial batch extension              ...   2.83,  2.87,  3.34 au

Final grid set up in    0.0 sec
Final integration                            ... done (   0.0 sec)
Change in XC energy                          ...     0.000491174
Integrated number of electrons               ...     3.999961158
Previous integrated no of electrons          ...     4.002437118
Total Energy       :           -2.03302320 Eh             -55.32137 eV
  Last Energy change         ...   -3.0775e-10  Tolerance :   1.0000e-08
  Last MAX-Density change    ...    1.2130e-06  Tolerance :   1.0000e-07
             **** THE GBW FILE WAS UPDATED (h4_scan1_1_orca.gbw) ****
             **** DENSITY FILE WAS UPDATED (h4_scan1_1_orca.scfp.tmp) ****
             **** ENERGY FILE WAS UPDATED (h4_scan1_1_orca.en.tmp) ****
Total SCF time: 0 days 0 hours 0 min 0 sec 


-------------------------------------------------------------------------------
                          DFT DISPERSION CORRECTION                            
                                                                               
                              DFTD3 V3.1  Rev 1                                
                          USING Becke-Johnson damping                          
-------------------------------------------------------------------------------
-------------------------   ----------------
Dispersion correction           -0.000531326
-------------------------   ----------------


-------------------------   --------------------
FINAL SINGLE POINT ENERGY        -2.033554520765
-------------------------   --------------------

------------------------------------------------------------------------------
                         ORCA SCF GRADIENT CALCULATION
------------------------------------------------------------------------------

Gradient of the Kohn-Sham DFT energy:
Kohn-Sham wavefunction type      ... RKS
Hartree-Fock exchange scaling    ...    0.000
Number of operators              ...    1
Number of atoms                  ...    4
Basis set dimensions             ...   20
Integral neglect threshold       ... 2.5e-11
Integral primitive cutoff        ... 2.5e-12

Nuclear repulsion gradient       ... done
One Electron Gradient            ... done
Pre-screening matrix             ... done
RI-J gradient                    ... done
Exchange-correlation gradient    ... done
Dispersion correction            ... done

------------------
CARTESIAN GRADIENT
------------------

WARNING: THERE ARE 4 CONSTRAINED CARTESIAN COORDINATES
   1   H   :   -0.000117129   -0.217656363   -0.000000000
   2   H   :    0.000117130   -0.217656365   -0.000000000
   3   H   :   -0.000117130    0.217656363    0.000000000
   4   H   :    0.000117129    0.217656366    0.000000000

Difference to translation invariance:
           :   -0.0000000000    0.0000000000    0.0000000000

Norm of the cartesian gradient     ...    0.4353127914
RMS gradient                       ...    0.1256639787
MAX gradient                       ...    0.2176563656

-------
TIMINGS
-------

Total SCF gradient time            ...        0.256 sec

One electron gradient       ....       0.000 sec  (  0.2%)
Prescreening matrices       ....       0.000 sec  (  0.1%)
RI-J Coulomb gradient       ....       0.055 sec  ( 21.4%)
XC gradient                 ....       0.061 sec  ( 24.0%)
------------------------------------------------------------------------------
                         ORCA GEOMETRY RELAXATION STEP
------------------------------------------------------------------------------

Reading the OPT-File                    .... done
Getting information on internals        .... done
Copying old internal coords+grads       .... done
Making the new internal coordinates     .... (new redundants).... done
Validating the new internal coordinates .... (new redundants).... done
Calculating the B-matrix                .... done
Calculating the G,G- and P matrices     .... done
Transforming gradient to internals      .... done
Projecting the internal gradient        .... done
Number of atoms                         ....   4
Number of internal coordinates          ....   7
Current Energy                          ....    -2.033554521 Eh
Current gradient norm                   ....     0.435312791 Eh/bohr
Maximum allowed component of the step   ....  0.300
Current trust radius                    ....  0.300
Updating the Hessian (BFGS)             .... done
Forming the augmented Hessian           .... done
Diagonalizing the augmented Hessian     .... done
Last element of RFO vector              ....  0.999999911
Lowest eigenvalues of augmented Hessian:
 -0.000000070  0.183346260  0.234537635  0.393708264  0.426397884
Length of the computed step             ....  0.000420733
The final length of the internal step   ....  0.000420733
Converting the step to cartesian space:
 Initial RMS(Int)=    0.0001590220
Transforming coordinates:
 Iter   0:  RMS(Cart)=    0.0000858817 RMS(Int)=    0.0001590220
 Iter   1:  RMS(Cart)=    0.0000000000 RMS(Int)=    0.0000000000
Imposing constraints:
 Iter   0:  RMS(Cart)=    0.0000000029 RMS(Int)=    0.0000000050
CONVERGED
done
Storing new coordinates                 .... done

                                .--------------------.
          ----------------------|Geometry convergence|-------------------------
          Item                value                   Tolerance       Converged
          ---------------------------------------------------------------------
          Energy change      -0.0000412159            0.0000300000      NO
          RMS gradient        0.0000626083            0.0005000000      YES
          MAX gradient        0.0001171294            0.0020000000      YES
          RMS step            0.0001590220            0.0070000000      YES
          MAX step            0.0002975033            0.0100000000      YES
          ........................................................
          Max(Bonds)      0.0002      Max(Angles)    0.00
          Max(Dihed)        0.00      Max(Improp)    0.00
          ---------------------------------------------------------------------

       Everything but the energy has converged. However, the energy
       appears to be close enough to convergence to make sure that the
       final evaluation at the new geometry represents the equilibrium energy.
       Convergence will therefore be signaled now


                    ***********************HURRAY********************
                    ***        THE OPTIMIZATION HAS CONVERGED     ***
                    *************************************************


    ---------------------------------------------------------------------------
                         Redundant Internal Coordinates

                          --- Optimized Parameters ---  
                            (Angstroem and degrees)

        Definition                    OldVal   dE/dq     Step     FinalVal
    ----------------------------------------------------------------------------
     1. B(H   1,H   0)                0.7476  0.000117 -0.0002    0.7475   
     2. B(H   2,H   0)                0.9000 -0.217656  0.0000    0.9000 C 
     3. B(H   3,H   1)                0.9000 -0.217656 -0.0000    0.9000 C 
     4. B(H   3,H   2)                0.7476  0.000117 -0.0002    0.7475   
     5. A(H   0,H   1,H   3)           90.00  0.000000    0.00     90.00   
     6. A(H   1,H   3,H   2)           90.00  0.000000   -0.00     90.00   
     7. D(H   2,H   3,H   1,H   0)     -0.00 -0.000000    0.00     -0.00   
    ----------------------------------------------------------------------------
                 *******************************************************
                 *** FINAL ENERGY EVALUATION AT THE STATIONARY POINT ***
                 ***               (AFTER    3 CYCLES)               ***
                 *******************************************************
---------------------------------
CARTESIAN COORDINATES (ANGSTROEM)
---------------------------------
  H     -0.023729    0.100000   -0.000000
  H      0.723729    0.100000    0.000000
  H     -0.023729   -0.800000    0.000000
  H      0.723729   -0.800000   -0.000000

----------------------------
CARTESIAN COORDINATES (A.U.)
----------------------------
  NO LB      ZA    FRAG     MASS         X           Y           Z
   0 H     1.0000    0     1.008   -0.044841    0.188973   -0.000000
   1 H     1.0000    0     1.008    1.367649    0.188973    0.000000
   2 H     1.0000    0     1.008   -0.044841   -1.511781    0.000000
   3 H     1.0000    0     1.008    1.367649   -1.511781   -0.000000

--------------------------------
INTERNAL COORDINATES (ANGSTROEM)
--------------------------------
 H      0   0   0     0.000000000000     0.00000000     0.00000000
 H      1   0   0     0.747457364510     0.00000000     0.00000000
 H      1   2   0     0.900000002377    89.99999950     0.00000000
 H      3   1   2     0.747457363668    90.00000009     0.00000000

---------------------------
INTERNAL COORDINATES (A.U.)
---------------------------
 H      0   0   0     0.000000000000     0.00000000     0.00000000
 H      1   0   0     1.412489715707     0.00000000     0.00000000
 H      1   2   0     1.700753525020    89.99999950     0.00000000
 H      3   1   2     1.412489714115    90.00000009     0.00000000

---------------------
BASIS SET INFORMATION
---------------------
There are 1 groups of distinct atoms

 Group   1 Type H   : 4s1p contracted to 2s1p pattern {31/1}

Atom   0H    basis set group =>   1
Atom   1H    basis set group =>   1
Atom   2H    basis set group =>   1
Atom   3H    basis set group =>   1
-------------------------------
AUXILIARY BASIS SET INFORMATION
-------------------------------
There are 1 groups of distinct atoms

 Group   1 Type H   : 5s2p1d contracted to 3s1p1d pattern {311/2/1}

Atom   0H    basis set group =>   1
Atom   1H    basis set group =>   1
Atom   2H    basis set group =>   1
Atom   3H    basis set group =>   1
------------------------------------------------------------------------------
                           ORCA GTO INTEGRAL CALCULATION
                           -- RI-GTO INTEGRALS CHOSEN --
------------------------------------------------------------------------------

                         BASIS SET STATISTICS AND STARTUP INFO

Gaussian basis set:
 # of primitive gaussian shells          ...   20
 # of primitive gaussian functions       ...   28
 # of contracted shells                  ...   12
 # of contracted basis functions         ...   20
 Highest angular momentum                ...    1
 Maximum contraction depth               ...    3
Auxiliary gaussian basis set:
 # of primitive gaussian shells          ...   32
 # of primitive gaussian functions       ...   64
 # of contracted shells                  ...   20
 # of contracted aux-basis functions     ...   44
 Highest angular momentum                ...    2
 Maximum contraction depth               ...    3
Ratio of auxiliary to basis functions    ...  2.20
Integral package used                  ... LIBINT
 One Electron integrals                  ... done
 Ordering auxiliary basis shells         ... done
 Integral threshhold             Thresh  ...  2.500e-11
 Primitive cut-off               TCut    ...  2.500e-12
 Pre-screening matrix                    ... done
 Shell pair data                         ... 
 Ordering of the shell pairs             ... done (   0.000 sec) 78 of 78 pairs
 Determination of significant pairs      ... done (   0.000 sec)
 Creation of shell pair data             ... done (   0.000 sec)
 Storage of shell pair data              ... done (   0.000 sec)
 Shell pair data done in (   0.000 sec)
 Computing two index integrals           ... done
 Cholesky decomposition of the V-matrix  ... done


Timings:
 Total evaluation time                   ...   0.097 sec (  0.002 min)
 One electron matrix time                ...   0.003 sec (  0.000 min) =  3.3%
 Schwartz matrix evaluation time         ...   0.084 sec (  0.001 min) = 87.0%
 Two index repulsion integral time       ...   0.000 sec (  0.000 min) =  0.1%
 Cholesky decomposition of V             ...   0.000 sec (  0.000 min) =  0.3%
 Three index repulsion integral time     ...   0.000 sec (  0.000 min) =  0.0%

-------------------------------------------------------------------------------
                                 ORCA SCF
-------------------------------------------------------------------------------

------------
SCF SETTINGS
------------
Hamiltonian:
 Density Functional     Method          .... DFT(GTOs)
 Exchange Functional    Exchange        .... PBE
   PBE kappa parameter   XKappa         ....  0.804000
   PBE mue parameter    XMuePBE         ....  0.219520
 Correlation Functional Correlation     .... PBE
   PBE beta parameter  CBetaPBE         ....  0.066725
 LDA part of GGA corr.  LDAOpt          .... PW91-LDA
 Gradients option       PostSCFGGA      .... off
   Density functional embedding theory  .... OFF
   NL short-range parameter             ....  6.400000
 RI-approximation to the Coulomb term is turned on
   Number of auxiliary basis functions  .... 44


General Settings:
 Integral files         IntName         .... h4_scan1_1_orca
 Hartree-Fock type      HFTyp           .... RHF
 Total Charge           Charge          ....    0
 Multiplicity           Mult            ....    1
 Number of Electrons    NEL             ....    4
 Basis Dimension        Dim             ....   20
 Nuclear Repulsion      ENuc            ....      3.4965338531 Eh

Convergence Acceleration:
 DIIS                   CNVDIIS         .... on
   Start iteration      DIISMaxIt       ....    12
   Startup error        DIISStart       ....  0.200000
   # of expansion vecs  DIISMaxEq       ....     5
   Bias factor          DIISBfac        ....   1.050
   Max. coefficient     DIISMaxC        ....  10.000
 Newton-Raphson         CNVNR           .... off
 SOSCF                  CNVSOSCF        .... on
   Start iteration      SOSCFMaxIt      ....   150
   Startup grad/error   SOSCFStart      ....  0.003300
 Level Shifting         CNVShift        .... on
   Level shift para.    LevelShift      ....    0.2500
   Turn off err/grad.   ShiftErr        ....    0.0010
 Zerner damping         CNVZerner       .... off
 Static damping         CNVDamp         .... on
   Fraction old density DampFac         ....    0.7000
   Max. Damping (<1)    DampMax         ....    0.9800
   Min. Damping (>=0)   DampMin         ....    0.0000
   Turn off err/grad.   DampErr         ....    0.1000
 Fernandez-Rico         CNVRico         .... off

SCF Procedure:
 Maximum # iterations   MaxIter         ....   250
 SCF integral mode      SCFMode         .... Direct
   Integral package                     .... LIBINT
 Reset frequency        DirectResetFreq ....    20
 Integral Threshold     Thresh          ....  2.500e-11 Eh
 Primitive CutOff       TCut            ....  2.500e-12 Eh

Convergence Tolerance:
 Convergence Check Mode ConvCheckMode   .... Total+1el-Energy
 Convergence forced     ConvForced      .... 0
 Energy Change          TolE            ....  1.000e-08 Eh
 1-El. energy change                    ....  1.000e-05 Eh
 Orbital Gradient       TolG            ....  1.000e-05
 Orbital Rotation angle TolX            ....  1.000e-05
 DIIS Error             TolErr          ....  5.000e-07


Diagonalization of the overlap matrix:
Smallest eigenvalue                        ... 1.462e-02
Time for diagonalization                   ...    0.001 sec
Threshold for overlap eigenvalues          ... 1.000e-08
Number of eigenvalues below threshold      ... 0
Time for construction of square roots      ...    0.000 sec
Total time needed                          ...    0.001 sec

---------------------
INITIAL GUESS: MOREAD
---------------------
Guess MOs are being read from file: h4_scan1_1_orca.gbw
Input Geometry matches current geometry (good)
Input basis set matches current basis set (good)
MOs were renormalized
MOs were reorthogonalized (Cholesky)
                      ------------------
                      INITIAL GUESS DONE (   0.0 sec)
                      ------------------
-------------------
DFT GRID GENERATION
-------------------

General Integration Accuracy     IntAcc      ...  4.340
Radial Grid Type                 RadialGrid  ... Gauss-Chebyshev
Angular Grid (max. acc.)         AngularGrid ... Lebedev-110
Angular grid pruning method      GridPruning ... 3 (G Style)
Weight generation scheme         WeightScheme... Becke
Basis function cutoff            BFCut       ...    1.0000e-11
Integration weight cutoff        WCut        ...    1.0000e-14
Grids for H and He will be reduced by one unit

# of grid points (after initial pruning)     ...   3176 (   0.0 sec)
# of grid points (after weights+screening)   ...   3036 (   0.0 sec)
nearest neighbour list constructed           ...    0.0 sec
Grid point re-assignment to atoms done       ...    0.0 sec
Grid point division into batches done        ...    0.0 sec
Reduced shell lists constructed in    0.0 sec

Total number of grid points                  ...     3036
Total number of batches                      ...       48
Average number of points per batch           ...       63
Average number of grid points per atom       ...      759
Average number of shells per batch           ...    11.76 (97.96%)
Average number of basis functions per batch  ...    19.59 (97.96%)
Average number of large shells per batch     ...    11.67 (99.31%)
Average number of large basis fcns per batch ...    19.35 (98.75%)
Maximum spatial batch extension              ...  15.26, 15.26, 21.59 au
Average spatial batch extension              ...   5.03,  4.93,  6.59 au

Time for grid setup =    0.007 sec

--------------
SCF ITERATIONS
--------------
ITER       Energy         Delta-E        Max-DP      RMS-DP      [F,P]     Damp
               ***  Starting incremental Fock matrix formation  ***
                      *** Initiating the SOSCF procedure ***
                      *** Re-Reading the Fockian *** 
                      *** Removing any level shift *** 
ITER      Energy       Delta-E        Grad      Rot      Max-DP    RMS-DP
  0     -2.03351341  -2.0335134123  0.000039  0.000039  0.000091  0.000016
               *** Restarting incremental Fock matrix formation ***
  1     -2.03351342  -0.0000000062  0.000006  0.000006  0.000003  0.000001
                 **** Energy Check signals convergence ****
              ***Rediagonalizing the Fockian in SOSCF/NRSCF***

               *****************************************************
               *                     SUCCESS                       *
               *           SCF CONVERGED AFTER   2 CYCLES          *
               *****************************************************

Setting up the final grid:

General Integration Accuracy     IntAcc      ...  4.670
Radial Grid Type                 RadialGrid  ... Gauss-Chebyshev
Angular Grid (max. acc.)         AngularGrid ... Lebedev-302
Angular grid pruning method      GridPruning ... 3 (G Style)
Weight generation scheme         WeightScheme... Becke
Basis function cutoff            BFCut       ...    1.0000e-11
Integration weight cutoff        WCut        ...    1.0000e-14
Grids for H and He will be reduced by one unit

# of grid points (after initial pruning)     ...  13576 (   0.0 sec)
# of grid points (after weights+screening)   ...  13264 (   0.0 sec)
nearest neighbour list constructed           ...    0.0 sec
Grid point re-assignment to atoms done       ...    0.0 sec
Grid point division into batches done        ...    0.0 sec
Reduced shell lists constructed in    0.0 sec

Total number of grid points                  ...    13264
Total number of batches                      ...      208
Average number of points per batch           ...       63
Average number of grid points per atom       ...     3316
Average number of shells per batch           ...    11.20 (93.34%)
Average number of basis functions per batch  ...    18.20 (90.98%)
Average number of large shells per batch     ...    10.78 (96.24%)
Average number of large basis fcns per batch ...    17.48 (96.06%)
Maximum spatial batch extension              ...  14.16, 14.23, 18.85 au
Average spatial batch extension              ...   2.84,  2.87,  3.32 au

Final grid set up in    0.0 sec
Final integration                            ... done (   0.0 sec)
Change in XC energy                          ...     0.000490128
Integrated number of electrons               ...     3.999961017
Previous integrated no of electrons          ...     4.002438220

----------------
TOTAL SCF ENERGY
----------------

Total Energy       :           -2.03302329 Eh             -55.32138 eV

Components:
Nuclear Repulsion  :            3.49653385 Eh              95.14552 eV
Electronic Energy  :           -5.52955714 Eh            -150.46690 eV
One Electron Energy:           -8.38107748 Eh            -228.06071 eV
Two Electron Energy:            2.85152034 Eh              77.59381 eV

Virial components:
Potential Energy   :           -4.60842924 Eh            -125.40173 eV
Kinetic Energy     :            2.57540595 Eh              70.08036 eV
Virial Ratio       :            1.78939916


DFT components:
N(Alpha)           :        1.999980508353 electrons
N(Beta)            :        1.999980508353 electrons
N(Total)           :        3.999961016705 electrons
E(X)               :       -1.342749041882 Eh       
E(C)               :       -0.104990557559 Eh       
E(XC)              :       -1.447739599440 Eh       
DFET-embed. en.    :        0.000000000000 Eh       

---------------
SCF CONVERGENCE
---------------

  Last Energy change         ...   -1.1464e-10  Tolerance :   1.0000e-08
  Last MAX-Density change    ...    4.8998e-06  Tolerance :   1.0000e-07
  Last RMS-Density change    ...    8.2346e-07  Tolerance :   5.0000e-09
  Last Orbital Gradient      ...    1.7889e-06  Tolerance :   1.0000e-05
  Last Orbital Rotation      ...    2.6399e-06  Tolerance :   1.0000e-05

             **** THE GBW FILE WAS UPDATED (h4_scan1_1_orca.gbw) ****
             **** DENSITY FILE WAS UPDATED (h4_scan1_1_orca.scfp.tmp) ****
             **** ENERGY FILE WAS UPDATED (h4_scan1_1_orca.en.tmp) ****
----------------
ORBITAL ENERGIES
----------------

  NO   OCC          E(Eh)            E(eV) 
   0   2.0000      -0.659983       -17.9590 
   1   2.0000      -0.164846        -4.4857 
   2   0.0000      -0.094499        -2.5714 
   3   0.0000       0.189273         5.1504 
   4   0.0000       0.195515         5.3202 
   5   0.0000       0.359715         9.7883 
   6   0.0000       0.448457        12.2031 
   7   0.0000       0.772732        21.0271 
   8   0.0000       0.843542        22.9539 
   9   0.0000       1.216347        33.0985 
  10   0.0000       1.439151        39.1613 
  11   0.0000       1.442170        39.2434 
  12   0.0000       1.551720        42.2245 
  13   0.0000       1.984991        54.0143 
  14   0.0000       2.032786        55.3149 
  15   0.0000       2.211826        60.1868 
  16   0.0000       2.432057        66.1796 
  17   0.0000       2.965410        80.6929 
  18   0.0000       2.998559        81.5949 
  19   0.0000       3.854247       104.8794 

                    ********************************
                    * MULLIKEN POPULATION ANALYSIS *
                    ********************************

-----------------------
MULLIKEN ATOMIC CHARGES
-----------------------
   0 H :   -0.000000
   1 H :    0.000000
   2 H :    0.000000
   3 H :   -0.000000
Sum of atomic charges:   -0.0000000

--------------------------------
MULLIKEN REDUCED ORBITAL CHARGES
--------------------------------
  0 H s       :     0.974065  s :     0.974065
      pz      :     0.000000  p :     0.025935
      px      :     0.010506
      py      :     0.015430
  1 H s       :     0.974065  s :     0.974065
      pz      :     0.000000  p :     0.025935
      px      :     0.010506
      py      :     0.015430
  2 H s       :     0.974065  s :     0.974065
      pz      :     0.000000  p :     0.025935
      px      :     0.010506
      py      :     0.015430
  3 H s       :     0.974065  s :     0.974065
      pz      :     0.000000  p :     0.025935
      px      :     0.010506
      py      :     0.015430


                     *******************************
                     * LOEWDIN POPULATION ANALYSIS *
                     *******************************

----------------------
LOEWDIN ATOMIC CHARGES
----------------------
   0 H :   -0.000000
   1 H :    0.000000
   2 H :    0.000000
   3 H :   -0.000000

-------------------------------
LOEWDIN REDUCED ORBITAL CHARGES
-------------------------------
  0 H s       :     0.862694  s :     0.862694
      pz      :     0.000000  p :     0.137306
      px      :     0.026147
      py      :     0.111159
  1 H s       :     0.862694  s :     0.862694
      pz      :     0.000000  p :     0.137306
      px      :     0.026147
      py      :     0.111159
  2 H s       :     0.862694  s :     0.862694
      pz      :     0.000000  p :     0.137306
      px      :     0.026147
      py      :     0.111159
  3 H s       :     0.862694  s :     0.862694
      pz      :     0.000000  p :     0.137306
      px      :     0.026147
      py      :     0.111159


                      *****************************
                      * MAYER POPULATION ANALYSIS *
                      *****************************

  NA   - Mulliken gross atomic population
  ZA   - Total nuclear charge
  QA   - Mulliken gross atomic charge
  VA   - Mayer's total valence
  BVA  - Mayer's bonded valence
  FA   - Mayer's free valence

  ATOM       NA         ZA         QA         VA         BVA        FA
  0 H      1.0000     1.0000    -0.0000     0.9139     0.9139    -0.0000
  1 H      1.0000     1.0000     0.0000     0.9139     0.9139    -0.0000
  2 H      1.0000     1.0000     0.0000     0.9139     0.9139     0.0000
  3 H      1.0000     1.0000    -0.0000     0.9139     0.9139     0.0000

  Mayer bond orders larger than 0.1
B(  0-H ,  1-H ) :   1.0861 B(  2-H ,  3-H ) :   1.0861 

-------
TIMINGS
-------

Total SCF time: 0 days 0 hours 0 min 0 sec 

Total time                  ....       0.338 sec
Sum of individual times     ....       0.267 sec  ( 79.2%)

Fock matrix formation       ....       0.221 sec  ( 65.6%)
  Split-RI-J                ....       0.180 sec  ( 81.1% of F)
  XC integration            ....       0.040 sec  ( 17.9% of F)
    Basis function eval.    ....       0.013 sec  ( 34.1% of XC)
    Density eval.           ....       0.005 sec  ( 12.2% of XC)
    XC-Functional eval.     ....       0.013 sec  ( 33.4% of XC)
    XC-Potential eval.      ....       0.004 sec  (  8.9% of XC)
Diagonalization             ....       0.000 sec  (  0.0%)
Density matrix formation    ....       0.000 sec  (  0.0%)
Population analysis         ....       0.001 sec  (  0.2%)
Initial guess               ....       0.001 sec  (  0.2%)
Orbital Transformation      ....       0.000 sec  (  0.0%)
Orbital Orthonormalization  ....       0.000 sec  (  0.0%)
DIIS solution               ....       0.000 sec  (  0.0%)
SOSCF solution              ....       0.000 sec  (  0.1%)
Grid generation             ....       0.044 sec  ( 13.0%)


-------------------------------------------------------------------------------
                          DFT DISPERSION CORRECTION                            
                                                                               
                              DFTD3 V3.1  Rev 1                                
                          USING Becke-Johnson damping                          
-------------------------------------------------------------------------------
The PBE functional is recognized
Active option DFTDOPT                   ...         4   

molecular C6(AA) [au] = 48.630421 


            DFT-D V3
 parameters
 s6 scaling factor         :     1.0000 
 a1 scaling factor         :     0.4289 
 s8 scaling factor         :     0.7875 
 a2 scaling factor         :     4.4407 
 ad hoc parameters k1-k3   :    16.0000     1.3333    -4.0000 

 Edisp/kcal,au: -0.333408639146  -0.000531320430 
 E6   /kcal   :  -0.262359748 
 E8   /kcal   :  -0.071048891 
 % E8         :  21.309852979 

-------------------------   ----------------
Dispersion correction           -0.000531320
-------------------------   ----------------


-------------------------   --------------------
FINAL SINGLE POINT ENERGY        -2.033554611400
-------------------------   --------------------

                                *** OPTIMIZATION RUN DONE ***

                            ***************************************
                            *     ORCA property calculations      *
                            ***************************************

                                    ---------------------
                                    Active property flags
                                    ---------------------
   (+) Dipole Moment


------------------------------------------------------------------------------
                       ORCA ELECTRIC PROPERTIES CALCULATION
------------------------------------------------------------------------------

Dipole Moment Calculation                       ... on
Quadrupole Moment Calculation                   ... off
Polarizability Calculation                      ... off
GBWName                                         ... h4_scan1_1_orca.gbw
Electron density file                           ... h4_scan1_1_orca.scfp.tmp
The origin for moment calculation is the CENTER OF MASS  = ( 0.661404, -0.661404  0.000000)

-------------
DIPOLE MOMENT
-------------
                                X             Y             Z
Electronic contribution:      0.00000      -0.00000       0.00000
Nuclear contribution   :     -0.00000       0.00000       0.00000
                        -----------------------------------------
Total Dipole Moment    :      0.00000      -0.00000       0.00000
                        -----------------------------------------
Magnitude (a.u.)       :      0.00000
Magnitude (Debye)      :      0.00000



--------------------
Rotational spectrum 
--------------------
 
Rotational constants in cm-1:    29.933915    20.646733    12.218854 
Rotational constants in MHz : 897396.191014 618973.495986 366312.029579 

 Dipole components along the rotational axes: 
x,y,z [a.u.] :    -0.000000    -0.000000     0.000000 
x,y,z [Debye]:    -0.000000    -0.000000     0.000000 

 

Timings for individual modules:

Sum of individual times         ...        3.729 sec (=   0.062 min)
GTO integral calculation        ...        0.514 sec (=   0.009 min)  13.8 %
SCF iterations                  ...        2.251 sec (=   0.038 min)  60.4 %
SCF Gradient evaluation         ...        0.870 sec (=   0.015 min)  23.3 %
Geometry relaxation             ...        0.094 sec (=   0.002 min)   2.5 %
                             ****ORCA TERMINATED NORMALLY****
TOTAL RUN TIME: 0 days 0 hours 0 minutes 4 seconds 211 msec
