 Entering Gaussian System, Link 0=/usr/local/gaussian/g09/g09
 Input=methane_point_charge_to_g09.com
 Output=methane_point_charge_to_g09.log
 Initial command:
 /usr/local/gaussian/g09/l1.exe "/tmp/tmpf_uf4m5s/Gau-116819.inp" -scrdir="/tmp/tmpf_uf4m5s/"
 Entering Link 1 = /usr/local/gaussian/g09/l1.exe PID=    116820.
  
 Copyright (c) 1988,1990,1992,1993,1995,1998,2003,2009,2013,
            Gaussian, Inc.  All Rights Reserved.
  
 This is part of the Gaussian(R) 09 program.  It is based on
 the Gaussian(R) 03 system (copyright 2003, Gaussian, Inc.),
 the Gaussian(R) 98 system (copyright 1998, Gaussian, Inc.),
 the Gaussian(R) 94 system (copyright 1995, Gaussian, Inc.),
 the Gaussian 92(TM) system (copyright 1992, Gaussian, Inc.),
 the Gaussian 90(TM) system (copyright 1990, Gaussian, Inc.),
 the Gaussian 88(TM) system (copyright 1988, Gaussian, Inc.),
 the Gaussian 86(TM) system (copyright 1986, Carnegie Mellon
 University), and the Gaussian 82(TM) system (copyright 1983,
 Carnegie Mellon University). Gaussian is a federally registered
 trademark of Gaussian, Inc.
  
 This software contains proprietary and confidential information,
 including trade secrets, belonging to Gaussian, Inc.
  
 This software is provided under written license and may be
 used, copied, transmitted, or stored only in accord with that
 written license.
  
 The following legend is applicable only to US Government
 contracts under FAR:
  
                    RESTRICTED RIGHTS LEGEND
  
 Use, reproduction and disclosure by the US Government is
 subject to restrictions as set forth in subparagraphs (a)
 and (c) of the Commercial Computer Software - Restricted
 Rights clause in FAR 52.227-19.
  
 Gaussian, Inc.
 340 Quinnipiac St., Bldg. 40, Wallingford CT 06492
  
  
 ---------------------------------------------------------------
 Warning -- This program may not be used in any manner that
 competes with the business of Gaussian, Inc. or will provide
 assistance to any competitor of Gaussian, Inc.  The licensee
 of this program is prohibited from giving any competitor of
 Gaussian, Inc. access to this program.  By using this program,
 the user acknowledges that Gaussian, Inc. is engaged in the
 business of creating and licensing software in the field of
 computational chemistry and represents and warrants to the
 licensee that it is not a competitor of Gaussian, Inc. and that
 it will not use this program in any manner prohibited above.
 ---------------------------------------------------------------
  

 Cite this work as:
 Gaussian 09, Revision D.01,
 M. J. Frisch, G. W. Trucks, H. B. Schlegel, G. E. Scuseria, 
 M. A. Robb, J. R. Cheeseman, G. Scalmani, V. Barone, B. Mennucci, 
 G. A. Petersson, H. Nakatsuji, M. Caricato, X. Li, H. P. Hratchian, 
 A. F. Izmaylov, J. Bloino, G. Zheng, J. L. Sonnenberg, M. Hada, 
 M. Ehara, K. Toyota, R. Fukuda, J. Hasegawa, M. Ishida, T. Nakajima, 
 Y. Honda, O. Kitao, H. Nakai, T. Vreven, J. A. Montgomery, Jr., 
 J. E. Peralta, F. Ogliaro, M. Bearpark, J. J. Heyd, E. Brothers, 
 K. N. Kudin, V. N. Staroverov, T. Keith, R. Kobayashi, J. Normand, 
 K. Raghavachari, A. Rendell, J. C. Burant, S. S. Iyengar, J. Tomasi, 
 M. Cossi, N. Rega, J. M. Millam, M. Klene, J. E. Knox, J. B. Cross, 
 V. Bakken, C. Adamo, J. Jaramillo, R. Gomperts, R. E. Stratmann, 
 O. Yazyev, A. J. Austin, R. Cammi, C. Pomelli, J. W. Ochterski, 
 R. L. Martin, K. Morokuma, V. G. Zakrzewski, G. A. Voth, 
 P. Salvador, J. J. Dannenberg, S. Dapprich, A. D. Daniels, 
 O. Farkas, J. B. Foresman, J. V. Ortiz, J. Cioslowski, 
 and D. J. Fox, Gaussian, Inc., Wallingford CT, 2013.
 
 ******************************************
 Gaussian 09:  EM64L-G09RevD.01 24-Apr-2013
                21-Apr-2020 
 ******************************************
 %mem=4000MB
 -----------------------------------------------------
 # PBE1PBE/Def2SVP Charge Opt=(tight, z-matrix) NoSymm
 -----------------------------------------------------
 1/7=10,10=7,14=-1,18=40,26=3,28=-2,38=1,125=101/1,3;
 2/12=2,15=1,17=6,18=5,29=3,40=1/2;
 3/5=43,7=101,11=2,16=1,25=1,30=1,71=1,74=-13/1,2,3;
 4//1;
 5/5=2,38=5/2;
 6/7=2,8=2,9=2,10=2,28=1/1;
 7/16=-2,29=1,30=1/1,2,3,16;
 1/7=10,10=7,14=-1,18=40,26=3,28=-2/3(2);
 2/15=1,29=3/2;
 99//99;
 2/15=1,29=3/2;
 3/5=43,7=101,11=2,16=1,25=1,30=1,71=1,74=-13/1,2,3;
 4/5=5,16=3,69=1/1;
 5/5=2,38=5/2;
 7/16=-2,30=1/1,2,3,16;
 1/7=10,14=-1,18=40,26=3,28=-2/3(-5);
 2/15=1,29=3/2;
 6/7=2,8=2,9=2,10=2,19=2,28=1/1;
 99/9=1/99;
 -----------------------
 methane_point_charge_to
 -----------------------
 Symbolic Z-matrix:
 Charge =  0 Multiplicity = 1
 C                    -0.0221    0.0032    0.0165 
 H                    -0.669     0.8894   -0.1009 
 H                    -0.3778   -0.8578   -0.5883 
 H                     0.0964   -0.3151    1.0638 
 H                     0.9725    0.2803   -0.3911 
 
 Background charge distribution read from input stream:
 Point Charges:
 XYZ=    3.0000    3.0000    3.0000 Q=    1.0000 A=    0.0000 R=    0.0000 C=    0.0000
 Pt Chg Charge=              1.0000 electrons
 Pt Chg Dipole moment (Debye):
    X=             14.4096    Y=             14.4096    Z=             14.4096  Tot=             24.9582
 Pt Chg Quadrupole moment (Debye-Ang):
   XX=             43.2288   YY=             43.2288   ZZ=             43.2288
   XY=             43.2288   XZ=             43.2288   YZ=             43.2288
 Pt Chg Traceless Quadrupole moment (Debye-Ang):
   XX=              0.0000   YY=              0.0000   ZZ=              0.0000
   XY=             43.2288   XZ=             43.2288   YZ=             43.2288
 Pt Chg Octapole moment (Debye-Ang**2):
  XXX=            129.6865  YYY=            129.6865  ZZZ=            129.6865  XYY=            129.6865
  XXY=            129.6865  XXZ=            129.6865  XZZ=            129.6865  YZZ=            129.6865
  YYZ=            129.6865  XYZ=            129.6865
 Pt Chg Hexadecapole moment (Debye-Ang**3):
 XXXX=            389.0595 YYYY=            389.0595 ZZZZ=            389.0595 XXXY=            389.0595
 XXXZ=            389.0595 YYYX=            389.0595 YYYZ=            389.0595 ZZZX=            389.0595
 ZZZY=            389.0595 XXYY=            389.0595 XXZZ=            389.0595 YYZZ=            389.0595
 XXYZ=            389.0595 YYXZ=            389.0595 ZZXY=            389.0595

 GradGradGradGradGradGradGradGradGradGradGradGradGradGradGradGradGradGrad
 Berny optimization.
 Initialization pass.
 No Z-matrix variables, so optimization will use Cartesian coordinates.
 Trust Radius=3.00D-01 FncErr=1.00D-07 GrdErr=1.00D-06
 Number of steps in this run=     25 maximum allowed number of steps=    100.
 GradGradGradGradGradGradGradGradGradGradGradGradGradGradGradGradGradGrad

 ---------------------------------------------------------------------------------------------------
                            Z-MATRIX (ANGSTROMS AND DEGREES)
   CD    Cent   Atom    N1       Length/X        N2       Alpha/Y        N3        Beta/Z          J
 ---------------------------------------------------------------------------------------------------
      1      1  C        0  -0.022100          0.003200          0.016500
      2      2  H        0  -0.669000          0.889400         -0.100900
      3      3  H        0  -0.377800         -0.857800         -0.588300
      4      4  H        0   0.096400         -0.315100          1.063800
      5      5  H        0   0.972500          0.280300         -0.391100
 ---------------------------------------------------------------------------------------------------
                         Z-Matrix orientation:                         
 ---------------------------------------------------------------------
 Center     Atomic      Atomic             Coordinates (Angstroms)
 Number     Number       Type             X           Y           Z
 ---------------------------------------------------------------------
      1          6           0       -0.022100    0.003200    0.016500
      2          1           0       -0.669000    0.889400   -0.100900
      3          1           0       -0.377800   -0.857800   -0.588300
      4          1           0        0.096400   -0.315100    1.063800
      5          1           0        0.972500    0.280300   -0.391100
 ---------------------------------------------------------------------
                    Distance matrix (angstroms):
                    1          2          3          4          5
     1  C    0.000000
     2  H    1.103455   0.000000
     3  H    1.110687   1.837135   0.000000
     4  H    1.100997   1.842060   1.802449   0.000000
     5  H    1.110023   1.774751   1.776927   1.799663   0.000000
 Symmetry turned off by external request.
 Stoichiometry    CH4
 Framework group  C1[X(CH4)]
 Deg. of freedom     9
 Full point group                 C1      NOp   1
 Rotational constants (GHZ):    158.0707298    153.6281374    149.5846313
 Standard basis: def2SVP (5D, 7F)
    34 basis functions,    53 primitive gaussians,    35 cartesian basis functions
     5 alpha electrons        5 beta electrons
       nuclear repulsion energy        13.2391201808 Hartrees.
 NAtoms=    5 NActive=    5 NUniq=    5 SFac= 1.00D+00 NAtFMM=   60 NAOKFM=F Big=F
 Integral buffers will be    131072 words long.
 Raffenetti 2 integral format.
 Two-electron integral symmetry is turned off.
 Self energy of the charges =         0.0000000000 a.u.
 MM   energy of the charges =         0.0000000000 a.u.
 Nuclei-charges interaction =         1.0165361490 a.u.
 Nuclear repulsion after external point charges =       14.2556563298 Hartrees.
 One-electron integrals computed using PRISM.
   1 Symmetry operations used in ECPInt.
 ECPInt:  NShTT=     171 NPrTT=     553 LenC2=     172 LenP2D=     539.
 LDataN:  DoStor=T MaxTD1= 4 Len=   56
 NBasis=    34 RedAO= T EigKep=  1.45D-02  NBF=    34
 NBsUse=    34 1.00D-06 EigRej= -1.00D+00 NBFU=    34
 ExpMin= 1.22D-01 ExpMax= 1.24D+03 ExpMxC= 1.86D+02 IAcc=1 IRadAn=         1 AccDes= 0.00D+00
 Harris functional with IExCor= 1009 and IRadAn=       1 diagonalized for initial guess.
 HarFok:  IExCor= 1009 AccDes= 0.00D+00 IRadAn=         1 IDoV= 1 UseB2=F ITyADJ=14
 ICtDFT=  3500011 ScaDFX=  1.000000  1.000000  1.000000  1.000000
 FoFCou: FMM=F IPFlag=           0 FMFlag=      100000 FMFlg1=           0
         NFxFlg=           0 DoJE=T BraDBF=F KetDBF=T FulRan=T
         wScrn=  0.000000 ICntrl=     500 IOpCl=  0 I1Cent=   200000004 NGrid=           0
         NMat0=    1 NMatS0=      1 NMatT0=    0 NMatD0=    1 NMtDS0=    0 NMtDT0=    0
 Symmetry not used in FoFCou.
 Keep R1 ints in memory in canonical form, NReq=1060299.
 Requested convergence on RMS density matrix=1.00D-08 within 128 cycles.
 Requested convergence on MAX density matrix=1.00D-06.
 Requested convergence on             energy=1.00D-06.
 No special actions if energy rises.
 Integral accuracy reduced to 1.0D-05 until final iterations.
 Initial convergence to 1.0D-05 achieved.  Increase integral accuracy.
 SCF Done:  E(RPBE1PBE) =  -40.4284517585     A.U. after    9 cycles
            NFock=  9  Conv=0.49D-08     -V/T= 2.0160

 **********************************************************************

            Population analysis using the SCF density.

 **********************************************************************

 Alpha  occ. eigenvalues --  -10.32385  -0.80185  -0.50859  -0.49876  -0.49192
 Alpha virt. eigenvalues --   -0.01769   0.04563   0.05275   0.06432   0.32544
 Alpha virt. eigenvalues --    0.33116   0.34431   0.56002   0.58987   0.59637
 Alpha virt. eigenvalues --    0.59984   0.68929   0.99441   1.00697   1.42074
 Alpha virt. eigenvalues --    1.43601   1.44425   1.65307   1.65585   1.67568
 Alpha virt. eigenvalues --    1.98152   2.03768   2.06404   2.40301   2.41789
 Alpha virt. eigenvalues --    2.48723   2.78850   2.81482   2.82968
          Condensed to atoms (all electrons):
               1          2          3          4          5
     1  C    4.624397   0.407480   0.414146   0.401389   0.393717
     2  H    0.407480   0.587327  -0.014960  -0.021569  -0.025637
     3  H    0.414146  -0.014960   0.543662  -0.018860  -0.019814
     4  H    0.401389  -0.021569  -0.018860   0.620090  -0.024999
     5  H    0.393717  -0.025637  -0.019814  -0.024999   0.642739
 Mulliken charges:
               1
     1  C   -0.241129
     2  H    0.067359
     3  H    0.095826
     4  H    0.043949
     5  H    0.033995
 Sum of Mulliken charges =   0.00000
 Mulliken charges with hydrogens summed into heavy atoms:
               1
     1  C    0.000000
 Electronic spatial extent (au):  <R**2>=             35.9866
 Charge=              0.0000 electrons
 Dipole moment (field-independent basis, Debye):
    X=             -0.1478    Y=             -0.1723    Z=             -0.2004  Tot=              0.3028
 Quadrupole moment (field-independent basis, Debye-Ang):
   XX=             -8.4843   YY=             -8.1056   ZZ=             -8.2988
   XY=             -0.0646   XZ=              0.0565   YZ=              0.0089
 Traceless Quadrupole moment (field-independent basis, Debye-Ang):
   XX=             -0.1881   YY=              0.1906   ZZ=             -0.0025
   XY=             -0.0646   XZ=              0.0565   YZ=              0.0089
 Octapole moment (field-independent basis, Debye-Ang**2):
  XXX=              0.3576  YYY=             -0.2828  ZZZ=              0.0407  XYY=             -0.5286
  XXY=              0.2304  XXZ=             -0.4452  XZZ=              0.0867  YZZ=             -0.5451
  YYZ=             -0.5521  XYZ=             -0.1893
 Hexadecapole moment (field-independent basis, Debye-Ang**3):
 XXXX=            -15.8299 YYYY=            -15.5456 ZZZZ=            -15.5990 XXXY=              0.0107
 XXXZ=             -0.2535 YYYX=             -0.2097 YYYZ=              0.4699 ZZZX=              0.2098
 ZZZY=             -0.0839 XXYY=             -5.0563 XXZZ=             -5.4362 YYZZ=             -5.1819
 XXYZ=             -0.0361 YYXZ=              0.2892 ZZXY=              0.1499
 N-N= 1.425565632982D+01 E-N=-1.202126647989D+02  KE= 3.979045867634D+01
   1 Symmetry operations used in ECPInt.
 ECPInt:  NShTT=     171 NPrTT=     553 LenC2=     172 LenP2D=     539.
 LDataN:  DoStor=T MaxTD1= 5 Len=  102
 Calling FoFJK, ICntrl=      2127 FMM=F ISym2X=0 I1Cent= 0 IOpClX= 0 NMat=1 NMatS=1 NMatT=0.
 -------------------------------------------------------------------
 Center     Atomic                   Forces (Hartrees/Bohr)
 Number     Number              X              Y              Z
 -------------------------------------------------------------------
      1        6           0.011632062   -0.001355689   -0.010277073
      2        1          -0.002547863   -0.006740768    0.003061589
      3        1          -0.001627117    0.008355662    0.005382467
      4        1          -0.003599911    0.002368472   -0.000990285
      5        1          -0.003660980   -0.002443978    0.003011715
 -------------------------------------------------------------------
 Cartesian Forces:  Max     0.011632062 RMS     0.005498456

 GradGradGradGradGradGradGradGradGradGradGradGradGradGradGradGradGradGrad
 Berny optimization.
 Search for a local minimum.
 Step number   1 out of a maximum of   25
 All quantities printed in internal units (Hartrees-Bohrs-Radians)
 Second derivative matrix not updated -- first step.
 The second derivative matrix:
                          X1        Y1        Z1        X2        Y2
           X1           0.60861
           Y1          -0.01943   0.65695
           Z1           0.00890  -0.01204   0.65043
           X2          -0.16019   0.12139  -0.01708   0.14948
           Y2           0.12371  -0.24148   0.02056  -0.13164   0.23387
           Z2          -0.01856   0.02217  -0.08375   0.01767  -0.02311
           X3          -0.09592  -0.05828  -0.04605   0.01674   0.01452
           Y3          -0.06078  -0.22709  -0.10414  -0.01176  -0.01028
           Z3          -0.04836  -0.10550  -0.14993   0.00690   0.00610
           X4          -0.07622   0.01239  -0.02906   0.00355  -0.00030
           Y4           0.01151  -0.10113   0.07075  -0.00350   0.00109
           Z4          -0.02586   0.06990  -0.31093  -0.00147   0.00037
           X5          -0.27627  -0.05607   0.08329  -0.00958  -0.00629
           Y5          -0.05501  -0.08725   0.02487   0.02551   0.01680
           Z5           0.08389   0.02547  -0.10582  -0.00602  -0.00391
                          Z2        X3        Y3        Z3        X4
           Z2           0.06124
           X3           0.01738   0.08072
           Y3          -0.01283   0.06638   0.21869
           Z3           0.00805   0.04933   0.11270   0.13582
           X4          -0.02181   0.00061   0.00632  -0.00936   0.05679
           Y4           0.02752  -0.00008   0.01949  -0.02769  -0.01046
           Z4           0.01083  -0.00009   0.00521  -0.00736   0.02838
           X5           0.00532  -0.00215  -0.00016   0.00149   0.01527
           Y5          -0.01374  -0.02254  -0.00080   0.01440  -0.00795
           Z5           0.00364  -0.02057  -0.00093   0.01342   0.03185
                          Y4        Z4        X5        Y5        Z5
           Y4           0.08157
           Z4          -0.07606   0.30939
           X5           0.00253  -0.00096   0.27273
           Y5          -0.00102   0.00059   0.05998   0.07227
           Z5           0.00548  -0.00194  -0.08914  -0.02611   0.09071
 ITU=  0
     Eigenvalues ---    0.10783   0.11031   0.12627   0.13417   0.13568
     Eigenvalues ---    0.33028   0.74381   0.77864   0.80958
 RFO step:  Lambda=-1.47324987D-03 EMin= 1.07826100D-01
 Linear search not attempted -- first point.
 Variable       Old X    -DE/DX   Delta X   Delta X   Delta X     New X
                                 (Linear)    (Quad)   (Total)
    X1       -0.04176   0.01163   0.00000   0.02629   0.02629  -0.01548
    Y1        0.00605  -0.00136   0.00000   0.00252   0.00252   0.00857
    Z1        0.03118  -0.01028   0.00000  -0.01359  -0.01359   0.01759
    X2       -1.26423  -0.00255   0.00000  -0.02936  -0.02936  -1.29359
    Y2        1.68072  -0.00674   0.00000  -0.04937  -0.04937   1.63136
    Z2       -0.19067   0.00306   0.00000   0.02010   0.02010  -0.17057
    X3       -0.71394  -0.00163   0.00000  -0.02670  -0.02670  -0.74063
    Y3       -1.62101   0.00836   0.00000   0.03632   0.03632  -1.58468
    Z3       -1.11173   0.00538   0.00000   0.01911   0.01911  -1.09262
    X4        0.18217  -0.00360   0.00000  -0.02778  -0.02778   0.15439
    Y4       -0.59545   0.00237   0.00000   0.01671   0.01671  -0.57874
    Z4        2.01029  -0.00099   0.00000  -0.00945  -0.00945   2.00084
    X5        1.83776  -0.00366   0.00000   0.01945   0.01945   1.85721
    Y5        0.52969  -0.00244   0.00000  -0.00985  -0.00985   0.51984
    Z5       -0.73907   0.00301   0.00000   0.00351   0.00351  -0.73556
         Item               Value     Threshold  Converged?
 Maximum Force            0.011632     0.000015     NO 
 RMS     Force            0.005498     0.000010     NO 
 Maximum Displacement     0.049366     0.000060     NO 
 RMS     Displacement     0.023959     0.000040     NO 
 Predicted change in Energy=-7.429670D-04
 GradGradGradGradGradGradGradGradGradGradGradGradGradGradGradGradGradGrad

                          Input orientation:                          
 ---------------------------------------------------------------------
 Center     Atomic      Atomic             Coordinates (Angstroms)
 Number     Number       Type             X           Y           Z
 ---------------------------------------------------------------------
      1          6           0       -0.008190    0.004535    0.009311
      2          1           0       -0.684538    0.863277   -0.090261
      3          1           0       -0.391927   -0.838578   -0.578190
      4          1           0        0.081701   -0.306256    1.058801
      5          1           0        0.982793    0.275086   -0.389241
 ---------------------------------------------------------------------
                    Distance matrix (angstroms):
                    1          2          3          4          5
     1  C    0.000000
     2  H    1.097633   0.000000
     3  H    1.096928   1.794438   0.000000
     4  H    1.098227   1.809771   1.785338   0.000000
     5  H    1.101857   1.793140   1.779271   1.801875   0.000000
 Symmetry turned off by external request.
 Stoichiometry    CH4
 Framework group  C1[X(CH4)]
 Deg. of freedom     9
 Full point group                 C1      NOp   1
 Rotational constants (GHZ):    157.3950343    155.8312895    154.1854534
 Standard basis: def2SVP (5D, 7F)
    34 basis functions,    53 primitive gaussians,    35 cartesian basis functions
     5 alpha electrons        5 beta electrons
       nuclear repulsion energy        13.3296942133 Hartrees.
 NAtoms=    5 NActive=    5 NUniq=    5 SFac= 1.00D+00 NAtFMM=   60 NAOKFM=F Big=F
 Integral buffers will be    131072 words long.
 Raffenetti 2 integral format.
 Two-electron integral symmetry is turned off.
 Self energy of the charges =         0.0000000000 a.u.
 MM   energy of the charges =         0.0000000000 a.u.
 Nuclei-charges interaction =         1.0168866376 a.u.
 Nuclear repulsion after external point charges =       14.3465808509 Hartrees.
 One-electron integrals computed using PRISM.
   1 Symmetry operations used in ECPInt.
 ECPInt:  NShTT=     171 NPrTT=     553 LenC2=     172 LenP2D=     539.
 LDataN:  DoStor=T MaxTD1= 4 Len=   56
 NBasis=    34 RedAO= T EigKep=  1.42D-02  NBF=    34
 NBsUse=    34 1.00D-06 EigRej= -1.00D+00 NBFU=    34
 Initial guess from the checkpoint file:  "/tmp/tmpf_uf4m5s/Gau-116820.chk"
 B after Tr=     0.009332    0.000895   -0.004824
         Rot=    1.000000    0.000012   -0.000020    0.000021 Ang=   0.00 deg.
 ExpMin= 1.22D-01 ExpMax= 1.24D+03 ExpMxC= 1.86D+02 IAcc=1 IRadAn=         1 AccDes= 0.00D+00
 Harris functional with IExCor= 1009 and IRadAn=       1 diagonalized for initial guess.
 HarFok:  IExCor= 1009 AccDes= 0.00D+00 IRadAn=         1 IDoV= 1 UseB2=F ITyADJ=14
 ICtDFT=  3500011 ScaDFX=  1.000000  1.000000  1.000000  1.000000
 FoFCou: FMM=F IPFlag=           0 FMFlag=      100000 FMFlg1=           0
         NFxFlg=           0 DoJE=T BraDBF=F KetDBF=T FulRan=T
         wScrn=  0.000000 ICntrl=     500 IOpCl=  0 I1Cent=   200000004 NGrid=           0
         NMat0=    1 NMatS0=      1 NMatT0=    0 NMatD0=    1 NMtDS0=    0 NMtDT0=    0
 Symmetry not used in FoFCou.
 Keep R1 ints in memory in canonical form, NReq=1060299.
 Requested convergence on RMS density matrix=1.00D-08 within 128 cycles.
 Requested convergence on MAX density matrix=1.00D-06.
 Requested convergence on             energy=1.00D-06.
 No special actions if energy rises.
 Integral accuracy reduced to 1.0D-05 until final iterations.
 Initial convergence to 1.0D-05 achieved.  Increase integral accuracy.
 SCF Done:  E(RPBE1PBE) =  -40.4293344858     A.U. after    9 cycles
            NFock=  9  Conv=0.84D-09     -V/T= 2.0151
   1 Symmetry operations used in ECPInt.
 ECPInt:  NShTT=     171 NPrTT=     553 LenC2=     172 LenP2D=     539.
 LDataN:  DoStor=T MaxTD1= 5 Len=  102
 Calling FoFJK, ICntrl=      2127 FMM=F ISym2X=0 I1Cent= 0 IOpClX= 0 NMat=1 NMatS=1 NMatT=0.
 -------------------------------------------------------------------
 Center     Atomic                   Forces (Hartrees/Bohr)
 Number     Number              X              Y              Z
 -------------------------------------------------------------------
      1        6           0.004665496    0.000616633   -0.002058344
      2        1          -0.001179293   -0.000667944    0.000886752
      3        1          -0.001251508    0.000128988    0.000020394
      4        1          -0.000967388    0.000562555    0.000546880
      5        1          -0.001064036   -0.000454660    0.000799416
 -------------------------------------------------------------------
 Cartesian Forces:  Max     0.004665496 RMS     0.001508194

 GradGradGradGradGradGradGradGradGradGradGradGradGradGradGradGradGradGrad
 Berny optimization.
 Search for a local minimum.
 Step number   2 out of a maximum of   25
 All quantities printed in internal units (Hartrees-Bohrs-Radians)
 Update second derivatives using D2CorN and points    1    2
 DE= -8.83D-04 DEPred=-7.43D-04 R= 1.19D+00
 TightC=F SS=  1.41D+00  RLast= 9.28D-02 DXNew= 5.0454D-01 2.7838D-01
 Trust test= 1.19D+00 RLast= 9.28D-02 DXMaxT set to 3.00D-01
 The second derivative matrix:
                          X1        Y1        Z1        X2        Y2
           X1           0.59478
           Y1          -0.02092   0.65679
           Z1           0.01568  -0.01130   0.64712
           X2          -0.15066   0.12249  -0.02159   0.14545
           Y2           0.13766  -0.23984   0.01404  -0.13611   0.23025
           Z2          -0.02510   0.02142  -0.08065   0.02046  -0.02001
           X3          -0.08701  -0.05726  -0.05028   0.01280   0.01000
           Y3          -0.07040  -0.22824  -0.09968  -0.00920  -0.00884
           Z3          -0.05334  -0.10610  -0.14763   0.00815   0.00671
           X4          -0.06743   0.01340  -0.03321  -0.00002  -0.00410
           Y4           0.00633  -0.10173   0.07320  -0.00148   0.00318
           Z4          -0.02420   0.07011  -0.31166  -0.00120   0.00156
           X5          -0.27966  -0.05651   0.08477  -0.01017  -0.00881
           Y5          -0.05171  -0.08688   0.02331   0.02405   0.01512
           Z5           0.08178   0.02525  -0.10478  -0.00446  -0.00156
                          Z2        X3        Y3        Z3        X4
           Z2           0.05932
           X3           0.02010   0.07688
           Y3          -0.01461   0.06905   0.21852
           Z3           0.00717   0.05066   0.11272   0.13589
           X4          -0.01935  -0.00289   0.00843  -0.00833   0.05366
           Y4           0.02612   0.00191   0.01836  -0.02823  -0.00868
           Z4           0.01065   0.00006   0.00409  -0.00797   0.02872
           X5           0.00571  -0.00251   0.00218   0.00278   0.01454
           Y5          -0.01274  -0.02396   0.00019   0.01489  -0.00925
           Z5           0.00256  -0.01911  -0.00258   0.01256   0.03330
                          Y4        Z4        X5        Y5        Z5
           Y4           0.08058
           Z4          -0.07630   0.30998
           X5           0.00305  -0.00219   0.27529
           Y5          -0.00028   0.00064   0.05985   0.07174
           Z5           0.00462  -0.00162  -0.08979  -0.02557   0.09039
 ITU=  1  0
     Eigenvalues ---    0.09705   0.10814   0.11569   0.13307   0.13571
     Eigenvalues ---    0.32916   0.73904   0.77640   0.80941
 RFO step:  Lambda=-3.74895479D-05 EMin= 9.70543857D-02
 Quartic linear search produced a step of  0.25031.
 Variable       Old X    -DE/DX   Delta X   Delta X   Delta X     New X
                                 (Linear)    (Quad)   (Total)
    X1       -0.01548   0.00467   0.00658   0.00349   0.01007  -0.00540
    Y1        0.00857   0.00062   0.00063  -0.00001   0.00062   0.00920
    Z1        0.01759  -0.00206  -0.00340  -0.00133  -0.00473   0.01286
    X2       -1.29359  -0.00118  -0.00735  -0.00256  -0.00991  -1.30350
    Y2        1.63136  -0.00067  -0.01236   0.00029  -0.01207   1.61929
    Z2       -0.17057   0.00089   0.00503   0.00378   0.00881  -0.16176
    X3       -0.74063  -0.00125  -0.00668  -0.00522  -0.01190  -0.75254
    Y3       -1.58468   0.00013   0.00909  -0.00505   0.00404  -1.58064
    Z3       -1.09262   0.00002   0.00478  -0.00357   0.00121  -1.09141
    X4        0.15439  -0.00097  -0.00695  -0.00293  -0.00988   0.14451
    Y4       -0.57874   0.00056   0.00418   0.00309   0.00727  -0.57147
    Z4        2.00084   0.00055  -0.00236   0.00271   0.00035   2.00119
    X5        1.85721  -0.00106   0.00487   0.00215   0.00702   1.86423
    Y5        0.51984  -0.00045  -0.00247   0.00169  -0.00078   0.51906
    Z5       -0.73556   0.00080   0.00088   0.00033   0.00121  -0.73434
         Item               Value     Threshold  Converged?
 Maximum Force            0.004665     0.000015     NO 
 RMS     Force            0.001508     0.000010     NO 
 Maximum Displacement     0.012067     0.000060     NO 
 RMS     Displacement     0.007336     0.000040     NO 
 Predicted change in Energy=-5.213539D-05
 GradGradGradGradGradGradGradGradGradGradGradGradGradGradGradGradGradGrad

                          Input orientation:                          
 ---------------------------------------------------------------------
 Center     Atomic      Atomic             Coordinates (Angstroms)
 Number     Number       Type             X           Y           Z
 ---------------------------------------------------------------------
      1          6           0       -0.002860    0.004866    0.006807
      2          1           0       -0.689782    0.856891   -0.085597
      3          1           0       -0.398225   -0.836440   -0.577549
      4          1           0        0.076471   -0.302408    1.058987
      5          1           0        0.986508    0.274675   -0.388598
 ---------------------------------------------------------------------
                    Distance matrix (angstroms):
                    1          2          3          4          5
     1  C    0.000000
     2  H    1.098339   0.000000
     3  H    1.097990   1.787286   0.000000
     4  H    1.098996   1.800331   1.785715   0.000000
     5  H    1.099086   1.800204   1.785431   1.804631   0.000000
 Symmetry turned off by external request.
 Stoichiometry    CH4
 Framework group  C1[X(CH4)]
 Deg. of freedom     9
 Full point group                 C1      NOp   1
 Rotational constants (GHZ):    156.7399241    156.2488295    154.4533579
 Standard basis: def2SVP (5D, 7F)
    34 basis functions,    53 primitive gaussians,    35 cartesian basis functions
     5 alpha electrons        5 beta electrons
       nuclear repulsion energy        13.3302952045 Hartrees.
 NAtoms=    5 NActive=    5 NUniq=    5 SFac= 1.00D+00 NAtFMM=   60 NAOKFM=F Big=F
 Integral buffers will be    131072 words long.
 Raffenetti 2 integral format.
 Two-electron integral symmetry is turned off.
 Self energy of the charges =         0.0000000000 a.u.
 MM   energy of the charges =         0.0000000000 a.u.
 Nuclei-charges interaction =         1.0170422307 a.u.
 Nuclear repulsion after external point charges =       14.3473374352 Hartrees.
 One-electron integrals computed using PRISM.
   1 Symmetry operations used in ECPInt.
 ECPInt:  NShTT=     171 NPrTT=     553 LenC2=     172 LenP2D=     539.
 LDataN:  DoStor=T MaxTD1= 4 Len=   56
 NBasis=    34 RedAO= T EigKep=  1.42D-02  NBF=    34
 NBsUse=    34 1.00D-06 EigRej= -1.00D+00 NBFU=    34
 Initial guess from the checkpoint file:  "/tmp/tmpf_uf4m5s/Gau-116820.chk"
 B after Tr=     0.003576    0.000222   -0.001680
         Rot=    1.000000    0.000004   -0.000008    0.000008 Ang=   0.00 deg.
 Keep R1 ints in memory in canonical form, NReq=1060299.
 Requested convergence on RMS density matrix=1.00D-08 within 128 cycles.
 Requested convergence on MAX density matrix=1.00D-06.
 Requested convergence on             energy=1.00D-06.
 No special actions if energy rises.
 SCF Done:  E(RPBE1PBE) =  -40.4293889844     A.U. after    6 cycles
            NFock=  6  Conv=0.97D-08     -V/T= 2.0151
   1 Symmetry operations used in ECPInt.
 ECPInt:  NShTT=     171 NPrTT=     553 LenC2=     172 LenP2D=     539.
 LDataN:  DoStor=T MaxTD1= 5 Len=  102
 Calling FoFJK, ICntrl=      2127 FMM=F ISym2X=0 I1Cent= 0 IOpClX= 0 NMat=1 NMatS=1 NMatT=0.
 -------------------------------------------------------------------
 Center     Atomic                   Forces (Hartrees/Bohr)
 Number     Number              X              Y              Z
 -------------------------------------------------------------------
      1        6           0.000051273   -0.000181241   -0.000115502
      2        1           0.000135835   -0.000001370    0.000111379
      3        1           0.000122095    0.000248590    0.000192948
      4        1          -0.000038536    0.000075657   -0.000019962
      5        1          -0.000066640    0.000044200    0.000026657
 -------------------------------------------------------------------
 Cartesian Forces:  Max     0.000248590 RMS     0.000117848

 GradGradGradGradGradGradGradGradGradGradGradGradGradGradGradGradGradGrad
 Berny optimization.
 Search for a local minimum.
 Step number   3 out of a maximum of   25
 All quantities printed in internal units (Hartrees-Bohrs-Radians)
 Update second derivatives using D2CorN and points    1    2    3
 DE= -5.45D-05 DEPred=-5.21D-05 R= 1.05D+00
 TightC=F SS=  1.41D+00  RLast= 2.84D-02 DXNew= 5.0454D-01 8.5233D-02
 Trust test= 1.05D+00 RLast= 2.84D-02 DXMaxT set to 3.00D-01
 The second derivative matrix:
                          X1        Y1        Z1        X2        Y2
           X1           0.58659
           Y1          -0.02006   0.65694
           Z1           0.02093  -0.01162   0.64397
           X2          -0.14692   0.12129  -0.02466   0.14655
           Y2           0.14300  -0.24131   0.00988  -0.13440   0.23336
           Z2          -0.02891   0.02242  -0.07772   0.02043  -0.02018
           X3          -0.08307  -0.05869  -0.05366   0.01400   0.01168
           Y3          -0.07412  -0.22778  -0.09729  -0.00945  -0.01007
           Z3          -0.05542  -0.10599  -0.14641   0.00838   0.00649
           X4          -0.06282   0.01227  -0.03668   0.00010  -0.00367
           Y4           0.00323  -0.10089   0.07559  -0.00156   0.00292
           Z4          -0.02414   0.07012  -0.31168  -0.00055   0.00279
           X5          -0.27995  -0.05549   0.08577  -0.01332  -0.01346
           Y5          -0.05081  -0.08696   0.02274   0.02412   0.01537
           Z5           0.08052   0.02533  -0.10401  -0.00374  -0.00054
                          Z2        X3        Y3        Z3        X4
           Z2           0.05854
           X3           0.02013   0.07821
           Y3          -0.01499   0.06900   0.21943
           Z3           0.00673   0.05105   0.11310   0.13609
           X4          -0.01852  -0.00285   0.00867  -0.00793   0.05280
           Y4           0.02551   0.00190   0.01815  -0.02854  -0.00806
           Z4           0.01019   0.00068   0.00323  -0.00841   0.02935
           X5           0.00759  -0.00584   0.00434   0.00356   0.01215
           Y5          -0.01271  -0.02388   0.00009   0.01487  -0.00927
           Z5           0.00190  -0.01837  -0.00324   0.01221   0.03411
                          Y4        Z4        X5        Y5        Z5
           Y4           0.08011
           Z4          -0.07671   0.31029
           X5           0.00464  -0.00299   0.27909
           Y5          -0.00028   0.00080   0.05929   0.07172
           Z5           0.00408  -0.00158  -0.08999  -0.02541   0.09020
 ITU=  1  1  0
     Eigenvalues ---    0.10056   0.10804   0.11452   0.13265   0.13581
     Eigenvalues ---    0.32915   0.73546   0.77504   0.80915
 RFO step:  Lambda=-4.89704967D-07 EMin= 1.00556986D-01
 Quartic linear search produced a step of  0.00779.
 Variable       Old X    -DE/DX   Delta X   Delta X   Delta X     New X
                                 (Linear)    (Quad)   (Total)
    X1       -0.00540   0.00005   0.00008   0.00001   0.00009  -0.00531
    Y1        0.00920  -0.00018   0.00000  -0.00029  -0.00028   0.00892
    Z1        0.01286  -0.00012  -0.00004  -0.00016  -0.00020   0.01266
    X2       -1.30350   0.00014  -0.00008   0.00061   0.00054  -1.30296
    Y2        1.61929   0.00000  -0.00009  -0.00013  -0.00023   1.61906
    Z2       -0.16176   0.00011   0.00007   0.00044   0.00050  -0.16125
    X3       -0.75254   0.00012  -0.00009   0.00040   0.00031  -0.75223
    Y3       -1.58064   0.00025   0.00003   0.00031   0.00034  -1.58030
    Z3       -1.09141   0.00019   0.00001   0.00041   0.00042  -1.09099
    X4        0.14451  -0.00004  -0.00008  -0.00061  -0.00069   0.14382
    Y4       -0.57147   0.00008   0.00006   0.00026   0.00031  -0.57116
    Z4        2.00119  -0.00002   0.00000  -0.00015  -0.00015   2.00104
    X5        1.86423  -0.00007   0.00005  -0.00044  -0.00039   1.86384
    Y5        0.51906   0.00004  -0.00001   0.00027   0.00026   0.51932
    Z5       -0.73434   0.00003   0.00001  -0.00029  -0.00028  -0.73463
         Item               Value     Threshold  Converged?
 Maximum Force            0.000249     0.000015     NO 
 RMS     Force            0.000118     0.000010     NO 
 Maximum Displacement     0.000687     0.000060     NO 
 RMS     Displacement     0.000365     0.000040     NO 
 Predicted change in Energy=-2.465889D-07
 GradGradGradGradGradGradGradGradGradGradGradGradGradGradGradGradGradGrad

                          Input orientation:                          
 ---------------------------------------------------------------------
 Center     Atomic      Atomic             Coordinates (Angstroms)
 Number     Number       Type             X           Y           Z
 ---------------------------------------------------------------------
      1          6           0       -0.002811    0.004718    0.006701
      2          1           0       -0.689498    0.856771   -0.085331
      3          1           0       -0.398061   -0.836259   -0.577327
      4          1           0        0.076107   -0.302243    1.058906
      5          1           0        0.986303    0.274813   -0.388747
 ---------------------------------------------------------------------
                    Distance matrix (angstroms):
                    1          2          3          4          5
     1  C    0.000000
     2  H    1.098183   0.000000
     3  H    1.097522   1.786995   0.000000
     4  H    1.098903   1.799651   1.785292   0.000000
     5  H    1.098944   1.799736   1.785079   1.804758   0.000000
 Symmetry turned off by external request.
 Stoichiometry    CH4
 Framework group  C1[X(CH4)]
 Deg. of freedom     9
 Full point group                 C1      NOp   1
 Rotational constants (GHZ):    156.8434169    156.2748876    154.5066870
 Standard basis: def2SVP (5D, 7F)
    34 basis functions,    53 primitive gaussians,    35 cartesian basis functions
     5 alpha electrons        5 beta electrons
       nuclear repulsion energy        13.3329016719 Hartrees.
 NAtoms=    5 NActive=    5 NUniq=    5 SFac= 1.00D+00 NAtFMM=   60 NAOKFM=F Big=F
 Integral buffers will be    131072 words long.
 Raffenetti 2 integral format.
 Two-electron integral symmetry is turned off.
 Self energy of the charges =         0.0000000000 a.u.
 MM   energy of the charges =         0.0000000000 a.u.
 Nuclei-charges interaction =         1.0170327643 a.u.
 Nuclear repulsion after external point charges =       14.3499344362 Hartrees.
 One-electron integrals computed using PRISM.
   1 Symmetry operations used in ECPInt.
 ECPInt:  NShTT=     171 NPrTT=     553 LenC2=     172 LenP2D=     539.
 LDataN:  DoStor=T MaxTD1= 4 Len=   56
 NBasis=    34 RedAO= T EigKep=  1.42D-02  NBF=    34
 NBsUse=    34 1.00D-06 EigRej= -1.00D+00 NBFU=    34
 Initial guess from the checkpoint file:  "/tmp/tmpf_uf4m5s/Gau-116820.chk"
 B after Tr=     0.000033   -0.000100   -0.000071
         Rot=    1.000000    0.000000    0.000000    0.000000 Ang=   0.00 deg.
 Keep R1 ints in memory in canonical form, NReq=1060299.
 Requested convergence on RMS density matrix=1.00D-08 within 128 cycles.
 Requested convergence on MAX density matrix=1.00D-06.
 Requested convergence on             energy=1.00D-06.
 No special actions if energy rises.
 SCF Done:  E(RPBE1PBE) =  -40.4293892433     A.U. after    6 cycles
            NFock=  6  Conv=0.11D-08     -V/T= 2.0151
   1 Symmetry operations used in ECPInt.
 ECPInt:  NShTT=     171 NPrTT=     553 LenC2=     172 LenP2D=     539.
 LDataN:  DoStor=T MaxTD1= 5 Len=  102
 Calling FoFJK, ICntrl=      2127 FMM=F ISym2X=0 I1Cent= 0 IOpClX= 0 NMat=1 NMatS=1 NMatT=0.
 -------------------------------------------------------------------
 Center     Atomic                   Forces (Hartrees/Bohr)
 Number     Number              X              Y              Z
 -------------------------------------------------------------------
      1        6           0.000097295    0.000025677    0.000065270
      2        1           0.000044508    0.000067440    0.000057038
      3        1           0.000004443    0.000023964    0.000019995
      4        1           0.000024931    0.000033027    0.000030846
      5        1           0.000032490    0.000035879    0.000022206
 -------------------------------------------------------------------
 Cartesian Forces:  Max     0.000097295 RMS     0.000045212

 GradGradGradGradGradGradGradGradGradGradGradGradGradGradGradGradGradGrad
 Berny optimization.
 Search for a local minimum.
 Step number   4 out of a maximum of   25
 All quantities printed in internal units (Hartrees-Bohrs-Radians)
 Update second derivatives using D2CorN and points    1    2    3    4
 DE= -2.59D-07 DEPred=-2.47D-07 R= 1.05D+00
 Trust test= 1.05D+00 RLast= 1.41D-03 DXMaxT set to 3.00D-01
 The second derivative matrix:
                          X1        Y1        Z1        X2        Y2
           X1           0.58352
           Y1          -0.01706   0.65063
           Z1           0.02358  -0.01482   0.64215
           X2          -0.14871   0.12694  -0.02400   0.14630
           Y2           0.14468  -0.24252   0.00990  -0.13726   0.23824
           Z2          -0.03270   0.02964  -0.07502   0.01830  -0.02331
           X3          -0.08341  -0.05665  -0.05432   0.01547   0.00966
           Y3          -0.07642  -0.22503  -0.09688  -0.00774  -0.01431
           Z3          -0.05800  -0.10160  -0.14541   0.00867   0.00293
           X4          -0.05808   0.00334  -0.03964   0.00167   0.00128
           Y4           0.00046  -0.09576   0.07783  -0.00390   0.00135
           Z4          -0.02342   0.06876  -0.31178  -0.00075   0.00451
           X5          -0.27808  -0.05943   0.08505  -0.01387  -0.01223
           Y5          -0.05236  -0.08273   0.02423   0.02171   0.01481
           Z5           0.08173   0.02184  -0.10478  -0.00272   0.00133
                          Z2        X3        Y3        Z3        X4
           Z2           0.05509
           X3           0.02028   0.08010
           Y3          -0.01409   0.07104   0.22311
           Z3           0.00579   0.05250   0.11564   0.13725
           X4          -0.01522  -0.00380   0.00642  -0.00783   0.05017
           Y4           0.02233   0.00144   0.01810  -0.02991  -0.00462
           Z4           0.01010   0.00017   0.00188  -0.00918   0.02987
           X5           0.00944  -0.00758   0.00356   0.00351   0.01062
           Y5          -0.01588  -0.02453  -0.00058   0.01318  -0.00561
           Z5           0.00332  -0.01845  -0.00403   0.01241   0.03286
                          Y4        Z4        X5        Y5        Z5
           Y4           0.07746
           Z4          -0.07653   0.31070
           X5           0.00661  -0.00291   0.27996
           Y5          -0.00279   0.00131   0.06082   0.06943
           Z5           0.00547  -0.00153  -0.09058  -0.02380   0.08942
 ITU=  0  1  1  0
     Eigenvalues ---    0.09903   0.10244   0.11093   0.12915   0.13646
     Eigenvalues ---    0.33811   0.73531   0.77025   0.80832
 RFO step:  Lambda=-1.86455826D-08 EMin= 9.90326816D-02
 Quartic linear search produced a step of  0.04886.
 Variable       Old X    -DE/DX   Delta X   Delta X   Delta X     New X
                                 (Linear)    (Quad)   (Total)
    X1       -0.00531   0.00010   0.00000   0.00003   0.00003  -0.00528
    Y1        0.00892   0.00003  -0.00001  -0.00008  -0.00010   0.00882
    Z1        0.01266   0.00007  -0.00001  -0.00004  -0.00005   0.01261
    X2       -1.30296   0.00004   0.00003   0.00010   0.00013  -1.30284
    Y2        1.61906   0.00007  -0.00001   0.00008   0.00007   1.61913
    Z2       -0.16125   0.00006   0.00002   0.00013   0.00016  -0.16109
    X3       -0.75223   0.00000   0.00002  -0.00007  -0.00006  -0.75228
    Y3       -1.58030   0.00002   0.00002  -0.00016  -0.00014  -1.58044
    Z3       -1.09099   0.00002   0.00002  -0.00005  -0.00003  -1.09102
    X4        0.14382   0.00002  -0.00003  -0.00010  -0.00014   0.14369
    Y4       -0.57116   0.00003   0.00002   0.00012   0.00013  -0.57102
    Z4        2.00104   0.00003  -0.00001   0.00003   0.00002   2.00107
    X5        1.86384   0.00003  -0.00002   0.00001  -0.00001   1.86383
    Y5        0.51932   0.00004   0.00001   0.00016   0.00018   0.51950
    Z5       -0.73463   0.00002  -0.00001  -0.00001  -0.00002  -0.73465
         Item               Value     Threshold  Converged?
 Maximum Force            0.000097     0.000015     NO 
 RMS     Force            0.000045     0.000010     NO 
 Maximum Displacement     0.000177     0.000060     NO 
 RMS     Displacement     0.000101     0.000040     NO 
 Predicted change in Energy=-9.508010D-09
 GradGradGradGradGradGradGradGradGradGradGradGradGradGradGradGradGradGrad

                          Input orientation:                          
 ---------------------------------------------------------------------
 Center     Atomic      Atomic             Coordinates (Angstroms)
 Number     Number       Type             X           Y           Z
 ---------------------------------------------------------------------
      1          6           0       -0.002795    0.004666    0.006674
      2          1           0       -0.689431    0.856808   -0.085247
      3          1           0       -0.398090   -0.836335   -0.577344
      4          1           0        0.076036   -0.302172    1.058919
      5          1           0        0.986297    0.274907   -0.388759
 ---------------------------------------------------------------------
                    Distance matrix (angstroms):
                    1          2          3          4          5
     1  C    0.000000
     2  H    1.098210   0.000000
     3  H    1.097551   1.787112   0.000000
     4  H    1.098901   1.799525   1.785351   0.000000
     5  H    1.098954   1.799665   1.785203   1.804817   0.000000
 Symmetry turned off by external request.
 Stoichiometry    CH4
 Framework group  C1[X(CH4)]
 Deg. of freedom     9
 Full point group                 C1      NOp   1
 Rotational constants (GHZ):    156.8418607    156.2563210    154.5129813
 Standard basis: def2SVP (5D, 7F)
    34 basis functions,    53 primitive gaussians,    35 cartesian basis functions
     5 alpha electrons        5 beta electrons
       nuclear repulsion energy        13.3327076237 Hartrees.
 NAtoms=    5 NActive=    5 NUniq=    5 SFac= 1.00D+00 NAtFMM=   60 NAOKFM=F Big=F
 Integral buffers will be    131072 words long.
 Raffenetti 2 integral format.
 Two-electron integral symmetry is turned off.
 Self energy of the charges =         0.0000000000 a.u.
 MM   energy of the charges =         0.0000000000 a.u.
 Nuclei-charges interaction =         1.0170308648 a.u.
 Nuclear repulsion after external point charges =       14.3497384885 Hartrees.
 One-electron integrals computed using PRISM.
   1 Symmetry operations used in ECPInt.
 ECPInt:  NShTT=     171 NPrTT=     553 LenC2=     172 LenP2D=     539.
 LDataN:  DoStor=T MaxTD1= 4 Len=   56
 NBasis=    34 RedAO= T EigKep=  1.42D-02  NBF=    34
 NBsUse=    34 1.00D-06 EigRej= -1.00D+00 NBFU=    34
 Initial guess from the checkpoint file:  "/tmp/tmpf_uf4m5s/Gau-116820.chk"
 B after Tr=     0.000011   -0.000034   -0.000018
         Rot=    1.000000    0.000000    0.000000    0.000000 Ang=   0.00 deg.
 Keep R1 ints in memory in canonical form, NReq=1060299.
 Requested convergence on RMS density matrix=1.00D-08 within 128 cycles.
 Requested convergence on MAX density matrix=1.00D-06.
 Requested convergence on             energy=1.00D-06.
 No special actions if energy rises.
 SCF Done:  E(RPBE1PBE) =  -40.4293892542     A.U. after    5 cycles
            NFock=  5  Conv=0.28D-08     -V/T= 2.0151
   1 Symmetry operations used in ECPInt.
 ECPInt:  NShTT=     171 NPrTT=     553 LenC2=     172 LenP2D=     539.
 LDataN:  DoStor=T MaxTD1= 5 Len=  102
 Calling FoFJK, ICntrl=      2127 FMM=F ISym2X=0 I1Cent= 0 IOpClX= 0 NMat=1 NMatS=1 NMatT=0.
 -------------------------------------------------------------------
 Center     Atomic                   Forces (Hartrees/Bohr)
 Number     Number              X              Y              Z
 -------------------------------------------------------------------
      1        6           0.000077993    0.000053665    0.000066894
      2        1           0.000043968    0.000047831    0.000044337
      3        1           0.000014007    0.000044765    0.000028694
      4        1           0.000037465    0.000020845    0.000029475
      5        1           0.000030072    0.000018872    0.000025848
 -------------------------------------------------------------------
 Cartesian Forces:  Max     0.000077993 RMS     0.000042648

 GradGradGradGradGradGradGradGradGradGradGradGradGradGradGradGradGradGrad
 Berny optimization.
 Search for a local minimum.
 Step number   5 out of a maximum of   25
 All quantities printed in internal units (Hartrees-Bohrs-Radians)
 Update second derivatives using D2CorN and points    1    2    3    5
 DE= -1.09D-08 DEPred=-9.51D-09 R= 1.15D+00
 Trust test= 1.15D+00 RLast= 3.90D-04 DXMaxT set to 3.00D-01
 The second derivative matrix:
                          X1        Y1        Z1        X2        Y2
           X1           0.58332
           Y1          -0.01596   0.64490
           Z1           0.02441  -0.01721   0.64095
           X2          -0.15014   0.13237  -0.02273   0.14699
           Y2           0.14478  -0.24078   0.01042  -0.14056   0.23826
           Z2          -0.03374   0.03439  -0.07338   0.01795  -0.02598
           X3          -0.08427  -0.05456  -0.05404   0.01647   0.00832
           Y3          -0.07709  -0.22510  -0.09676  -0.00649  -0.01459
           Z3          -0.05891  -0.09949  -0.14474   0.00930   0.00150
           X4          -0.05673  -0.00202  -0.04141   0.00124   0.00452
           Y4          -0.00028  -0.09213   0.07922  -0.00510  -0.00041
           Z4          -0.02320   0.06847  -0.31175  -0.00145   0.00513
           X5          -0.27700  -0.06280   0.08417  -0.01429  -0.01056
           Y5          -0.05316  -0.07843   0.02560   0.02030   0.01270
           Z5           0.08217   0.01956  -0.10532  -0.00281   0.00291
                          Z2        X3        Y3        Z3        X4
           Z2           0.05466
           X3           0.02019   0.08119
           Y3          -0.01363   0.07189   0.22357
           Z3           0.00577   0.05313   0.11631   0.13773
           X4          -0.01525  -0.00415   0.00573  -0.00817   0.05092
           Y4           0.02129   0.00093   0.01829  -0.03034  -0.00372
           Z4           0.00959  -0.00023   0.00142  -0.00969   0.03062
           X5           0.00998  -0.00832   0.00304   0.00333   0.01047
           Y5          -0.01723  -0.02496  -0.00019   0.01273  -0.00444
           Z5           0.00329  -0.01860  -0.00456   0.01216   0.03323
                          Y4        Z4        X5        Y5        Z5
           Y4           0.07628
           Z4          -0.07676   0.31099
           X5           0.00758  -0.00257   0.28024
           Y5          -0.00427   0.00113   0.06175   0.06758
           Z5           0.00583  -0.00123  -0.09060  -0.02322   0.08947
 ITU=  0  0  1  1  0
     Eigenvalues ---    0.09302   0.10302   0.11093   0.12777   0.13653
     Eigenvalues ---    0.34240   0.73573   0.76624   0.80786
 RFO step:  Lambda= 0.00000000D+00 EMin= 9.30181809D-02
 Quartic linear search produced a step of  0.14102.
 Variable       Old X    -DE/DX   Delta X   Delta X   Delta X     New X
                                 (Linear)    (Quad)   (Total)
    X1       -0.00528   0.00008   0.00000  -0.00001  -0.00001  -0.00529
    Y1        0.00882   0.00005  -0.00001  -0.00001  -0.00003   0.00879
    Z1        0.01261   0.00007  -0.00001   0.00000  -0.00001   0.01260
    X2       -1.30284   0.00004   0.00002   0.00001   0.00003  -1.30281
    Y2        1.61913   0.00005   0.00001   0.00001   0.00002   1.61916
    Z2       -0.16109   0.00004   0.00002  -0.00002   0.00001  -0.16109
    X3       -0.75228   0.00001  -0.00001   0.00001   0.00000  -0.75228
    Y3       -1.58044   0.00004  -0.00002   0.00001  -0.00001  -1.58045
    Z3       -1.09102   0.00003   0.00000  -0.00001  -0.00001  -1.09103
    X4        0.14369   0.00004  -0.00002   0.00003   0.00001   0.14369
    Y4       -0.57102   0.00002   0.00002   0.00000   0.00002  -0.57100
    Z4        2.00107   0.00003   0.00000   0.00001   0.00001   2.00108
    X5        1.86383   0.00003   0.00000  -0.00002  -0.00002   1.86381
    Y5        0.51950   0.00002   0.00002   0.00000   0.00003   0.51952
    Z5       -0.73465   0.00003   0.00000   0.00002   0.00001  -0.73463
         Item               Value     Threshold  Converged?
 Maximum Force            0.000078     0.000015     NO 
 RMS     Force            0.000043     0.000010     NO 
 Maximum Displacement     0.000027     0.000060     YES
 RMS     Displacement     0.000017     0.000040     YES
 Predicted change in Energy=-3.845762D-10
 GradGradGradGradGradGradGradGradGradGradGradGradGradGradGradGradGradGrad

                          Input orientation:                          
 ---------------------------------------------------------------------
 Center     Atomic      Atomic             Coordinates (Angstroms)
 Number     Number       Type             X           Y           Z
 ---------------------------------------------------------------------
      1          6           0       -0.002798    0.004652    0.006669
      2          1           0       -0.689417    0.856820   -0.085243
      3          1           0       -0.398090   -0.836337   -0.577349
      4          1           0        0.076040   -0.302160    1.058924
      5          1           0        0.986287    0.274921   -0.388751
 ---------------------------------------------------------------------
                    Distance matrix (angstroms):
                    1          2          3          4          5
     1  C    0.000000
     2  H    1.098219   0.000000
     3  H    1.097541   1.787127   0.000000
     4  H    1.098903   1.799522   1.785366   0.000000
     5  H    1.098951   1.799641   1.785207   1.804809   0.000000
 Symmetry turned off by external request.
 Stoichiometry    CH4
 Framework group  C1[X(CH4)]
 Deg. of freedom     9
 Full point group                 C1      NOp   1
 Rotational constants (GHZ):    156.8412272    156.2553554    154.5148203
 Standard basis: def2SVP (5D, 7F)
    34 basis functions,    53 primitive gaussians,    35 cartesian basis functions
     5 alpha electrons        5 beta electrons
       nuclear repulsion energy        13.3327118572 Hartrees.
 NAtoms=    5 NActive=    5 NUniq=    5 SFac= 1.00D+00 NAtFMM=   60 NAOKFM=F Big=F
 Integral buffers will be    131072 words long.
 Raffenetti 2 integral format.
 Two-electron integral symmetry is turned off.
 Self energy of the charges =         0.0000000000 a.u.
 MM   energy of the charges =         0.0000000000 a.u.
 Nuclei-charges interaction =         1.0170301010 a.u.
 Nuclear repulsion after external point charges =       14.3497419581 Hartrees.
 One-electron integrals computed using PRISM.
   1 Symmetry operations used in ECPInt.
 ECPInt:  NShTT=     171 NPrTT=     553 LenC2=     172 LenP2D=     539.
 LDataN:  DoStor=T MaxTD1= 4 Len=   56
 NBasis=    34 RedAO= T EigKep=  1.42D-02  NBF=    34
 NBsUse=    34 1.00D-06 EigRej= -1.00D+00 NBFU=    34
 Initial guess from the checkpoint file:  "/tmp/tmpf_uf4m5s/Gau-116820.chk"
 B after Tr=    -0.000002   -0.000010   -0.000003
         Rot=    1.000000    0.000000    0.000000    0.000000 Ang=   0.00 deg.
 Keep R1 ints in memory in canonical form, NReq=1060299.
 Requested convergence on RMS density matrix=1.00D-08 within 128 cycles.
 Requested convergence on MAX density matrix=1.00D-06.
 Requested convergence on             energy=1.00D-06.
 No special actions if energy rises.
 SCF Done:  E(RPBE1PBE) =  -40.4293892547     A.U. after    4 cycles
            NFock=  4  Conv=0.11D-08     -V/T= 2.0151
   1 Symmetry operations used in ECPInt.
 ECPInt:  NShTT=     171 NPrTT=     553 LenC2=     172 LenP2D=     539.
 LDataN:  DoStor=T MaxTD1= 5 Len=  102
 Calling FoFJK, ICntrl=      2127 FMM=F ISym2X=0 I1Cent= 0 IOpClX= 0 NMat=1 NMatS=1 NMatT=0.
 -------------------------------------------------------------------
 Center     Atomic                   Forces (Hartrees/Bohr)
 Number     Number              X              Y              Z
 -------------------------------------------------------------------
      1        6           0.000077282    0.000068450    0.000073797
      2        1           0.000044864    0.000041563    0.000044028
      3        1           0.000011767    0.000040304    0.000026195
      4        1           0.000036631    0.000018989    0.000027152
      5        1           0.000032927    0.000016656    0.000024046
 -------------------------------------------------------------------
 Cartesian Forces:  Max     0.000077282 RMS     0.000043674

 GradGradGradGradGradGradGradGradGradGradGradGradGradGradGradGradGradGrad
 Berny optimization.
 Search for a local minimum.
 Step number   6 out of a maximum of   25
 All quantities printed in internal units (Hartrees-Bohrs-Radians)
 Update second derivatives using D2CorN and points    1    2    3    6
 DE= -4.88D-10 DEPred=-3.85D-10 R= 1.27D+00
 Trust test= 1.27D+00 RLast= 6.43D-05 DXMaxT set to 3.00D-01
 The second derivative matrix:
                          X1        Y1        Z1        X2        Y2
           X1           0.58359
           Y1          -0.01581   0.64132
           Z1           0.02457  -0.01842   0.64046
           X2          -0.15107   0.13583  -0.02188   0.14827
           Y2           0.14488  -0.23883   0.01100  -0.14268   0.23731
           Z2          -0.03407   0.03660  -0.07271   0.01839  -0.02725
           X3          -0.08493  -0.05305  -0.05375   0.01749   0.00724
           Y3          -0.07743  -0.22568  -0.09692  -0.00583  -0.01447
           Z3          -0.05936  -0.09870  -0.14455   0.00997   0.00083
           X4          -0.05624  -0.00434  -0.04208   0.00014   0.00591
           Y4          -0.00045  -0.09030   0.07984  -0.00553  -0.00139
           Z4          -0.02302   0.06854  -0.31166  -0.00204   0.00529
           X5          -0.27640  -0.06496   0.08363  -0.01504  -0.00931
           Y5          -0.05348  -0.07580   0.02637   0.01988   0.01125
           Z5           0.08241   0.01839  -0.10557  -0.00331   0.00370
                          Z2        X3        Y3        Z3        X4
           Z2           0.05498
           X3           0.02047   0.08203
           Y3          -0.01350   0.07247   0.22393
           Z3           0.00598   0.05370   0.11675   0.13818
           X4          -0.01594  -0.00480   0.00552  -0.00864   0.05210
           Y4           0.02105   0.00076   0.01839  -0.03042  -0.00365
           Z4           0.00929  -0.00062   0.00118  -0.01003   0.03105
           X5           0.00977  -0.00893   0.00270   0.00298   0.01106
           Y5          -0.01752  -0.02506   0.00006   0.01269  -0.00442
           Z5           0.00297  -0.01891  -0.00478   0.01189   0.03380
                          Y4        Z4        X5        Y5        Z5
           Y4           0.07582
           Z4          -0.07692   0.31115
           X5           0.00789  -0.00224   0.28067
           Y5          -0.00489   0.00091   0.06203   0.06673
           Z5           0.00586  -0.00101  -0.09032  -0.02316   0.08971
 ITU=  0  0  0  1  1  0
     Eigenvalues ---    0.09139   0.10314   0.11105   0.12723   0.13660
     Eigenvalues ---    0.34538   0.73618   0.76409   0.80766
 RFO step:  Lambda= 0.00000000D+00 EMin= 9.13910774D-02
 Quartic linear search produced a step of  0.16021.
 Variable       Old X    -DE/DX   Delta X   Delta X   Delta X     New X
                                 (Linear)    (Quad)   (Total)
    X1       -0.00529   0.00008   0.00000   0.00000   0.00000  -0.00529
    Y1        0.00879   0.00007   0.00000   0.00000  -0.00001   0.00879
    Z1        0.01260   0.00007   0.00000   0.00000   0.00000   0.01260
    X2       -1.30281   0.00004   0.00000   0.00000   0.00000  -1.30281
    Y2        1.61916   0.00004   0.00000   0.00000   0.00000   1.61916
    Z2       -0.16109   0.00004   0.00000   0.00000   0.00000  -0.16109
    X3       -0.75228   0.00001   0.00000  -0.00001  -0.00001  -0.75229
    Y3       -1.58045   0.00004   0.00000   0.00000   0.00000  -1.58045
    Z3       -1.09103   0.00003   0.00000   0.00000   0.00000  -1.09104
    X4        0.14369   0.00004   0.00000   0.00000   0.00000   0.14370
    Y4       -0.57100   0.00002   0.00000   0.00000   0.00001  -0.57099
    Z4        2.00108   0.00003   0.00000   0.00000   0.00000   2.00108
    X5        1.86381   0.00003   0.00000   0.00000   0.00000   1.86381
    Y5        0.51952   0.00002   0.00000   0.00000   0.00001   0.51953
    Z5       -0.73463   0.00002   0.00000   0.00000   0.00001  -0.73463
         Item               Value     Threshold  Converged?
 Maximum Force            0.000077     0.000015     NO 
 RMS     Force            0.000044     0.000010     NO 
 Maximum Displacement     0.000007     0.000060     YES
 RMS     Displacement     0.000004     0.000040     YES
 Predicted change in Energy=-1.326377D-11
 GradGradGradGradGradGradGradGradGradGradGradGradGradGradGradGradGradGrad

                          Input orientation:                          
 ---------------------------------------------------------------------
 Center     Atomic      Atomic             Coordinates (Angstroms)
 Number     Number       Type             X           Y           Z
 ---------------------------------------------------------------------
      1          6           0       -0.002798    0.004649    0.006668
      2          1           0       -0.689415    0.856821   -0.085243
      3          1           0       -0.398094   -0.836339   -0.577351
      4          1           0        0.076042   -0.302156    1.058925
      5          1           0        0.986287    0.274924   -0.388748
 ---------------------------------------------------------------------
                    Distance matrix (angstroms):
                    1          2          3          4          5
     1  C    0.000000
     2  H    1.098219   0.000000
     3  H    1.097542   1.787128   0.000000
     4  H    1.098903   1.799519   1.785372   0.000000
     5  H    1.098951   1.799638   1.785214   1.804806   0.000000
 Symmetry turned off by external request.
 Stoichiometry    CH4
 Framework group  C1[X(CH4)]
 Deg. of freedom     9
 Full point group                 C1      NOp   1
 Rotational constants (GHZ):    156.8407504    156.2548157    154.5153445
 Standard basis: def2SVP (5D, 7F)
    34 basis functions,    53 primitive gaussians,    35 cartesian basis functions
     5 alpha electrons        5 beta electrons
       nuclear repulsion energy        13.3327050926 Hartrees.
 NAtoms=    5 NActive=    5 NUniq=    5 SFac= 1.00D+00 NAtFMM=   60 NAOKFM=F Big=F
 Integral buffers will be    131072 words long.
 Raffenetti 2 integral format.
 Two-electron integral symmetry is turned off.
 Self energy of the charges =         0.0000000000 a.u.
 MM   energy of the charges =         0.0000000000 a.u.
 Nuclei-charges interaction =         1.0170300009 a.u.
 Nuclear repulsion after external point charges =       14.3497350935 Hartrees.
 One-electron integrals computed using PRISM.
   1 Symmetry operations used in ECPInt.
 ECPInt:  NShTT=     171 NPrTT=     553 LenC2=     172 LenP2D=     539.
 LDataN:  DoStor=T MaxTD1= 4 Len=   56
 NBasis=    34 RedAO= T EigKep=  1.42D-02  NBF=    34
 NBsUse=    34 1.00D-06 EigRej= -1.00D+00 NBFU=    34
 Initial guess from the checkpoint file:  "/tmp/tmpf_uf4m5s/Gau-116820.chk"
 B after Tr=     0.000000   -0.000002   -0.000001
         Rot=    1.000000    0.000000    0.000000    0.000000 Ang=   0.00 deg.
 Keep R1 ints in memory in canonical form, NReq=1060299.
 Requested convergence on RMS density matrix=1.00D-08 within 128 cycles.
 Requested convergence on MAX density matrix=1.00D-06.
 Requested convergence on             energy=1.00D-06.
 No special actions if energy rises.
 SCF Done:  E(RPBE1PBE) =  -40.4293892547     A.U. after    3 cycles
            NFock=  3  Conv=0.67D-08     -V/T= 2.0151
   1 Symmetry operations used in ECPInt.
 ECPInt:  NShTT=     171 NPrTT=     553 LenC2=     172 LenP2D=     539.
 LDataN:  DoStor=T MaxTD1= 5 Len=  102
 Calling FoFJK, ICntrl=      2127 FMM=F ISym2X=0 I1Cent= 0 IOpClX= 0 NMat=1 NMatS=1 NMatT=0.
 -------------------------------------------------------------------
 Center     Atomic                   Forces (Hartrees/Bohr)
 Number     Number              X              Y              Z
 -------------------------------------------------------------------
      1        6           0.000077468    0.000070070    0.000074018
      2        1           0.000044790    0.000041060    0.000043954
      3        1           0.000012381    0.000040584    0.000026629
      4        1           0.000036315    0.000018367    0.000026949
      5        1           0.000032509    0.000015875    0.000023663
 -------------------------------------------------------------------
 Cartesian Forces:  Max     0.000077468 RMS     0.000043798

 GradGradGradGradGradGradGradGradGradGradGradGradGradGradGradGradGradGrad
 Berny optimization.
 Search for a local minimum.
 Step number   7 out of a maximum of   25
 All quantities printed in internal units (Hartrees-Bohrs-Radians)
 Update second derivatives using D2CorN and points    1    2    3    7
 DE= -1.82D-11 DEPred=-1.33D-11 R= 1.37D+00
 Trust test= 1.37D+00 RLast= 1.66D-05 DXMaxT set to 3.00D-01
 The second derivative matrix:
                          X1        Y1        Z1        X2        Y2
           X1           0.58384
           Y1          -0.01583   0.63926
           Z1           0.02460  -0.01907   0.64022
           X2          -0.15166   0.13785  -0.02134   0.14927
           Y2           0.14498  -0.23749   0.01140  -0.14379   0.23658
           Z2          -0.03423   0.03777  -0.07234   0.01874  -0.02778
           X3          -0.08537  -0.05218  -0.05356   0.01821   0.00664
           Y3          -0.07765  -0.22623  -0.09712  -0.00560  -0.01440
           Z3          -0.05965  -0.09842  -0.14451   0.01034   0.00051
           X4          -0.05598  -0.00548  -0.04242  -0.00062   0.00644
           Y4          -0.00050  -0.08931   0.08017  -0.00575  -0.00188
           Z4          -0.02287   0.06867  -0.31158  -0.00239   0.00533
           X5          -0.27604  -0.06621   0.08330  -0.01562  -0.00865
           Y5          -0.05364  -0.07426   0.02684   0.01978   0.01046
           Z5           0.08258   0.01777  -0.10573  -0.00371   0.00405
                          Z2        X3        Y3        Z3        X4
           Z2           0.05517
           X3           0.02066   0.08261
           Y3          -0.01357   0.07280   0.22432
           Z3           0.00604   0.05407   0.11706   0.13848
           X4          -0.01633  -0.00523   0.00559  -0.00882   0.05273
           Y4           0.02094   0.00066   0.01841  -0.03047  -0.00363
           Z4           0.00916  -0.00089   0.00102  -0.01023   0.03123
           X5           0.00956  -0.00933   0.00260   0.00279   0.01150
           Y5          -0.01759  -0.02508   0.00011   0.01266  -0.00452
           Z5           0.00276  -0.01915  -0.00481   0.01176   0.03415
                          Y4        Z4        X5        Y5        Z5
           Y4           0.07557
           Z4          -0.07699   0.31126
           X5           0.00803  -0.00205   0.28099
           Y5          -0.00521   0.00079   0.06211   0.06633
           Z5           0.00587  -0.00091  -0.09009  -0.02319   0.08987
 ITU=  0  0  0  0  1  1  0
     Eigenvalues ---    0.09086   0.10313   0.11116   0.12701   0.13663
     Eigenvalues ---    0.34707   0.73654   0.76301   0.80757
 RFO step:  Lambda= 0.00000000D+00 EMin= 9.08646181D-02
 Skip linear search -- no minimum in search direction.
 Variable       Old X    -DE/DX   Delta X   Delta X   Delta X     New X
                                 (Linear)    (Quad)   (Total)
    X1       -0.00529   0.00008   0.00000   0.00000   0.00000  -0.00529
    Y1        0.00879   0.00007   0.00000   0.00000   0.00000   0.00879
    Z1        0.01260   0.00007   0.00000   0.00000   0.00000   0.01260
    X2       -1.30281   0.00004   0.00000   0.00000   0.00000  -1.30281
    Y2        1.61916   0.00004   0.00000   0.00000   0.00000   1.61916
    Z2       -0.16109   0.00004   0.00000   0.00000   0.00000  -0.16109
    X3       -0.75229   0.00001   0.00000   0.00000   0.00000  -0.75229
    Y3       -1.58045   0.00004   0.00000   0.00000   0.00000  -1.58045
    Z3       -1.09104   0.00003   0.00000   0.00000   0.00000  -1.09104
    X4        0.14370   0.00004   0.00000   0.00000   0.00000   0.14370
    Y4       -0.57099   0.00002   0.00000   0.00000   0.00000  -0.57099
    Z4        2.00108   0.00003   0.00000   0.00000   0.00000   2.00108
    X5        1.86381   0.00003   0.00000   0.00000   0.00000   1.86381
    Y5        0.51953   0.00002   0.00000   0.00000   0.00000   0.51953
    Z5       -0.73463   0.00002   0.00000   0.00000   0.00000  -0.73463
         Item               Value     Threshold  Converged?
 Maximum Force            0.000077     0.000015     NO 
 RMS     Force            0.000044     0.000010     NO 
 Maximum Displacement     0.000001     0.000060     YES
 RMS     Displacement     0.000000     0.000040     YES
 Predicted change in Energy=-2.613920D-13
 GradGradGradGradGradGradGradGradGradGradGradGradGradGradGradGradGradGrad

                          Input orientation:                          
 ---------------------------------------------------------------------
 Center     Atomic      Atomic             Coordinates (Angstroms)
 Number     Number       Type             X           Y           Z
 ---------------------------------------------------------------------
      1          6           0       -0.002799    0.004649    0.006668
      2          1           0       -0.689415    0.856821   -0.085243
      3          1           0       -0.398094   -0.836338   -0.577351
      4          1           0        0.076042   -0.302156    1.058925
      5          1           0        0.986287    0.274924   -0.388748
 ---------------------------------------------------------------------
                    Distance matrix (angstroms):
                    1          2          3          4          5
     1  C    0.000000
     2  H    1.098220   0.000000
     3  H    1.097541   1.787128   0.000000
     4  H    1.098903   1.799520   1.785372   0.000000
     5  H    1.098951   1.799638   1.785214   1.804806   0.000000
 Symmetry turned off by external request.
 Stoichiometry    CH4
 Framework group  C1[X(CH4)]
 Deg. of freedom     9
 Full point group                 C1      NOp   1
 Rotational constants (GHZ):    156.8407019    156.2548434    154.5153664
 Standard basis: def2SVP (5D, 7F)
    34 basis functions,    53 primitive gaussians,    35 cartesian basis functions
     5 alpha electrons        5 beta electrons
       nuclear repulsion energy        13.3327051246 Hartrees.
 NAtoms=    5 NActive=    5 NUniq=    5 SFac= 1.00D+00 NAtFMM=   60 NAOKFM=F Big=F
 Integral buffers will be    131072 words long.
 Raffenetti 2 integral format.
 Two-electron integral symmetry is turned off.
 Self energy of the charges =         0.0000000000 a.u.
 MM   energy of the charges =         0.0000000000 a.u.
 Nuclei-charges interaction =         1.0170299904 a.u.
 Nuclear repulsion after external point charges =       14.3497351150 Hartrees.
 One-electron integrals computed using PRISM.
   1 Symmetry operations used in ECPInt.
 ECPInt:  NShTT=     171 NPrTT=     553 LenC2=     172 LenP2D=     539.
 LDataN:  DoStor=T MaxTD1= 4 Len=   56
 NBasis=    34 RedAO= T EigKep=  1.42D-02  NBF=    34
 NBsUse=    34 1.00D-06 EigRej= -1.00D+00 NBFU=    34
 Initial guess from the checkpoint file:  "/tmp/tmpf_uf4m5s/Gau-116820.chk"
 B after Tr=     0.000000    0.000000    0.000000
         Rot=    1.000000    0.000000    0.000000    0.000000 Ang=   0.00 deg.
 Keep R1 ints in memory in canonical form, NReq=1060299.
 Requested convergence on RMS density matrix=1.00D-08 within 128 cycles.
 Requested convergence on MAX density matrix=1.00D-06.
 Requested convergence on             energy=1.00D-06.
 No special actions if energy rises.
 SCF Done:  E(RPBE1PBE) =  -40.4293892547     A.U. after    1 cycles
            NFock=  1  Conv=0.82D-08     -V/T= 2.0151
   1 Symmetry operations used in ECPInt.
 ECPInt:  NShTT=     171 NPrTT=     553 LenC2=     172 LenP2D=     539.
 LDataN:  DoStor=T MaxTD1= 5 Len=  102
 Calling FoFJK, ICntrl=      2127 FMM=F ISym2X=0 I1Cent= 0 IOpClX= 0 NMat=1 NMatS=1 NMatT=0.
 -------------------------------------------------------------------
 Center     Atomic                   Forces (Hartrees/Bohr)
 Number     Number              X              Y              Z
 -------------------------------------------------------------------
      1        6           0.000077485    0.000070405    0.000074161
      2        1           0.000044893    0.000040950    0.000043992
      3        1           0.000012346    0.000040401    0.000026565
      4        1           0.000036232    0.000018330    0.000026903
      5        1           0.000032506    0.000015871    0.000023591
 -------------------------------------------------------------------
 Cartesian Forces:  Max     0.000077485 RMS     0.000043830

 GradGradGradGradGradGradGradGradGradGradGradGradGradGradGradGradGradGrad
 Berny optimization.
 Search for a local minimum.
 Step number   8 out of a maximum of   25
 All quantities printed in internal units (Hartrees-Bohrs-Radians)
 Update second derivatives using D2CorN and points    1    2    3    8
 Trust test= 0.00D+00 RLast= 1.58D-06 DXMaxT set to 3.00D-01
 The second derivative matrix:
                          X1        Y1        Z1        X2        Y2
           X1           0.58401
           Y1          -0.01586   0.63815
           Z1           0.02461  -0.01940   0.64011
           X2          -0.15200   0.13896  -0.02102   0.14988
           Y2           0.14507  -0.23662   0.01167  -0.14434   0.23614
           Z2          -0.03429   0.03839  -0.07212   0.01896  -0.02799
           X3          -0.08566  -0.05172  -0.05347   0.01864   0.00631
           Y3          -0.07784  -0.22672  -0.09733  -0.00555  -0.01441
           Z3          -0.05985  -0.09839  -0.14455   0.01053   0.00033
           X4          -0.05584  -0.00606  -0.04261  -0.00104   0.00663
           Y4          -0.00051  -0.08877   0.08035  -0.00587  -0.00213
           Z4          -0.02276   0.06882  -0.31150  -0.00257   0.00535
           X5          -0.27584  -0.06689   0.08311  -0.01597  -0.00832
           Y5          -0.05370  -0.07338   0.02711   0.01975   0.01006
           Z5           0.08268   0.01744  -0.10582  -0.00395   0.00419
                          Z2        X3        Y3        Z3        X4
           Z2           0.05529
           X3           0.02076   0.08298
           Y3          -0.01369   0.07301   0.22475
           Z3           0.00603   0.05431   0.11734   0.13870
           X4          -0.01654  -0.00545   0.00572  -0.00886   0.05305
           Y4           0.02088   0.00060   0.01839  -0.03052  -0.00363
           Z4           0.00913  -0.00106   0.00087  -0.01037   0.03128
           X5           0.00942  -0.00957   0.00261   0.00271   0.01176
           Y5          -0.01760  -0.02509   0.00007   0.01262  -0.00461
           Z5           0.00264  -0.01929  -0.00478   0.01172   0.03433
                          Y4        Z4        X5        Y5        Z5
           Y4           0.07544
           Z4          -0.07702   0.31133
           X5           0.00809  -0.00197   0.28119
           Y5          -0.00538   0.00074   0.06212   0.06614
           Z5           0.00587  -0.00086  -0.08995  -0.02323   0.08997
 ITU=  0  0  0  0  0  1  1  0
     Eigenvalues ---    0.09073   0.10312   0.11124   0.12690   0.13664
     Eigenvalues ---    0.34805   0.73682   0.76256   0.80753
 RFO step:  Lambda= 0.00000000D+00 EMin= 9.07288307D-02
 Skip linear search -- no minimum in search direction.
 Variable       Old X    -DE/DX   Delta X   Delta X   Delta X     New X
                                 (Linear)    (Quad)   (Total)
    X1       -0.00529   0.00008   0.00000   0.00000   0.00000  -0.00529
    Y1        0.00879   0.00007   0.00000   0.00000   0.00000   0.00879
    Z1        0.01260   0.00007   0.00000   0.00000   0.00000   0.01260
    X2       -1.30281   0.00004   0.00000   0.00000   0.00000  -1.30281
    Y2        1.61916   0.00004   0.00000   0.00000   0.00000   1.61916
    Z2       -0.16109   0.00004   0.00000   0.00000   0.00000  -0.16109
    X3       -0.75229   0.00001   0.00000   0.00000   0.00000  -0.75229
    Y3       -1.58045   0.00004   0.00000   0.00000   0.00000  -1.58045
    Z3       -1.09104   0.00003   0.00000   0.00000   0.00000  -1.09104
    X4        0.14370   0.00004   0.00000   0.00000   0.00000   0.14370
    Y4       -0.57099   0.00002   0.00000   0.00000   0.00000  -0.57099
    Z4        2.00108   0.00003   0.00000   0.00000   0.00000   2.00108
    X5        1.86381   0.00003   0.00000   0.00000   0.00000   1.86381
    Y5        0.51953   0.00002   0.00000   0.00000   0.00000   0.51953
    Z5       -0.73463   0.00002   0.00000   0.00000   0.00000  -0.73463
         Item               Value     Threshold  Converged?
 Maximum Force            0.000077     0.000015     NO 
 RMS     Force            0.000044     0.000010     NO 
 Maximum Displacement     0.000000     0.000060     YES
 RMS     Displacement     0.000000     0.000040     YES
 Predicted change in Energy=-1.924562D-14
 GradGradGradGradGradGradGradGradGradGradGradGradGradGradGradGradGradGrad

                          Input orientation:                          
 ---------------------------------------------------------------------
 Center     Atomic      Atomic             Coordinates (Angstroms)
 Number     Number       Type             X           Y           Z
 ---------------------------------------------------------------------
      1          6           0       -0.002799    0.004649    0.006668
      2          1           0       -0.689415    0.856821   -0.085243
      3          1           0       -0.398094   -0.836338   -0.577351
      4          1           0        0.076043   -0.302156    1.058925
      5          1           0        0.986287    0.274925   -0.388748
 ---------------------------------------------------------------------
                    Distance matrix (angstroms):
                    1          2          3          4          5
     1  C    0.000000
     2  H    1.098220   0.000000
     3  H    1.097541   1.787128   0.000000
     4  H    1.098903   1.799520   1.785373   0.000000
     5  H    1.098951   1.799638   1.785214   1.804806   0.000000
 Symmetry turned off by external request.
 Stoichiometry    CH4
 Framework group  C1[X(CH4)]
 Deg. of freedom     9
 Full point group                 C1      NOp   1
 Rotational constants (GHZ):    156.8406851    156.2548299    154.5153821
 Standard basis: def2SVP (5D, 7F)
    34 basis functions,    53 primitive gaussians,    35 cartesian basis functions
     5 alpha electrons        5 beta electrons
[...]
     5 alpha electrons        5 beta electrons
       nuclear repulsion energy        13.3327049121 Hartrees.
 NAtoms=    5 NActive=    5 NUniq=    5 SFac= 1.00D+00 NAtFMM=   60 NAOKFM=F Big=F
 Integral buffers will be    131072 words long.
 Raffenetti 2 integral format.
 Two-electron integral symmetry is turned off.
 Self energy of the charges =         0.0000000000 a.u.
 MM   energy of the charges =         0.0000000000 a.u.
 Nuclei-charges interaction =         1.0170299862 a.u.
 Nuclear repulsion after external point charges =       14.3497348983 Hartrees.
 One-electron integrals computed using PRISM.
   1 Symmetry operations used in ECPInt.
 ECPInt:  NShTT=     171 NPrTT=     553 LenC2=     172 LenP2D=     539.
 LDataN:  DoStor=T MaxTD1= 4 Len=   56
 NBasis=    34 RedAO= T EigKep=  1.42D-02  NBF=    34
 NBsUse=    34 1.00D-06 EigRej= -1.00D+00 NBFU=    34
 Initial guess from the checkpoint file:  "/tmp/tmpf_uf4m5s/Gau-116820.chk"
 B after Tr=     0.000000    0.000000    0.000000
         Rot=    1.000000    0.000000    0.000000    0.000000 Ang=   0.00 deg.
 Keep R1 ints in memory in canonical form, NReq=1060299.
 Requested convergence on RMS density matrix=1.00D-08 within 128 cycles.
 Requested convergence on MAX density matrix=1.00D-06.
 Requested convergence on             energy=1.00D-06.
 No special actions if energy rises.
 SCF Done:  E(RPBE1PBE) =  -40.4293892547     A.U. after    1 cycles
            NFock=  1  Conv=0.12D-08     -V/T= 2.0151
   1 Symmetry operations used in ECPInt.
 ECPInt:  NShTT=     171 NPrTT=     553 LenC2=     172 LenP2D=     539.
 LDataN:  DoStor=T MaxTD1= 5 Len=  102
 Calling FoFJK, ICntrl=      2127 FMM=F ISym2X=0 I1Cent= 0 IOpClX= 0 NMat=1 NMatS=1 NMatT=0.
 -------------------------------------------------------------------
 Center     Atomic                   Forces (Hartrees/Bohr)
 Number     Number              X              Y              Z
 -------------------------------------------------------------------
      1        6           0.000077499    0.000070475    0.000074176
      2        1           0.000044896    0.000040935    0.000043996
      3        1           0.000012368    0.000040394    0.000026581
      4        1           0.000036207    0.000018303    0.000026892
      5        1           0.000032492    0.000015848    0.000023567
 -------------------------------------------------------------------
 Cartesian Forces:  Max     0.000077499 RMS     0.000043836

 GradGradGradGradGradGradGradGradGradGradGradGradGradGradGradGradGradGrad
 Berny optimization.
 Search for a local minimum.
 Step number  24 out of a maximum of   25
 All quantities printed in internal units (Hartrees-Bohrs-Radians)
 Update second derivatives using D2CorN and points    9
 Trust test= 0.00D+00 RLast= 2.16D-07 DXMaxT set to 3.00D-01
 The second derivative matrix:
                          X1        Y1        Z1        X2        Y2
           X1           0.58468
           Y1          -0.01524   0.63677
           Z1           0.02491  -0.02002   0.63974
           X2          -0.15242   0.13989  -0.02089   0.15055
           Y2           0.14542  -0.23487   0.01238  -0.14477   0.23554
           Z2          -0.03394   0.03994  -0.07145   0.01932  -0.02802
           X3          -0.08650  -0.05237  -0.05398   0.01900   0.00587
           Y3          -0.07911  -0.22923  -0.09850  -0.00571  -0.01479
           Z3          -0.06073  -0.09964  -0.14523   0.01058  -0.00001
           X4          -0.05607  -0.00719  -0.04303  -0.00154   0.00650
           Y4          -0.00031  -0.08746   0.08096  -0.00585  -0.00243
           Z4          -0.02223   0.06991  -0.31093  -0.00264   0.00541
           X5          -0.27566  -0.06730   0.08316  -0.01626  -0.00820
           Y5          -0.05350  -0.07174   0.02776   0.01986   0.00968
           Z5           0.08269   0.01711  -0.10586  -0.00419   0.00418
                          Z2        X3        Y3        Z3        X4
           Z2           0.05579
           X3           0.02052   0.08372
           Y3          -0.01483   0.07416   0.22749
           Z3           0.00544   0.05507   0.11892   0.13964
           X4          -0.01716  -0.00526   0.00692  -0.00826   0.05373
           Y4           0.02092   0.00050   0.01804  -0.03072  -0.00382
           Z4           0.00941  -0.00150  -0.00002  -0.01091   0.03094
           X5           0.00907  -0.00956   0.00302   0.00291   0.01210
           Y5          -0.01735  -0.02528  -0.00058   0.01226  -0.00501
           Z5           0.00236  -0.01925  -0.00436   0.01192   0.03462
                          Y4        Z4        X5        Y5        Z5
           Y4           0.07523
           Z4          -0.07701   0.31160
           X5           0.00793  -0.00210   0.28123
           Y5          -0.00551   0.00086   0.06195   0.06609
           Z5           0.00574  -0.00100  -0.08985  -0.02341   0.09007
 ITU=  0  0  0  0  0  0  0  0  0  0  0  0  0  0  0  0
     Eigenvalues ---    0.09190   0.10307   0.11131   0.12640   0.13649
     Eigenvalues ---    0.34991   0.73819   0.76363   0.80743
 RFO step:  Lambda= 0.00000000D+00 EMin= 9.19013193D-02
 Skip linear search -- no minimum in search direction.
 Variable       Old X    -DE/DX   Delta X   Delta X   Delta X     New X
                                 (Linear)    (Quad)   (Total)
    X1       -0.00529   0.00008   0.00000   0.00000   0.00000  -0.00529
    Y1        0.00879   0.00007   0.00000   0.00000   0.00000   0.00879
    Z1        0.01260   0.00007   0.00000   0.00000   0.00000   0.01260
    X2       -1.30281   0.00004   0.00000   0.00000   0.00000  -1.30281
    Y2        1.61916   0.00004   0.00000   0.00000   0.00000   1.61916
    Z2       -0.16109   0.00004   0.00000   0.00000   0.00000  -0.16109
    X3       -0.75229   0.00001   0.00000   0.00000   0.00000  -0.75229
    Y3       -1.58045   0.00004   0.00000   0.00000   0.00000  -1.58045
    Z3       -1.09104   0.00003   0.00000   0.00000   0.00000  -1.09104
    X4        0.14370   0.00004   0.00000   0.00000   0.00000   0.14370
    Y4       -0.57099   0.00002   0.00000   0.00000   0.00000  -0.57099
    Z4        2.00108   0.00003   0.00000   0.00000   0.00000   2.00108
    X5        1.86381   0.00003   0.00000   0.00000   0.00000   1.86381
    Y5        0.51953   0.00002   0.00000   0.00000   0.00000   0.51953
    Z5       -0.73463   0.00002   0.00000   0.00000   0.00000  -0.73463
         Item               Value     Threshold  Converged?
 Maximum Force            0.000077     0.000015     NO 
 RMS     Force            0.000044     0.000010     NO 
 Maximum Displacement     0.000000     0.000060     YES
 RMS     Displacement     0.000000     0.000040     YES
 Predicted change in Energy=-9.825251D-17
 GradGradGradGradGradGradGradGradGradGradGradGradGradGradGradGradGradGrad

                          Input orientation:                          
 ---------------------------------------------------------------------
 Center     Atomic      Atomic             Coordinates (Angstroms)
 Number     Number       Type             X           Y           Z
 ---------------------------------------------------------------------
      1          6           0       -0.002799    0.004649    0.006668
      2          1           0       -0.689415    0.856821   -0.085243
      3          1           0       -0.398094   -0.836338   -0.577351
      4          1           0        0.076043   -0.302156    1.058925
      5          1           0        0.986287    0.274925   -0.388748
 ---------------------------------------------------------------------
                    Distance matrix (angstroms):
                    1          2          3          4          5
     1  C    0.000000
     2  H    1.098220   0.000000
     3  H    1.097541   1.787128   0.000000
     4  H    1.098903   1.799520   1.785373   0.000000
     5  H    1.098951   1.799638   1.785214   1.804806   0.000000
 Symmetry turned off by external request.
 Stoichiometry    CH4
 Framework group  C1[X(CH4)]
 Deg. of freedom     9
 Full point group                 C1      NOp   1
 Rotational constants (GHZ):    156.8406770    156.2548280    154.5153859
 Standard basis: def2SVP (5D, 7F)
    34 basis functions,    53 primitive gaussians,    35 cartesian basis functions
     5 alpha electrons        5 beta electrons
       nuclear repulsion energy        13.3327048382 Hartrees.
 NAtoms=    5 NActive=    5 NUniq=    5 SFac= 1.00D+00 NAtFMM=   60 NAOKFM=F Big=F
 Integral buffers will be    131072 words long.
 Raffenetti 2 integral format.
 Two-electron integral symmetry is turned off.
 Self energy of the charges =         0.0000000000 a.u.
 MM   energy of the charges =         0.0000000000 a.u.
 Nuclei-charges interaction =         1.0170299863 a.u.
 Nuclear repulsion after external point charges =       14.3497348245 Hartrees.
 One-electron integrals computed using PRISM.
   1 Symmetry operations used in ECPInt.
 ECPInt:  NShTT=     171 NPrTT=     553 LenC2=     172 LenP2D=     539.
 LDataN:  DoStor=T MaxTD1= 4 Len=   56
 NBasis=    34 RedAO= T EigKep=  1.42D-02  NBF=    34
 NBsUse=    34 1.00D-06 EigRej= -1.00D+00 NBFU=    34
 Initial guess from the checkpoint file:  "/tmp/tmpf_uf4m5s/Gau-116820.chk"
 B after Tr=     0.000000    0.000000    0.000000
         Rot=    1.000000    0.000000    0.000000    0.000000 Ang=   0.00 deg.
 Keep R1 ints in memory in canonical form, NReq=1060299.
 Requested convergence on RMS density matrix=1.00D-08 within 128 cycles.
 Requested convergence on MAX density matrix=1.00D-06.
 Requested convergence on             energy=1.00D-06.
 No special actions if energy rises.
 SCF Done:  E(RPBE1PBE) =  -40.4293892547     A.U. after    1 cycles
            NFock=  1  Conv=0.86D-09     -V/T= 2.0151
   1 Symmetry operations used in ECPInt.
 ECPInt:  NShTT=     171 NPrTT=     553 LenC2=     172 LenP2D=     539.
 LDataN:  DoStor=T MaxTD1= 5 Len=  102
 Calling FoFJK, ICntrl=      2127 FMM=F ISym2X=0 I1Cent= 0 IOpClX= 0 NMat=1 NMatS=1 NMatT=0.
 -------------------------------------------------------------------
 Center     Atomic                   Forces (Hartrees/Bohr)
 Number     Number              X              Y              Z
 -------------------------------------------------------------------
      1        6           0.000077499    0.000070473    0.000074175
      2        1           0.000044901    0.000040930    0.000043996
      3        1           0.000012372    0.000040402    0.000026586
      4        1           0.000036207    0.000018306    0.000026884
      5        1           0.000032483    0.000015846    0.000023571
 -------------------------------------------------------------------
 Cartesian Forces:  Max     0.000077499 RMS     0.000043836

 GradGradGradGradGradGradGradGradGradGradGradGradGradGradGradGradGradGrad
 Berny optimization.
 Search for a local minimum.
 Step number  25 out of a maximum of   25
 All quantities printed in internal units (Hartrees-Bohrs-Radians)
 Update second derivatives using D2CorN and points    9
 Trust test= 0.00D+00 RLast= 2.10D-07 DXMaxT set to 3.00D-01
 The second derivative matrix:
                          X1        Y1        Z1        X2        Y2
           X1           0.58468
           Y1          -0.01524   0.63677
           Z1           0.02491  -0.02002   0.63974
           X2          -0.15242   0.13989  -0.02089   0.15055
           Y2           0.14542  -0.23487   0.01238  -0.14477   0.23554
           Z2          -0.03394   0.03994  -0.07145   0.01932  -0.02802
           X3          -0.08650  -0.05237  -0.05398   0.01900   0.00587
           Y3          -0.07911  -0.22923  -0.09850  -0.00571  -0.01479
           Z3          -0.06073  -0.09964  -0.14523   0.01058  -0.00001
           X4          -0.05607  -0.00719  -0.04303  -0.00154   0.00650
           Y4          -0.00031  -0.08746   0.08096  -0.00585  -0.00243
           Z4          -0.02223   0.06991  -0.31093  -0.00264   0.00541
           X5          -0.27566  -0.06730   0.08316  -0.01626  -0.00820
           Y5          -0.05350  -0.07174   0.02776   0.01986   0.00968
           Z5           0.08269   0.01711  -0.10586  -0.00419   0.00418
                          Z2        X3        Y3        Z3        X4
           Z2           0.05579
           X3           0.02052   0.08372
           Y3          -0.01483   0.07416   0.22749
           Z3           0.00544   0.05507   0.11892   0.13964
           X4          -0.01716  -0.00526   0.00692  -0.00826   0.05373
           Y4           0.02092   0.00050   0.01804  -0.03072  -0.00382
           Z4           0.00941  -0.00150  -0.00002  -0.01091   0.03094
           X5           0.00907  -0.00956   0.00302   0.00291   0.01210
           Y5          -0.01735  -0.02528  -0.00058   0.01226  -0.00501
           Z5           0.00236  -0.01925  -0.00436   0.01192   0.03462
                          Y4        Z4        X5        Y5        Z5
           Y4           0.07523
           Z4          -0.07701   0.31160
           X5           0.00793  -0.00210   0.28123
           Y5          -0.00551   0.00086   0.06195   0.06609
           Z5           0.00574  -0.00100  -0.08985  -0.02341   0.09007
 ITU=  0  0  0  0  0  0  0  0  0  0  0  0  0  0  0  0
     Eigenvalues ---    0.09190   0.10307   0.11131   0.12640   0.13649
     Eigenvalues ---    0.34991   0.73819   0.76363   0.80743
 RFO step:  Lambda= 0.00000000D+00 EMin= 9.19013193D-02
 Skip linear search -- no minimum in search direction.
 Variable       Old X    -DE/DX   Delta X   Delta X   Delta X     New X
                                 (Linear)    (Quad)   (Total)
    X1       -0.00529   0.00008   0.00000   0.00000   0.00000  -0.00529
    Y1        0.00879   0.00007   0.00000   0.00000   0.00000   0.00879
    Z1        0.01260   0.00007   0.00000   0.00000   0.00000   0.01260
    X2       -1.30281   0.00004   0.00000   0.00000   0.00000  -1.30281
    Y2        1.61916   0.00004   0.00000   0.00000   0.00000   1.61916
    Z2       -0.16109   0.00004   0.00000   0.00000   0.00000  -0.16109
    X3       -0.75229   0.00001   0.00000   0.00000   0.00000  -0.75229
    Y3       -1.58045   0.00004   0.00000   0.00000   0.00000  -1.58045
    Z3       -1.09104   0.00003   0.00000   0.00000   0.00000  -1.09104
    X4        0.14370   0.00004   0.00000   0.00000   0.00000   0.14370
    Y4       -0.57099   0.00002   0.00000   0.00000   0.00000  -0.57099
    Z4        2.00108   0.00003   0.00000   0.00000   0.00000   2.00108
    X5        1.86381   0.00003   0.00000   0.00000   0.00000   1.86381
    Y5        0.51953   0.00002   0.00000   0.00000   0.00000   0.51953
    Z5       -0.73463   0.00002   0.00000   0.00000   0.00000  -0.73463
         Item               Value     Threshold  Converged?
 Maximum Force            0.000077     0.000015     NO 
 RMS     Force            0.000044     0.000010     NO 
 Maximum Displacement     0.000000     0.000060     YES
 RMS     Displacement     0.000000     0.000040     YES
 Predicted change in Energy=-1.467013D-16
 Optimization stopped.
    -- Number of steps exceeded,  NStep=  25
    -- Flag reset to prevent archiving.
 GradGradGradGradGradGradGradGradGradGradGradGradGradGradGradGradGradGrad

                          Input orientation:                          
 ---------------------------------------------------------------------
 Center     Atomic      Atomic             Coordinates (Angstroms)
 Number     Number       Type             X           Y           Z
 ---------------------------------------------------------------------
      1          6           0       -0.002799    0.004649    0.006668
      2          1           0       -0.689415    0.856821   -0.085243
      3          1           0       -0.398094   -0.836338   -0.577351
      4          1           0        0.076043   -0.302156    1.058925
      5          1           0        0.986287    0.274925   -0.388748
 ---------------------------------------------------------------------
                    Distance matrix (angstroms):
                    1          2          3          4          5
     1  C    0.000000
     2  H    1.098220   0.000000
     3  H    1.097541   1.787128   0.000000
     4  H    1.098903   1.799520   1.785373   0.000000
     5  H    1.098951   1.799638   1.785214   1.804806   0.000000
 Symmetry turned off by external request.
 Stoichiometry    CH4
 Framework group  C1[X(CH4)]
 Deg. of freedom     9
 Full point group                 C1      NOp   1
 Rotational constants (GHZ):    156.8406770    156.2548280    154.5153859

 **********************************************************************

            Population analysis using the SCF density.

 **********************************************************************

 Alpha  occ. eigenvalues --  -10.32063  -0.80400  -0.50451  -0.50211  -0.49702
 Alpha virt. eigenvalues --   -0.01617   0.04769   0.05483   0.06669   0.32485
 Alpha virt. eigenvalues --    0.33545   0.33778   0.56545   0.59599   0.59963
 Alpha virt. eigenvalues --    0.60407   0.69325   0.99899   1.00060   1.43194
 Alpha virt. eigenvalues --    1.44197   1.44386   1.66470   1.66569   1.67305
 Alpha virt. eigenvalues --    2.02561   2.04651   2.04682   2.42798   2.43044
 Alpha virt. eigenvalues --    2.50826   2.81436   2.81976   2.83003
          Condensed to atoms (all electrons):
               1          2          3          4          5
     1  C    4.609623   0.407334   0.415866   0.400631   0.400111
     2  H    0.407334   0.591911  -0.016463  -0.022899  -0.023018
     3  H    0.415866  -0.016463   0.545710  -0.018142  -0.018254
     4  H    0.400631  -0.022899  -0.018142   0.624726  -0.024736
     5  H    0.400111  -0.023018  -0.018254  -0.024736   0.627168
 Mulliken charges:
               1
     1  C   -0.233564
     2  H    0.063135
     3  H    0.091282
     4  H    0.040419
     5  H    0.038728
 Sum of Mulliken charges =   0.00000
 Mulliken charges with hydrogens summed into heavy atoms:
               1
     1  C    0.000000
 Electronic spatial extent (au):  <R**2>=             35.6847
 Charge=              0.0000 electrons
 Dipole moment (field-independent basis, Debye):
    X=             -0.1927    Y=             -0.1752    Z=             -0.1841  Tot=              0.3189
 Quadrupole moment (field-independent basis, Debye-Ang):
   XX=             -8.3024   YY=             -8.2131   ZZ=             -8.3000
   XY=             -0.0158   XZ=              0.0046   YZ=              0.0311
 Traceless Quadrupole moment (field-independent basis, Debye-Ang):
   XX=             -0.0306   YY=              0.0588   ZZ=             -0.0282
   XY=             -0.0158   XZ=              0.0046   YZ=              0.0311
 Octapole moment (field-independent basis, Debye-Ang**2):
  XXX=              0.1396  YYY=             -0.3470  ZZZ=              0.1256  XYY=             -0.5881
  XXY=              0.2301  XXZ=             -0.4499  XZZ=             -0.0225  YZZ=             -0.5066
  YYZ=             -0.4662  XYZ=             -0.2007
 Hexadecapole moment (field-independent basis, Debye-Ang**3):
 XXXX=            -15.6327 YYYY=            -15.3229 ZZZZ=            -15.4491 XXXY=              0.0130
 XXXZ=             -0.2562 YYYX=             -0.1538 YYYZ=              0.4466 ZZZX=              0.1782
 ZZZY=             -0.0870 XXYY=             -4.9588 XXZZ=             -5.3916 YYZZ=             -5.1350
 XXYZ=             -0.0181 YYXZ=              0.2708 ZZXY=              0.1688
 N-N= 1.434973482445D+01 E-N=-1.204282017920D+02  KE= 3.982835005586D+01


 IT IS A SIMPLE TASK TO MAKE THINGS COMPLEX,
 BUT A COMPLEX TASK TO MAKE THEM SIMPLE.
 Error termination request processed by link 9999.
 Error termination via Lnk1e in /usr/local/gaussian/g09/l9999.exe at Tue Apr 21 17:59:45 2020.
 Job cpu time:       0 days  0 hours  0 minutes 49.4 seconds.
 File lengths (MBytes):  RWF=      5 Int=      0 D2E=      0 Chk=      1 Scr=      1
