      -----------------------------------------------------------      
     |                   =====================                   |     
     |                           x T B                           |     
     |                   =====================                   |     
     |                         S. Grimme                         |     
     |          Mulliken Center for Theoretical Chemistry        |     
     |                    University of Bonn                     |     
      -----------------------------------------------------------      

   * xtb version 6.2.2 (655bc02) compiled by 'ehlert@majestix' on 2019-12-09

   This program is distributed in the hope that it will be useful,
   but WITHOUT ANY WARRANTY; without even the implied warranty of
   MERCHANTABILITY or FITNESS FOR A PARTICULAR PURPOSE.
   
   FOR NON-COMMERCIAL, ACADEMIA USE ONLY.
   
   Cite this work as:
   * S. Grimme, C. Bannwarth, P. Shushkov, J. Chem. Theory Comput., 2017,
     13, 1989-2009. DOI: 10.1021/acs.jctc.7b00118
   * C. Bannwarth, S. Ehlert and S. Grimme., J. Chem. Theory Comput., 2019,
     15, 1652-1671. DOI: 10.1021/acs.jctc.8b01176
   * P. Pracht, E. Caldeweyher, S. Ehlert, S. Grimme, ChemRxiv, 2019, preprint.
     DOI: 10.26434/chemrxiv.8326202.v1
   
   for DFT-D4:
   * E. Caldeweyher, C. Bannwarth and S. Grimme, J. Chem. Phys., 2017,
     147, 034112. DOI: 10.1063/1.4993215
   * E. Caldeweyher, S. Ehlert, A. Hansen, H. Neugebauer, S. Spicher,
     C. Bannwarth and S. Grimme, J. Chem. Phys., 2019, 150, 154122.
     DOI: 10.1063/1.5090222
   
   for sTDA-xTB:
   * S. Grimme and C. Bannwarth, J. Chem. Phys., 2016, 145, 054103.
     DOI: 10.1063/1.4959605
   
   in the mass-spec context:
   * V. Asgeirsson, C. Bauer and S. Grimme, Chem. Sci., 2017, 8, 4879.
     DOI: 10.1039/c7sc00601b
   
   for metadynamics refer to:
   * S. Grimme, J. Chem. Theory Comput., 2019, 155, 2847-2862
     DOI: 10.1021/acs.jctc.9b00143
   
   with help from (in alphabetical order)
   C. Bannwarth, F. Bohle, G. Brandenburg, E. Caldeweyher, M. Checinski,
   S. Dohm, S. Ehlert, S. Ehrlich, F. März, H. Neugebauer, J. Pisarek,
   P. Pracht, P. Shushkov, and S. Spicher.
   
 * started run on 2020/04/22 at 11:29:41.581     

           -------------------------------------------------
          |                Calculation Setup                |
           -------------------------------------------------

          program call               : /u/fd/ball4935/opt/xtb_6.2.2/bin/xtb mol_qmmm_0_step_0_grad_xtb.xyz --chrg -1 --grad --gbsa Water --input xcontrol_mol_qmmm_0_step_0_grad
          hostname                   : aleph.chem.ox.ac.uk
          coordinate file            : mol_qmmm_0_step_0_grad_xtb.xyz
          omp threads                :                     1
          number of atoms            :                    10
          number of electrons        :                    32
          charge                     :                    -1
          spin                       :                   0.0
          first test random number   :      0.54937985292509


molecular fragmentation (1/2 indicates fragments):
1222222222
# atoms in fragment 1/2:     1     9
 fragment masses (1/2) :       19.00       54.05
CMA distance (Bohr)    :   1.857
constraining FC (au)   :  0.0500
           ------------------------------------------------- 
          |                 G F N 2 - x T B                 |
          | Geometry, Frequencies, Noncovalent interactions |
          |            JCTC 2019 parametrisation            |
           ------------------------------------------------- 
             k(s)              :                1.8500
             k(p)              :                2.2300
             k(d)              :                2.2300
             k(f)              :                2.0000
             kEN (H0ij)        :               -2.0000
             D4 a1             :                0.5200
             D4 a2             :                5.0000
             D4 s6             :                1.0000
             D4 s8             :                2.7000
             D4 s9             :                5.0000
             alphaj            :                2.0000

  Z AO/shell   Hii/eV     exponent
  1     Wed Apr 25 08:07:45 CEST 2018   EN: 2.200 GM2: 0.406  GM3: 0.0800  RAES: 1.40
     1s    -10.707211    1.230000
  8     Wed Apr 25 08:07:45 CEST 2018   EN: 3.440 GM2: 0.452  GM3:-0.0517  RAES: 1.80
     2s    -20.229985    2.439742
     2p    -15.503117    2.137023
  9     Mon Apr 23 13:58:50 CEST 2018   EN: 3.980 GM2: 0.532  GM3: 0.1426  RAES: 2.40
     2s    -23.458179    2.416361
     2p    -15.746583    2.308399

 Solvent             : Water
 Using internal parameter file: .param_gbsa2_Water
 Gsolv ref. state (COSMO-RS): gsolv [1 M gas/solution]
 temperature (mdtemp)       :    298.150000000000     
 dielectric constant        :    80.2000000000000     
 rho                        :    1.00000000000000     
 mass                       :    18.0000000000000     
 surface tension            :    15.5689454083859     
 probe radius               :   0.975313790000000     
 Gshift (Eh)                :   1.857443126794793E-003
 c1                         :    1.55243817000000     
 soset                      :   0.130326360000000     
 HB correction              :  T
           ------------------------------------------------- 
          |        Self-Consistent Charge Iterations        |
           ------------------------------------------------- 

          ...................................................
          :                      SETUP                      :
          :.................................................:
          :  # basis functions                  22          :
          :  # atomic orbitals                  22          :
          :  # shells                           14          :
          :  # electrons                        32          :
          :  max. iterations                   250          :
          :  Hamiltonian                  GFN2-xTB          :
          :  restarted?                      false          :
          :  GBSA solvation                   true          :
          :  PC potential                     true          :
          :  -> # point charges                  9          :
          :  -> sum of PC                0.0000000     e    :
          :  electronic temp.          300.0000000     K    :
          :  accuracy                    1.0000000          :
          :  -> integral cutoff          0.2500000E+02      :
          :  -> integral neglect         0.1000000E-07      :
          :  -> SCF convergence          0.1000000E-05 Eh   :
          :  -> wf. convergence          0.1000000E-03 e    :
          :  Broyden damping             0.4000000          :
          ...................................................

 iter      E             dE          RMSdq      gap      omega  full diag
   1    -20.1949309 -0.201949E+02  0.458E+00   10.96       0.0  T
   2    -20.2015694 -0.663851E-02  0.261E+00   10.31       1.0  T
   3    -20.2036218 -0.205245E-02  0.443E-01    9.68       1.0  T
   4    -20.2038023 -0.180494E-03  0.126E-01    9.72       1.0  T
   5    -20.2038352 -0.328982E-04  0.505E-02    9.71       1.0  T
   6    -20.2038366 -0.132348E-05  0.125E-02    9.72       2.5  T
   7    -20.2038369 -0.289581E-06  0.261E-03    9.72      12.1  T
   8    -20.2038369 -0.948533E-08  0.949E-04    9.72      33.3  T
   9    -20.2038369 -0.170553E-08  0.990E-05    9.72     319.4  T

   *** convergence criteria satisfied after 9 iterations ***

         #    Occupation            Energy/Eh            Energy/eV
      -------------------------------------------------------------
         1        2.0000           -0.6652739             -18.1030
       ...           ...                  ...                  ...
        10        2.0000           -0.4446956             -12.1008
        11        2.0000           -0.4171320             -11.3507
        12        2.0000           -0.3827452             -10.4150
        13        2.0000           -0.3681387             -10.0176
        14        2.0000           -0.3611912              -9.8285
        15        2.0000           -0.3608929              -9.8204
        16        2.0000           -0.3028400              -8.2407 (HOMO)
        17                          0.0544198               1.4808 (LUMO)
        18                          0.1265215               3.4428
        19                          0.2394379               6.5154
        20                          0.2546637               6.9298
        21                          0.3239693               8.8157
        22                          0.4315884              11.7441
      -------------------------------------------------------------
                  HL-Gap            0.3572598 Eh            9.7215 eV
             Fermi-level           -0.1242101 Eh           -3.3799 eV

 SCC (total)                   0 d,  0 h,  0 min,  0.014 sec
 SCC setup                      ...        0 min,  0.001 sec (  7.499%)
 Dispersion                     ...        0 min,  0.000 sec (  0.999%)
 integral evaluation            ...        0 min,  0.003 sec ( 23.615%)
 zeroth order Hamiltonian       ...        0 min,  0.000 sec (  0.754%)
 iterations                     ...        0 min,  0.005 sec ( 34.676%)
 molecular gradient             ...        0 min,  0.004 sec ( 26.865%)
 printout                       ...        0 min,  0.001 sec (  4.788%)

         :::::::::::::::::::::::::::::::::::::::::::::::::::::
         ::                     SUMMARY                     ::
         :::::::::::::::::::::::::::::::::::::::::::::::::::::
         :: total energy             -20.116678835896 Eh    ::
         :: total w/o Gsasa/hb       -20.106211266325 Eh    ::
         :: gradient norm              0.290440161170 Eh/a0 ::
         :: HOMO-LUMO gap              9.721534935058 eV    ::
         ::.................................................::
         :: SCC energy               -20.200085825376 Eh    ::
         :: -> isotropic ES            0.328567250705 Eh    ::
         :: -> anisotropic ES         -0.001882007343 Eh    ::
         :: -> anisotropic XC         -0.004192408688 Eh    ::
         :: -> dispersion             -0.003180910155 Eh    ::
         :: -> Gsolv                  -0.106374459453 Eh    ::
         ::    -> Gborn               -0.095906889882 Eh    ::
         ::    -> Gsasa                0.001893597040 Eh    ::
         ::    -> Ghb                 -0.014218609737 Eh    ::
         ::    -> Gshift               0.001857443127 Eh    ::
         :: repulsion energy           0.083406026197 Eh    ::
         :: add. restraining           0.000000000000 Eh    ::
         :::::::::::::::::::::::::::::::::::::::::::::::::::::

           -------------------------------------------------
          |                Property Printout                |
           -------------------------------------------------

    * Orbital Energies and Occupations

         #    Occupation            Energy/Eh            Energy/eV
      -------------------------------------------------------------
         1        2.0000           -0.6652739             -18.1030
       ...           ...                  ...                  ...
         4        2.0000           -0.5978780             -16.2691
         5        2.0000           -0.5316663             -14.4674
         6        2.0000           -0.5051709             -13.7464
         7        2.0000           -0.4851350             -13.2012
         8        2.0000           -0.4640600             -12.6277
         9        2.0000           -0.4622216             -12.5777
        10        2.0000           -0.4446956             -12.1008
        11        2.0000           -0.4171320             -11.3507
        12        2.0000           -0.3827452             -10.4150
        13        2.0000           -0.3681387             -10.0176
        14        2.0000           -0.3611912              -9.8285
        15        2.0000           -0.3608929              -9.8204
        16        2.0000           -0.3028400              -8.2407 (HOMO)
        17                          0.0544198               1.4808 (LUMO)
        18                          0.1265215               3.4428
        19                          0.2394379               6.5154
        20                          0.2546637               6.9298
        21                          0.3239693               8.8157
        22                          0.4315884              11.7441
      -------------------------------------------------------------
                  HL-Gap            0.3572598 Eh            9.7215 eV
             Fermi-level           -0.1242101 Eh           -3.3799 eV

     #   Z        covCN         q      C6AA      α(0)
     1   9 F      0.349    -0.828    20.665     5.319
     2   8 O      1.796    -0.742    28.769     7.243
     3   1 H      0.955     0.333     0.616     1.227
     4   1 H      0.801     0.314     0.681     1.296
     5   8 O      1.603    -0.702    27.778     7.113
     6   1 H      0.802     0.341     0.610     1.227
     7   1 H      0.801     0.328     0.644     1.261
     8   8 O      1.603    -0.636    26.076     6.892
     9   1 H      0.802     0.300     0.723     1.336
    10   1 H      0.801     0.293     0.743     1.354

 Mol. C6AA /au·bohr⁶  :        628.738678
 Mol. C8AA /au·bohr⁸  :      11265.016534
 Mol. α(0) /au        :         34.268173


Wiberg/Mayer (AO) data.
largest (>0.10) Wiberg bond orders for each atom
          total WBO             WBO to atom ...
     1  F   0.332
     2  O   1.721        H    4 0.824    H    3 0.781
     3  H   0.889        O    2 0.781
     4  H   0.901        O    2 0.824
     5  O   1.770        H    6 0.823    H    7 0.820
     6  H   0.884        O    5 0.823
     7  H   0.893        O    5 0.820
     8  O   1.790        H   10 0.887    H    9 0.863
     9  H   0.910        O    8 0.863
    10  H   0.914        O    8 0.887

molecular dipole:
                 x           y           z       tot (Debye)
 q only:       -0.115       1.394      -0.559
   full:       -0.167       1.692      -0.813       4.789
molecular quadrupole (traceless):
                xx          xy          yy          xz          yz          zz
 q only:        0.020       1.589       0.053      -5.144      -6.110      -0.073
  q+dip:       -0.007       2.066       0.398      -7.022      -7.964      -0.391
   full:       -0.200       2.136       0.411      -6.884      -7.859      -0.211


           -------------------------------------------------
          | TOTAL ENERGY              -20.116678835896 Eh   |
          | GRADIENT NORM               0.290440161170 Eh/α |
          | HOMO-LUMO GAP               9.721534935058 eV   |
           -------------------------------------------------

------------------------------------------------------------------------
 * finished run on 2020/04/22 at 11:29:41.626     
------------------------------------------------------------------------
 total:
 * wall-time:     0 d,  0 h,  0 min,  0.045 sec
 *  cpu-time:     0 d,  0 h,  0 min,  0.029 sec
 * ratio c/w:     0.655 speedup
 SCF:
 * wall-time:     0 d,  0 h,  0 min,  0.014 sec
 *  cpu-time:     0 d,  0 h,  0 min,  0.014 sec
 * ratio c/w:     0.991 speedup

