 *******************************************************************************
 ** Site#: 29330        For non-commercial use only    Version 19.144L 64BITS **
 *******************************************************************************
 ** Cite this program as: MOPAC2016, Version: 19.144L, James J. P. Stewart,   **
 ** Stewart Computational Chemistry, web: HTTP://OpenMOPAC.net. Days left: 226**
 *******************************************************************************
 **                                                                           **
 **                                MOPAC2016                                  **
 **                                                                           **
 *******************************************************************************

                              PM7 CALCULATION RESULTS

 *******************************************************************************
 *  CALCULATION DONE:                                Thu Oct 10 12:08:41 2019  *
 *  PM7        - The PM7 Hamiltonian to be used
 *
 *
 *
 *                 CHARGE ON SYSTEM = 0
 *
 *
 *
 *  EPS= 78.54 - USE ANDREAS KLAMT'S COSMO IMPLICIT SOLVATION MODEL
 *  PRECISE    - CRITERIA TO BE INCREASED BY 100 TIMES
 *  T=         - A TIME OF 172800.0 SECONDS REQUESTED
 *  DUMP=N     - RESTART FILE WRITTEN EVERY  7200.000 SECONDS
 *******************************************************************************
PM7 PRECISE EPS=78.54 CHARGE=0


   ATOM   CHEMICAL          X               Y               Z
  NUMBER   SYMBOL      (ANGSTROMS)     (ANGSTROMS)     (ANGSTROMS)
 
     1       C         -0.13900000  *   0.00310000  *   0.00200000  *
     2      Cl          1.63000000  *   0.09020000  *  -0.01860000  *
     3       H         -0.46370000  *  -0.88630000  *  -0.58130000  *
     4       H         -0.47100000  *  -0.12920000  *   1.03910000  *
     5       H         -0.55630000  *   0.92220000  *  -0.44130000  *
 


          CARTESIAN COORDINATES 

    NO.       ATOM           X           Y           Z

     1         C         -0.1390      0.0031      0.0020
     2        Cl          1.6300      0.0902     -0.0186
     3         H         -0.4637     -0.8863     -0.5813
     4         H         -0.4710     -0.1292      1.0391
     5         H         -0.5563      0.9222     -0.4413

 General Reference for PM7:
 "Optimization of Parameters for Semiempirical Methods VI: More Modifications to the 
 NDDO Approximations and Re-optimization of Parameters", J. J. P. Stewart, J. Mol. Mod., 1:32, 19 (2013)
 http://www.springerlink.com/openurl.asp?genre=article&id=doi:10.1007/s00894-012-1667-x

           Empirical Formula: C H3 Cl  =     5 atoms



      MOLECULAR POINT GROUP   :   Cs  


      RHF CALCULATION, NO. OF DOUBLY OCCUPIED LEVELS = 7


          Geometry optimization using EF

          DIAGONAL MATRIX USED AS START HESSIAN

 CYCLE:     1 TIME:   0.000 TIME LEFT:  2.00D  GRAD.:    18.789 HEAT: -19.25576
 CYCLE:     2 TIME:   0.004 TIME LEFT:  2.00D  GRAD.:     6.157 HEAT: -19.42606
 CYCLE:     3 TIME:   0.004 TIME LEFT:  2.00D  GRAD.:     8.458 HEAT: -19.44049
 CYCLE:     4 TIME:   0.000 TIME LEFT:  2.00D  GRAD.:     6.610 HEAT: -19.46505
 CYCLE:     5 TIME:   0.004 TIME LEFT:  2.00D  GRAD.:     2.048 HEAT: -19.48162
 CYCLE:     6 TIME:   0.004 TIME LEFT:  2.00D  GRAD.:     1.389 HEAT: -19.48108
 CYCLE:     7 TIME:   0.000 TIME LEFT:  2.00D  GRAD.:     0.779 HEAT: -19.48255
 CYCLE:     8 TIME:   0.004 TIME LEFT:  2.00D  GRAD.:     0.408 HEAT: -19.48504
 CYCLE:     9 TIME:   0.004 TIME LEFT:  2.00D  GRAD.:     0.284 HEAT: -19.48511
 CYCLE:    10 TIME:   0.000 TIME LEFT:  2.00D  GRAD.:     0.193 HEAT: -19.48511
 CYCLE:    11 TIME:   0.004 TIME LEFT:  2.00D  GRAD.:     0.148 HEAT: -19.48516
 CYCLE:    12 TIME:   0.000 TIME LEFT:  2.00D  GRAD.:     0.077 HEAT: -19.48524
 CYCLE:    13 TIME:   0.004 TIME LEFT:  2.00D  GRAD.:     0.031 HEAT: -19.48527

     GRADIENT =  0.03139 IS LESS THAN CUTOFF =  0.05000



 -------------------------------------------------------------------------------
 PM7 PRECISE EPS=78.54 CHARGE=0




     GEOMETRY OPTIMISED USING EIGENVECTOR FOLLOWING (EF).     
     SCF FIELD WAS ACHIEVED                                   


                              PM7 CALCULATION
                                                       MOPAC2016 (Version: 19.144L)
                                                       Thu Oct 10 12:08:41 2019
                                                       No. of days remaining = 226




          FINAL HEAT OF FORMATION =        -19.48527 KCAL/MOL =     -81.52638 KJ/MOL
          VAN DER WAALS AREA      =         77.12 SQUARE ANGSTROMS


          TOTAL ENERGY            =       -430.43191 EV
          ELECTRONIC ENERGY       =       -304.70589 EV  POINT GROUP:     C3v 
          CORE-CORE REPULSION     =       -125.72602 EV

          DIELECTRIC ENERGY       =         -0.15868 EV
          COSMO AREA              =         77.12 SQUARE ANGSTROMS
          COSMO VOLUME            =         59.63 CUBIC ANGSTROMS

          GRADIENT NORM           =          0.03139 = 0.01404 PER ATOM
          IONIZATION POTENTIAL    =         11.294788 EV
          HOMO LUMO ENERGIES (EV) =        -11.295  0.734
          NO. OF FILLED LEVELS    =          7
          MOLECULAR WEIGHT        =         50.4877

          MOLECULAR DIMENSIONS (Angstroms)

            Atom       Atom       Distance
            H     3   Cl     2     2.36292
            H     4    H     5     1.80107
            H     3    H     5     1.40047


          SCF CALCULATIONS        =         16
 
          WALL-CLOCK TIME         =          0.039 SECONDS
          COMPUTATION TIME        =          0.035 SECONDS




   ATOM   CHEMICAL          X               Y               Z
  NUMBER   SYMBOL      (ANGSTROMS)     (ANGSTROMS)     (ANGSTROMS)
 
     1       C         -0.14923962  *  -0.00493057  *   0.00256316  *
     2      Cl          1.63107214  *   0.09085339  *  -0.01962857  *
     3       H         -0.44916602  *  -0.87457752  *  -0.58880604  *
     4       H         -0.46968177  *  -0.11219519  *   1.04272437  *
     5       H         -0.54316293  *   0.91731974  *  -0.43326210  *

                             CARTESIAN COORDINATES

   1    C       -0.149239624    -0.004930575     0.002563161
   2   Cl        1.631072141     0.090853388    -0.019628570
   3    H       -0.449166017    -0.874577515    -0.588806036
   4    H       -0.469681772    -0.112195192     1.042724365
   5    H       -0.543162931     0.917319741    -0.433262100


           Empirical Formula: C H3 Cl  =     5 atoms



      MOLECULAR POINT GROUP   :   C3v 


                  EIGENVALUES  
 -27.31127 -23.23531 -14.97391 -14.97001 -14.05109 -11.29567 -11.29479   0.73434
   5.22786   5.23035   5.93733  70.24931  70.27339  70.27347  70.61279  70.61280


              NET ATOMIC CHARGES AND DIPOLE CONTRIBUTIONS

  ATOM NO.   TYPE          CHARGE      No. of ELECS.   s-Pop       p-Pop       d-Pop       
    1          C          -0.305510        4.3055     1.10559     3.19992
    2         Cl          -0.213273        7.2133     1.98250     5.22607     0.00470
    3          H           0.172892        0.8271     0.82711
    4          H           0.173351        0.8266     0.82665
    5          H           0.172540        0.8275     0.82746
 DIPOLE           X         Y         Z       TOTAL
 POINT-CHG.    -2.666    -0.145     0.037     2.670
 HYBRID        -0.047    -0.002    -0.000     0.047
 SUM           -2.713    -0.148     0.036     2.717


          ATOMIC ORBITAL ELECTRON POPULATIONS

     Atom    s        px        py        pz      x^2-y^2     xz        z^2       yz        xy
    1  C   1.10559   0.81147   1.19340   1.19506
    2 Cl   1.98250   1.23301   1.99547   1.99759   0.00224   0.00083   0.00076   0.00001   0.00086
    3  H   0.82711
    4  H   0.82665
    5  H   0.82746

 **********************
 *                    *
 * JOB ENDED NORMALLY *
 *                    *
 **********************



 TOTAL JOB TIME:             0.04 SECONDS

 == MOPAC DONE ==
