
                                 *****************
                                 * O   R   C   A *
                                 *****************

           --- An Ab Initio, DFT and Semiempirical electronic structure package ---

                  #######################################################
                  #                        -***-                        #
                  #          Department of theory and spectroscopy      #
                  #               Directorship: Frank Neese             #
                  #        Max Planck Institute fuer Kohlenforschung    #
                  #                Kaiser Wilhelm Platz 1               #
                  #                 D-45470 Muelheim/Ruhr               #
                  #                      Germany                        #
                  #                                                     #
                  #                  All rights reserved                #
                  #                        -***-                        #
                  #######################################################


                         Program Version 4.2.1 -  RELEASE  -


 With contributions from (in alphabetic order):
   Daniel Aravena         : Magnetic Suceptibility
   Michael Atanasov       : Ab Initio Ligand Field Theory (pilot matlab implementation)
   Alexander A. Auer      : GIAO ZORA, VPT2
   Ute Becker             : Parallelization
   Giovanni Bistoni       : ED, misc. LED, open-shell LED, HFLD
   Martin Brehm           : Molecular dynamics
   Dmytro Bykov           : SCF Hessian
   Vijay G. Chilkuri      : MRCI spin determinant printing, contributions to CSF-ICE
   Dipayan Datta          : RHF DLPNO-CCSD density
   Achintya Kumar Dutta   : EOM-CC, STEOM-CC
   Dmitry Ganyushin       : Spin-Orbit,Spin-Spin,Magnetic field MRCI
   Miquel Garcia          : C-PCM Hessian, Gaussian charge scheme
   Yang Guo               : DLPNO-NEVPT2, CIM, IAO-localization
   Andreas Hansen         : Spin unrestricted coupled pair/coupled cluster methods
   Benjamin Helmich-Paris : CASSCF linear response (MC-RPA)
   Lee Huntington         : MR-EOM, pCC
   Robert Izsak           : Overlap fitted RIJCOSX, COSX-SCS-MP3, EOM
   Christian Kollmar      : KDIIS, OOCD, Brueckner-CCSD(T), CCSD density
   Simone Kossmann        : Meta GGA functionals, TD-DFT gradient, OOMP2, MP2 Hessian
   Martin Krupicka        : AUTO-CI
   Lucas Lang             : DCDCAS
   Dagmar Lenk            : GEPOL surface, SMD
   Dimitrios Liakos       : Extrapolation schemes; Compound Job, initial MDCI parallelization
   Dimitrios Manganas     : Further ROCIS development; embedding schemes
   Dimitrios Pantazis     : SARC Basis sets
   Taras Petrenko         : DFT Hessian,TD-DFT gradient, ASA, ECA, R-Raman, ABS, FL, XAS/XES, NRVS
   Peter Pinski           : DLPNO-MP2, DLPNO-MP2 Gradient
   Christoph Reimann      : Effective Core Potentials
   Marius Retegan         : Local ZFS, SOC
   Christoph Riplinger    : Optimizer, TS searches, QM/MM, DLPNO-CCSD(T), (RO)-DLPNO pert. Triples
   Tobias Risthaus        : Range-separated hybrids, TD-DFT gradient, RPA, STAB
   Michael Roemelt        : Original ROCIS implementation
   Masaaki Saitow         : Open-shell DLPNO-CCSD energy and density
   Barbara Sandhoefer     : DKH picture change effects
   Avijit Sen             : IP-ROCIS
   Kantharuban Sivalingam : CASSCF convergence, NEVPT2, FIC-MRCI
   Bernardo de Souza      : ESD, SOC TD-DFT
   Georgi Stoychev        : AutoAux, RI-MP2 NMR
   Willem Van den Heuvel  : Paramagnetic NMR
   Boris Wezisla          : Elementary symmetry handling
   Frank Wennmohs         : Technical directorship


 We gratefully acknowledge several colleagues who have allowed us to
 interface, adapt or use parts of their codes:
   Stefan Grimme, W. Hujo, H. Kruse,             : VdW corrections, initial TS optimization,
                  C. Bannwarth                     DFT functionals, gCP, sTDA/sTD-DF
   Ed Valeev, F. Pavosevic, A. Kumar             : LibInt (2-el integral package), F12 methods
   Garnet Chan, S. Sharma, J. Yang, R. Olivares  : DMRG
   Ulf Ekstrom                                   : XCFun DFT Library
   Mihaly Kallay                                 : mrcc  (arbitrary order and MRCC methods)
   Andreas Klamt, Michael Diedenhofen            : otool_cosmo (COSMO solvation model)
   Jiri Pittner, Ondrej Demel                    : Mk-CCSD
   Frank Weinhold                                : gennbo (NPA and NBO analysis)
   Christopher J. Cramer and Donald G. Truhlar   : smd solvation model
   Lars Goerigk                                  : TD-DFT with DH, B97 family of functionals
   V. Asgeirsson, H. Jonsson                     : NEB implementation
   FAccTs GmbH                                   : IRC, NEB, NEB-TS, Multilevel, MM, QM/MM, CI optimization
   S Lehtola, MJT Oliveira, MAL Marques          : LibXC Library


 Your calculation uses the libint2 library for the computation of 2-el integrals
 For citations please refer to: http://libint.valeyev.net

 Your ORCA version has been built with support for libXC version: 4.2.3
 For citations please refer to: https://tddft.org/programs/libxc/

 This ORCA versions uses:
   CBLAS   interface :  Fast vector & matrix operations
   LAPACKE interface :  Fast linear algebra routines
   SCALAPACK package :  Parallel linear algebra routines


Your calculation utilizes the atom-pairwise dispersion correction
with the Becke-Johnson damping scheme (D3BJ)
Cite in your paper:
S.Grimme, S.Ehrlich, L.Goerigk, J Comput Chem, (2011), 32, 1456–1465 
S.Grimme, J.Antony, S.Ehrlich and H.Krieg, J.Chem.Phys., 132, (2010), 154104 
   

----- Orbital basis set information -----
Your calculation utilizes the basis: def2-SVP
   F. Weigend and R. Ahlrichs, Phys. Chem. Chem. Phys. 7, 3297 (2005).

----- AuxJ basis set information -----
Your calculation utilizes the auxiliary basis: def2/J
   F. Weigend, Phys. Chem. Chem. Phys. 8, 1057 (2006).

================================================================================
                                        WARNINGS
                       Please study these warnings very carefully!
================================================================================


WARNING: Geometry Optimization
  ===> : Switching off AutoStart
         For restart on a previous wavefunction, please use MOREAD

INFO   : the flag for use of LIBINT has been found!

================================================================================
                                       INPUT FILE
================================================================================
NAME = opt_orca.inp
|  1> ! Opt PBE0 RIJCOSX D3BJ def2-SVP def2/J CPCM(Water)
|  2> %cpcm
|  3>  surfacetype vdw_gaussian
|  4> end
|  5> %geom MaxIter 100 end
|  6> %output 
|  7> xyzfile=True 
|  8> end 
|  9> %scf 
| 10> maxiter 250 
| 11> end
| 12> %output
| 13> Print[P_Hirshfeld] = 1
| 14> end
| 15> % maxcore
| 16> 4000
| 17> *xyz 0 1
| 18> C   -0.14650000   0.00290000  -0.00800000 
| 19> Cl   1.63360000  -0.02930000  -0.02540000 
| 20> H   -0.48370000  -0.51360000   0.90720000 
| 21> H   -0.55080000  -0.51980000  -0.90030000 
| 22> H   -0.45260000   1.05980000   0.02650000 
| 23> *
| 24> 
| 25>                          ****END OF INPUT****
================================================================================

                       *****************************
                       * Geometry Optimization Run *
                       *****************************

Geometry optimization settings:
Update method            Update   .... BFGS
Choice of coordinates    CoordSys .... Z-matrix Internals
Initial Hessian          InHess   .... Almoef's Model

Convergence Tolerances:
Energy Change            TolE     ....  5.0000e-06 Eh
Max. Gradient            TolMAXG  ....  3.0000e-04 Eh/bohr
RMS Gradient             TolRMSG  ....  1.0000e-04 Eh/bohr
Max. Displacement        TolMAXD  ....  4.0000e-03 bohr
RMS Displacement         TolRMSD  ....  2.0000e-03 bohr
Strict Convergence                ....  False
------------------------------------------------------------------------------
                        ORCA OPTIMIZATION COORDINATE SETUP
------------------------------------------------------------------------------

The optimization will be done in new redundant internal coordinates
Making redundant internal coordinates   ...  (new redundants) done
Evaluating the initial hessian          ...  (Almloef) done
Evaluating the coordinates              ...  done
Calculating the B-matrix                .... done
Calculating the G-matrix                .... done
Diagonalizing the G-matrix              .... done
The first mode is                       ....    1
The number of degrees of freedom        ....    9

    -----------------------------------------------------------------
                    Redundant Internal Coordinates


    -----------------------------------------------------------------
         Definition                    Initial Value    Approx d2E/dq
    -----------------------------------------------------------------
      1. B(Cl  1,C   0)                  1.7805         0.334006   
      2. B(H   2,C   0)                  1.1037         0.342474   
      3. B(H   3,C   0)                  1.1103         0.334163   
      4. B(H   4,C   0)                  1.1009         0.345998   
      5. A(Cl  1,C   0,H   3)          110.3452         0.327594   
      6. A(H   2,C   0,H   3)          109.5628         0.285212   
      7. A(Cl  1,C   0,H   4)          107.1972         0.329481   
      8. A(H   2,C   0,H   4)          109.7766         0.286763   
      9. A(H   3,C   0,H   4)          112.0793         0.285667   
     10. A(Cl  1,C   0,H   2)          107.7644         0.328925   
    -----------------------------------------------------------------

Number of atoms                         .... 5
Number of degrees of freedom            .... 10

         *************************************************************
         *                GEOMETRY OPTIMIZATION CYCLE   1            *
         *************************************************************
---------------------------------
CARTESIAN COORDINATES (ANGSTROEM)
---------------------------------
  C     -0.146500    0.002900   -0.008000
  Cl     1.633600   -0.029300   -0.025400
  H     -0.483700   -0.513600    0.907200
  H     -0.550800   -0.519800   -0.900300
  H     -0.452600    1.059800    0.026500

----------------------------
CARTESIAN COORDINATES (A.U.)
----------------------------
  NO LB      ZA    FRAG     MASS         X           Y           Z
   0 C     6.0000    0    12.011   -0.276845    0.005480   -0.015118
   1 Cl   17.0000    0    35.453    3.087057   -0.055369   -0.047999
   2 H     1.0000    0     1.008   -0.914061   -0.970563    1.714360
   3 H     1.0000    0     1.008   -1.040861   -0.982280   -1.701320
   4 H     1.0000    0     1.008   -0.855290    2.002732    0.050078

--------------------------------
INTERNAL COORDINATES (ANGSTROEM)
--------------------------------
 C      0   0   0     0.000000000000     0.00000000     0.00000000
 Cl     1   0   0     1.780476231237     0.00000000     0.00000000
 H      1   2   0     1.103660785749   107.76444502     0.00000000
 H      1   2   3     1.110348175123   110.34523187   240.40942319
 H      1   2   3     1.100874684058   107.19722455   118.10441627

---------------------------
INTERNAL COORDINATES (A.U.)
---------------------------
 C      0   0   0     0.000000000000     0.00000000     0.00000000
 Cl     1   0   0     3.364612464994     0.00000000     0.00000000
 H      1   2   0     2.085616629814   107.76444502     0.00000000
 H      1   2   3     2.098253964283   110.34523187   240.40942319
 H      1   2   3     2.080351660637   107.19722455   118.10441627

---------------------
BASIS SET INFORMATION
---------------------
There are 3 groups of distinct atoms

 Group   1 Type C   : 7s4p1d contracted to 3s2p1d pattern {511/31/1}
 Group   2 Type Cl  : 10s7p1d contracted to 4s3p1d pattern {5311/511/1}
 Group   3 Type H   : 4s1p contracted to 2s1p pattern {31/1}

Atom   0C    basis set group =>   1
Atom   1Cl   basis set group =>   2
Atom   2H    basis set group =>   3
Atom   3H    basis set group =>   3
Atom   4H    basis set group =>   3
---------------------------------
AUXILIARY/J BASIS SET INFORMATION
---------------------------------
There are 3 groups of distinct atoms

 Group   1 Type C   : 12s5p4d2f1g contracted to 6s4p3d1f1g pattern {711111/2111/211/2/1}
 Group   2 Type Cl  : 14s5p5d2f1g contracted to 8s4p3d1f1g pattern {71111111/2111/311/2/1}
 Group   3 Type H   : 5s2p1d contracted to 3s1p1d pattern {311/2/1}

Atom   0C    basis set group =>   1
Atom   1Cl   basis set group =>   2
Atom   2H    basis set group =>   3
Atom   3H    basis set group =>   3
Atom   4H    basis set group =>   3
------------------------------------------------------------------------------
                           ORCA GTO INTEGRAL CALCULATION
                           -- RI-GTO INTEGRALS CHOSEN --
------------------------------------------------------------------------------

                         BASIS SET STATISTICS AND STARTUP INFO

Gaussian basis set:
 # of primitive gaussian shells          ...   45
 # of primitive gaussian functions       ...   81
 # of contracted shells                  ...   23
 # of contracted basis functions         ...   47
 Highest angular momentum                ...    2
 Maximum contraction depth               ...    5
Auxiliary gaussian basis set:
 # of primitive gaussian shells          ...   75
 # of primitive gaussian functions       ...  195
 # of contracted shells                  ...   47
 # of contracted aux-basis functions     ...  133
 Highest angular momentum                ...    4
 Maximum contraction depth               ...    7
Ratio of auxiliary to basis functions    ...  2.83
Integral package used                  ... LIBINT
 One Electron integrals                  ... done
 Ordering auxiliary basis shells         ... done
 Integral threshhold             Thresh  ...  2.500e-11
 Primitive cut-off               TCut    ...  2.500e-12
 Pre-screening matrix                    ... done
 Shell pair data                         ... 
 Ordering of the shell pairs             ... done (   0.000 sec) 275 of 276 pairs
 Determination of significant pairs      ... done (   0.000 sec)
 Creation of shell pair data             ... done (   0.000 sec)
 Storage of shell pair data              ... done (   0.000 sec)
 Shell pair data done in (   0.000 sec)
 Computing two index integrals           ... done
 Cholesky decomposition of the V-matrix  ... done


Timings:
 Total evaluation time                   ...   0.319 sec (  0.005 min)
 One electron matrix time                ...   0.008 sec (  0.000 min) =  2.5%
 Schwartz matrix evaluation time         ...   0.117 sec (  0.002 min) = 36.6%
 Two index repulsion integral time       ...   0.001 sec (  0.000 min) =  0.2%
 Cholesky decomposition of V             ...   0.148 sec (  0.002 min) = 46.4%
 Three index repulsion integral time     ...   0.000 sec (  0.000 min) =  0.0%

-------------------------------------------------------------------------------
                                 ORCA SCF
-------------------------------------------------------------------------------

------------
SCF SETTINGS
------------
Hamiltonian:
 Density Functional     Method          .... DFT(GTOs)
 Exchange Functional    Exchange        .... PBE
   PBE kappa parameter   XKappa         ....  0.804000
   PBE mue parameter    XMuePBE         ....  0.219520
 Correlation Functional Correlation     .... PBE
   PBE beta parameter  CBetaPBE         ....  0.066725
 LDA part of GGA corr.  LDAOpt          .... PW91-LDA
 Gradients option       PostSCFGGA      .... off
 Hybrid DFT is turned on
   Fraction HF Exchange ScalHFX         ....  0.250000
   Scaling of DF-GGA-X  ScalDFX         ....  0.750000
   Scaling of DF-GGA-C  ScalDFC         ....  1.000000
   Scaling of DF-LDA-C  ScalLDAC        ....  1.000000
   Perturbative correction              ....  0.000000
   Density functional embedding theory  .... OFF
   NL short-range parameter             ....  6.900000
 RI-approximation to the Coulomb term is turned on
   Number of auxiliary basis functions  .... 133
   RIJ-COSX (HFX calculated with COS-X)).... on


General Settings:
 Integral files         IntName         .... opt_orca
 Hartree-Fock type      HFTyp           .... RHF
 Total Charge           Charge          ....    0
 Multiplicity           Mult            ....    1
 Number of Electrons    NEL             ....   26
 Basis Dimension        Dim             ....   47
 Nuclear Repulsion      ENuc            ....     51.1806802386 Eh

Convergence Acceleration:
 DIIS                   CNVDIIS         .... on
   Start iteration      DIISMaxIt       ....    12
   Startup error        DIISStart       ....  0.200000
   # of expansion vecs  DIISMaxEq       ....     5
   Bias factor          DIISBfac        ....   1.050
   Max. coefficient     DIISMaxC        ....  10.000
 Newton-Raphson         CNVNR           .... off
 SOSCF                  CNVSOSCF        .... on
   Start iteration      SOSCFMaxIt      ....   150
   Startup grad/error   SOSCFStart      ....  0.003300
 Level Shifting         CNVShift        .... on
   Level shift para.    LevelShift      ....    0.2500
   Turn off err/grad.   ShiftErr        ....    0.0010
 Zerner damping         CNVZerner       .... off
 Static damping         CNVDamp         .... on
   Fraction old density DampFac         ....    0.7000
   Max. Damping (<1)    DampMax         ....    0.9800
   Min. Damping (>=0)   DampMin         ....    0.0000
   Turn off err/grad.   DampErr         ....    0.1000
 Fernandez-Rico         CNVRico         .... off

SCF Procedure:
 Maximum # iterations   MaxIter         ....   250
 SCF integral mode      SCFMode         .... Direct
   Integral package                     .... LIBINT
 Reset frequency        DirectResetFreq ....    20
 Integral Threshold     Thresh          ....  2.500e-11 Eh
 Primitive CutOff       TCut            ....  2.500e-12 Eh

Convergence Tolerance:
 Convergence Check Mode ConvCheckMode   .... Total+1el-Energy
 Convergence forced     ConvForced      .... 0
 Energy Change          TolE            ....  1.000e-08 Eh
 1-El. energy change                    ....  1.000e-05 Eh
 Orbital Gradient       TolG            ....  1.000e-05
 Orbital Rotation angle TolX            ....  1.000e-05
 DIIS Error             TolErr          ....  5.000e-07


Diagonalization of the overlap matrix:
Smallest eigenvalue                        ... 1.142e-02
Time for diagonalization                   ...    0.183 sec
Threshold for overlap eigenvalues          ... 1.000e-08
Number of eigenvalues below threshold      ... 0
Time for construction of square roots      ...    0.001 sec
Total time needed                          ...    0.184 sec

-------------------
DFT GRID GENERATION
-------------------

General Integration Accuracy     IntAcc      ...  4.340
Radial Grid Type                 RadialGrid  ... Gauss-Chebyshev
Angular Grid (max. acc.)         AngularGrid ... Lebedev-110
Angular grid pruning method      GridPruning ... 3 (G Style)
Weight generation scheme         WeightScheme... Becke
Basis function cutoff            BFCut       ...    1.0000e-11
Integration weight cutoff        WCut        ...    1.0000e-14
Grids for H and He will be reduced by one unit

# of grid points (after initial pruning)     ...   5882 (   0.0 sec)
# of grid points (after weights+screening)   ...   5759 (   0.0 sec)
nearest neighbour list constructed           ...    0.0 sec
Grid point re-assignment to atoms done       ...    0.0 sec
Grid point division into batches done        ...    0.0 sec
Reduced shell lists constructed in    0.0 sec

Total number of grid points                  ...     5759
Total number of batches                      ...       93
Average number of points per batch           ...       61
Average number of grid points per atom       ...     1152
Average number of shells per batch           ...    19.39 (84.32%)
Average number of basis functions per batch  ...    40.16 (85.45%)
Average number of large shells per batch     ...    17.80 (91.77%)
Average number of large basis fcns per batch ...    36.56 (91.05%)
Maximum spatial batch extension              ...  21.27, 25.60, 17.62 au
Average spatial batch extension              ...   5.21,  4.88,  4.52 au

Time for grid setup =    0.062 sec

------------------------------
INITIAL GUESS: MODEL POTENTIAL
------------------------------
Loading Hartree-Fock densities                     ... done
Calculating cut-offs                               ... done
Setting up the integral package                    ... done
Initializing the effective Hamiltonian             ... done
Starting the Coulomb interaction                   ... done (   0.0 sec)
Reading the grid                                   ... done
Mapping shells                                     ... done
Starting the XC term evaluation                    ... done (   0.0 sec)
  promolecular density results
     # of electrons  =     25.992171999
     EX              =    -33.355193147
     EC              =     -0.940970633
     EX+EC           =    -34.296163780
Transforming the Hamiltonian                       ... done (   0.0 sec)
Diagonalizing the Hamiltonian                      ... done (   0.0 sec)
Back transforming the eigenvectors                 ... done (   0.0 sec)
Now organizing SCF variables                       ... done
                      ------------------
                      INITIAL GUESS DONE (   0.2 sec)
                      ------------------
--------------------
COSX GRID GENERATION
--------------------

General Integration Accuracy     IntAcc      ...  3.340
Radial Grid Type                 RadialGrid  ... Gauss-Chebyshev
Angular Grid (max. acc.)         AngularGrid ... Lebedev-50
Angular grid pruning method      GridPruning ... 3 (G Style)
Weight generation scheme         WeightScheme... Becke
Basis function cutoff            BFCut       ...    1.0000e-11
Integration weight cutoff        WCut        ...    1.0000e-14
Grids for H and He will be reduced by one unit

# of grid points (after initial pruning)     ...   2246 (   0.0 sec)
# of grid points (after weights+screening)   ...   2198 (   0.0 sec)
nearest neighbour list constructed           ...    0.0 sec
Grid point re-assignment to atoms done       ...    0.0 sec
Grid point division into batches done        ...    0.0 sec
Reduced shell lists constructed in    0.0 sec

Total number of grid points                  ...     2198
Total number of batches                      ...       37
Average number of points per batch           ...       59
Average number of grid points per atom       ...      440
Average number of shells per batch           ...    20.37 (88.56%)
Average number of basis functions per batch  ...    42.63 (90.71%)
Average number of large shells per batch     ...    19.11 (93.80%)
Average number of large basis fcns per batch ...    39.84 (93.46%)
Maximum spatial batch extension              ...  18.64, 20.68, 18.16 au
Average spatial batch extension              ...   7.22,  7.27,  5.93 au

Overlap Fitting                  UseSFitting ... on
Constructing numerical overlap ... done (      0.0 sec)
Inverting numerical overlap    ... done (      0.0 sec)
Obtaining analytic overlap     ... done (      0.0 sec)
Final contraction and storage  ... done (      0.0 sec)


General Integration Accuracy     IntAcc      ...  3.670
Radial Grid Type                 RadialGrid  ... Gauss-Chebyshev
Angular Grid (max. acc.)         AngularGrid ... Lebedev-50
Angular grid pruning method      GridPruning ... 3 (G Style)
Weight generation scheme         WeightScheme... Becke
Basis function cutoff            BFCut       ...    1.0000e-11
Integration weight cutoff        WCut        ...    1.0000e-14
Grids for H and He will be reduced by one unit

# of grid points (after initial pruning)     ...   2860 (   0.0 sec)
# of grid points (after weights+screening)   ...   2799 (   0.0 sec)
nearest neighbour list constructed           ...    0.0 sec
Grid point re-assignment to atoms done       ...    0.0 sec
Grid point division into batches done        ...    0.0 sec
Reduced shell lists constructed in    0.0 sec

Total number of grid points                  ...     2799
Total number of batches                      ...       46
Average number of points per batch           ...       60
Average number of grid points per atom       ...      560
Average number of shells per batch           ...    20.23 (87.97%)
Average number of basis functions per batch  ...    42.23 (89.86%)
Average number of large shells per batch     ...    18.96 (93.69%)
Average number of large basis fcns per batch ...    39.21 (92.85%)
Maximum spatial batch extension              ...  20.74, 22.63, 19.99 au
Average spatial batch extension              ...   6.64,  6.81,  5.53 au

Overlap Fitting                  UseSFitting ... on
Constructing numerical overlap ... done (      0.0 sec)
Inverting numerical overlap    ... done (      0.0 sec)
Obtaining analytic overlap     ... done (      0.0 sec)
Final contraction and storage  ... done (      0.0 sec)


General Integration Accuracy     IntAcc      ...  4.010
Radial Grid Type                 RadialGrid  ... Gauss-Chebyshev
Angular Grid (max. acc.)         AngularGrid ... Lebedev-110
Angular grid pruning method      GridPruning ... 3 (G Style)
Weight generation scheme         WeightScheme... Becke
Basis function cutoff            BFCut       ...    1.0000e-11
Integration weight cutoff        WCut        ...    1.0000e-14
Grids for H and He will be reduced by one unit

# of grid points (after initial pruning)     ...   5128 (   0.0 sec)
# of grid points (after weights+screening)   ...   5021 (   0.0 sec)
nearest neighbour list constructed           ...    0.0 sec
Grid point re-assignment to atoms done       ...    0.0 sec
Grid point division into batches done        ...    0.0 sec
Reduced shell lists constructed in    0.0 sec

Total number of grid points                  ...     5021
Total number of batches                      ...       80
Average number of points per batch           ...       62
Average number of grid points per atom       ...     1004
Average number of shells per batch           ...    19.56 (85.02%)
Average number of basis functions per batch  ...    40.42 (86.00%)
Average number of large shells per batch     ...    18.17 (92.93%)
Average number of large basis fcns per batch ...    37.51 (92.79%)
Maximum spatial batch extension              ...  20.33, 24.23, 20.15 au
Average spatial batch extension              ...   5.47,  5.21,  4.85 au

Overlap Fitting                  UseSFitting ... on
Constructing numerical overlap ... done (      0.0 sec)
Inverting numerical overlap    ... done (      0.0 sec)
Obtaining analytic overlap     ... done (      0.0 sec)
Final contraction and storage  ... done (      0.0 sec)

Time for X-Grid setup             =    0.157 sec

--------------------
CPCM SOLVATION MODEL
--------------------
CPCM parameters:
  Epsilon                                         ...      80.4000
  Refrac                                          ...       1.3300
  Rsolv                                           ...       1.3000
  Surface type                                    ... GAUSSIAN VDW
  Epsilon function type                           ...         CPCM
Radii:
 Radius for C  used is    3.8550 Bohr (=   2.0400 Ang.)
 Radius for Cl used is    3.9684 Bohr (=   2.1000 Ang.)
 Radius for H  used is    2.4944 Bohr (=   1.3200 Ang.)
Calculating surface                               ...        done! (  0.0s)
GEPOL surface points                              ...          349
GEPOL Volume                                      ...     422.8462
GEPOL Surface-area                                ...     289.1418
Calculating surface distance matrix               ...        done! (  0.0s)
Performing Cholesky decomposition & store         ...        done! (  0.0s)
Overall time for CPCM initialization              ...                 0.0s
--------------
SCF ITERATIONS
--------------
ITER       Energy         Delta-E        Max-DP      RMS-DP      [F,P]     Damp
               ***  Starting incremental Fock matrix formation  ***
  0   -499.7045561615   0.000000000000 0.05044818  0.00244118  0.1090579 0.7000
  1   -499.7164757840  -0.011919622505 0.03114770  0.00177386  0.0578664 0.7000
                               ***Turning on DIIS***
  2   -499.7219150593  -0.005439275306 0.05922796  0.00332869  0.0226810 0.0000
  3   -499.7301136437  -0.008198584405 0.02594768  0.00112741  0.0310454 0.0000
  4   -499.7319226412  -0.001808997473 0.00554280  0.00029012  0.0034160 0.0000
                      *** Initiating the SOSCF procedure ***
                           *** Shutting down DIIS ***
                      *** Re-Reading the Fockian *** 
                      *** Removing any level shift *** 
ITER      Energy       Delta-E        Grad      Rot      Max-DP    RMS-DP
  5   -499.73196875  -0.0000461043  0.000434  0.000434  0.000938  0.000079
               *** Restarting incremental Fock matrix formation ***
  6   -499.73197271  -0.0000039663  0.000208  0.000354  0.000633  0.000053
  7   -499.73197270   0.0000000119  0.000164  0.000126  0.000396  0.000017
  8   -499.73197303  -0.0000003324  0.000030  0.000044  0.000153  0.000007
  9   -499.73197303  -0.0000000023  0.000021  0.000016  0.000066  0.000003
                  ***Gradient check signals convergence***
              ***Rediagonalizing the Fockian in SOSCF/NRSCF***

               *****************************************************
               *                     SUCCESS                       *
               *           SCF CONVERGED AFTER  10 CYCLES          *
               *****************************************************

Setting up the final grid:

General Integration Accuracy     IntAcc      ...  4.670
Radial Grid Type                 RadialGrid  ... Gauss-Chebyshev
Angular Grid (max. acc.)         AngularGrid ... Lebedev-302
Angular grid pruning method      GridPruning ... 3 (G Style)
Weight generation scheme         WeightScheme... Becke
Basis function cutoff            BFCut       ...    1.0000e-11
Integration weight cutoff        WCut        ...    1.0000e-14
Grids for H and He will be reduced by one unit

# of grid points (after initial pruning)     ...  23132 (   0.0 sec)
# of grid points (after weights+screening)   ...  22578 (   0.0 sec)
nearest neighbour list constructed           ...    0.0 sec
Grid point re-assignment to atoms done       ...    0.0 sec
Grid point division into batches done        ...    0.1 sec
Reduced shell lists constructed in    0.2 sec

Total number of grid points                  ...    22578
Total number of batches                      ...      355
Average number of points per batch           ...       63
Average number of grid points per atom       ...     4516
Average number of shells per batch           ...    17.79 (77.34%)
Average number of basis functions per batch  ...    36.81 (78.32%)
Average number of large shells per batch     ...    16.12 (90.60%)
Average number of large basis fcns per batch ...    33.11 (89.94%)
Maximum spatial batch extension              ...  20.57, 20.64, 19.50 au
Average spatial batch extension              ...   3.38,  3.31,  3.18 au

Final grid set up in    0.2 sec
Final integration                            ... done (   0.1 sec)
Change in XC energy                          ...    -0.000615025
Integrated number of electrons               ...    25.999997618
Previous integrated no of electrons          ...    25.995204805
Old exchange energy                            =     -8.442355750 Eh
New exchange energy                            =     -8.442005424 Eh
Exchange energy change after final integration =      0.000350326 Eh
Total energy after final integration           =   -499.732237738 Eh
Final COS-X integration done in                =     0.333 sec

----------------
TOTAL SCF ENERGY
----------------

Total Energy       :         -499.73223774 Eh          -13598.40552 eV

Components:
Nuclear Repulsion  :           51.18068024 Eh            1392.69711 eV
Electronic Energy  :         -550.91291798 Eh          -14991.10263 eV
One Electron Energy:         -790.03437325 Eh          -21497.92823 eV
Two Electron Energy:          239.12145528 Eh            6506.82560 eV
CPCM Dielectric    :           -0.00449748 Eh              -0.12238 eV

Virial components:
Potential Energy   :         -998.16428248 Eh          -27161.43099 eV
Kinetic Energy     :          498.43204475 Eh           13563.02547 eV
Virial Ratio       :            2.00260857


DFT components:
N(Alpha)           :       12.999998808865 electrons
N(Beta)            :       12.999998808865 electrons
N(Total)           :       25.999997617730 electrons
E(X)               :      -25.177278110145 Eh       
E(C)               :       -0.949966823792 Eh       
E(XC)              :      -26.127244933937 Eh       
DFET-embed. en.    :        0.000000000000 Eh       
CPCM Solvation Model Properties:
Surface-charge          :           -0.00837923
Charge-correction       :            0.00001349 Eh               0.00037 eV
Free-energy (cav+disp)  :            0.00297790 Eh               0.08103 eV
Corrected G(solv)       :         -499.72924634 Eh          -13598.32412 eV

---------------
SCF CONVERGENCE
---------------

  Last Energy change         ...   -3.8302e-09  Tolerance :   1.0000e-08
  Last MAX-Density change    ...    1.3600e-15  Tolerance :   1.0000e-07
  Last RMS-Density change    ...    7.9470e-17  Tolerance :   5.0000e-09
  Last Orbital Gradient      ...    9.8037e-07  Tolerance :   1.0000e-05
  Last Orbital Rotation      ...    9.0542e-07  Tolerance :   1.0000e-05

             **** THE GBW FILE WAS UPDATED (opt_orca.gbw) ****
             **** DENSITY FILE WAS UPDATED (opt_orca.scfp) ****
             **** ENERGY FILE WAS UPDATED (opt_orca.en.tmp) ****
             **** THE GBW FILE WAS UPDATED (opt_orca.gbw) ****
             **** DENSITY FILE WAS UPDATED (opt_orca.scfp) ****
----------------
ORBITAL ENERGIES
----------------

  NO   OCC          E(Eh)            E(eV) 
   0   2.0000    -101.664483     -2766.4312 
   1   2.0000     -10.280536      -279.7476 
   2   2.0000      -9.515518      -258.9304 
   3   2.0000      -7.257047      -197.4743 
   4   2.0000      -7.247266      -197.2081 
   5   2.0000      -7.247233      -197.2072 
   6   2.0000      -0.867987       -23.6191 
   7   2.0000      -0.675677       -18.3861 
   8   2.0000      -0.451234       -12.2787 
   9   2.0000      -0.446874       -12.1601 
  10   2.0000      -0.421356       -11.4657 
  11   2.0000      -0.304749        -8.2926 
  12   2.0000      -0.303583        -8.2609 
  13   0.0000       0.057058         1.5526 
  14   0.0000       0.102087         2.7779 
  15   0.0000       0.141677         3.8552 
  16   0.0000       0.143384         3.9017 
  17   0.0000       0.420344        11.4381 
  18   0.0000       0.433766        11.8034 
  19   0.0000       0.440898        11.9974 
  20   0.0000       0.532105        14.4793 
  21   0.0000       0.658660        17.9231 
  22   0.0000       0.667975        18.1765 
  23   0.0000       0.670370        18.2417 
  24   0.0000       0.781357        21.2618 
  25   0.0000       0.786787        21.4096 
  26   0.0000       0.798827        21.7372 
  27   0.0000       0.813888        22.1470 
  28   0.0000       0.814801        22.1719 
  29   0.0000       0.818027        22.2596 
  30   0.0000       0.915282        24.9061 
  31   0.0000       0.921084        25.0640 
  32   0.0000       1.260089        34.2888 
  33   0.0000       1.276377        34.7320 
  34   0.0000       1.321218        35.9522 
  35   0.0000       1.512737        41.1637 
  36   0.0000       1.716137        46.6985 
  37   0.0000       1.725905        46.9643 
  38   0.0000       1.866045        50.7777 
  39   0.0000       1.954118        53.1743 
  40   0.0000       1.966283        53.5053 
  41   0.0000       2.182177        59.3800 
  42   0.0000       2.392795        65.1112 
  43   0.0000       2.407184        65.5028 
  44   0.0000       2.687959        73.1431 
  45   0.0000       2.870462        78.1093 
  46   0.0000       2.890644        78.6584 

                    ********************************
                    * MULLIKEN POPULATION ANALYSIS *
                    ********************************

-----------------------
MULLIKEN ATOMIC CHARGES
-----------------------
   0 C :   -0.095073
   1 Cl:   -0.243185
   2 H :    0.110414
   3 H :    0.116165
   4 H :    0.111679
Sum of atomic charges:   -0.0000000

--------------------------------
MULLIKEN REDUCED ORBITAL CHARGES
--------------------------------
  0 C s       :     3.134932  s :     3.134932
      pz      :     1.099322  p :     2.927646
      px      :     0.730587
      py      :     1.097737
      dz2     :     0.006341  d :     0.032494
      dxz     :     0.005873
      dyz     :     0.004565
      dx2y2   :     0.010274
      dxy     :     0.005442
  1 Cls       :     5.961519  s :     5.961519
      pz      :     3.977979  p :    11.248030
      px      :     3.290629
      py      :     3.979422
      dz2     :     0.005019  d :     0.033636
      dxz     :     0.006789
      dyz     :     0.000021
      dx2y2   :     0.014963
      dxy     :     0.006844
  2 H s       :     0.865974  s :     0.865974
      pz      :     0.012218  p :     0.023612
      px      :     0.004301
      py      :     0.007093
  3 H s       :     0.860504  s :     0.860504
      pz      :     0.011723  p :     0.023331
      px      :     0.004663
      py      :     0.006945
  4 H s       :     0.864613  s :     0.864613
      pz      :     0.004663  p :     0.023708
      px      :     0.004108
      py      :     0.014938


                     *******************************
                     * LOEWDIN POPULATION ANALYSIS *
                     *******************************

----------------------
LOEWDIN ATOMIC CHARGES
----------------------
   0 C :   -0.107609
   1 Cl:   -0.018944
   2 H :    0.041384
   3 H :    0.044299
   4 H :    0.040870

-------------------------------
LOEWDIN REDUCED ORBITAL CHARGES
-------------------------------
  0 C s       :     2.920702  s :     2.920702
      pz      :     1.122123  p :     3.109794
      px      :     0.867196
      py      :     1.120475
      dz2     :     0.014836  d :     0.077113
      dxz     :     0.014601
      dyz     :     0.011449
      dx2y2   :     0.022927
      dxy     :     0.013299
  1 Cls       :     5.783588  s :     5.783588
      pz      :     3.956725  p :    11.199430
      px      :     3.284998
      py      :     3.957707
      dz2     :     0.005602  d :     0.035926
      dxz     :     0.006770
      dyz     :     0.000018
      dx2y2   :     0.016732
      dxy     :     0.006803
  2 H s       :     0.889732  s :     0.889732
      pz      :     0.035509  p :     0.068884
      px      :     0.013584
      py      :     0.019791
  3 H s       :     0.887878  s :     0.887878
      pz      :     0.033704  p :     0.067823
      px      :     0.014597
      py      :     0.019521
  4 H s       :     0.889664  s :     0.889664
      pz      :     0.012823  p :     0.069466
      px      :     0.013100
      py      :     0.043543


                      *****************************
                      * MAYER POPULATION ANALYSIS *
                      *****************************

  NA   - Mulliken gross atomic population
  ZA   - Total nuclear charge
  QA   - Mulliken gross atomic charge
  VA   - Mayer's total valence
  BVA  - Mayer's bonded valence
  FA   - Mayer's free valence

  ATOM       NA         ZA         QA         VA         BVA        FA
  0 C      6.0951     6.0000    -0.0951     3.8768     3.8768     0.0000
  1 Cl    17.2432    17.0000    -0.2432     0.9903     0.9903    -0.0000
  2 H      0.8896     1.0000     0.1104     0.9769     0.9769     0.0000
  3 H      0.8838     1.0000     0.1162     0.9752     0.9752     0.0000
  4 H      0.8883     1.0000     0.1117     0.9772     0.9772    -0.0000

  Mayer bond orders larger than 0.100000
B(  0-C ,  1-Cl) :   0.9635 B(  0-C ,  2-H ) :   0.9723 B(  0-C ,  3-H ) :   0.9691 
B(  0-C ,  4-H ) :   0.9719 


------------------
HIRSHFELD ANALYSIS
------------------

Total integrated alpha density =     12.997602403
Total integrated beta density  =     12.997602403

  ATOM     CHARGE      SPIN    
   0 C   -0.006897    0.000000
   1 Cl  -0.147994    0.000000
   2 H    0.051827    0.000000
   3 H    0.055051    0.000000
   4 H    0.052807    0.000000

  TOTAL   0.004795    0.000000

-------
TIMINGS
-------

Total SCF time: 0 days 0 hours 0 min 6 sec 

Total time                  ....       6.610 sec
Sum of individual times     ....       6.320 sec  ( 95.6%)

Fock matrix formation       ....       5.723 sec  ( 86.6%)
  Split-RI-J                ....       1.206 sec  ( 21.1% of F)
  Chain of spheres X        ....       2.093 sec  ( 36.6% of F)
  COS-X 1 center corr.      ....       0.000 sec  (  0.0% of F)
  XC integration            ....       0.509 sec  (  8.9% of F)
    Basis function eval.    ....       0.201 sec  ( 39.5% of XC)
    Density eval.           ....       0.075 sec  ( 14.6% of XC)
    XC-Functional eval.     ....       0.111 sec  ( 21.9% of XC)
    XC-Potential eval.      ....       0.088 sec  ( 17.3% of XC)
Diagonalization             ....       0.003 sec  (  0.0%)
Density matrix formation    ....       0.000 sec  (  0.0%)
Population analysis         ....       0.041 sec  (  0.6%)
Initial guess               ....       0.164 sec  (  2.5%)
Orbital Transformation      ....       0.000 sec  (  0.0%)
Orbital Orthonormalization  ....       0.000 sec  (  0.0%)
DIIS solution               ....       0.001 sec  (  0.0%)
SOSCF solution              ....       0.002 sec  (  0.0%)
Grid generation             ....       0.387 sec  (  5.8%)


-------------------------------------------------------------------------------
                          DFT DISPERSION CORRECTION                            
                                                                               
                              DFTD3 V3.1  Rev 1                                
                          USING Becke-Johnson damping                          
-------------------------------------------------------------------------------
The PBE0 functional is recognized
Active option DFTDOPT                   ...         4   

molecular C6(AA) [au] = 362.796682 


            DFT-D V3
 parameters
 s6 scaling factor         :     1.0000 
 a1 scaling factor         :     0.4145 
 s8 scaling factor         :     1.2177 
 a2 scaling factor         :     4.8593 
 ad hoc parameters k1-k3   :    16.0000     1.3333    -4.0000 

 Edisp/kcal,au: -1.134847179604  -0.001808493904 
 E6   /kcal   :  -0.707351267 
 E8   /kcal   :  -0.427495913 
 % E8         :  37.669910148 

-------------------------   ----------------
Dispersion correction           -0.001808494
-------------------------   ----------------


-------------------------   --------------------
FINAL SINGLE POINT ENERGY      -499.734046231453
-------------------------   --------------------

------------------------------------------------------------------------------
                         ORCA SCF GRADIENT CALCULATION
------------------------------------------------------------------------------

Gradient of the Kohn-Sham DFT energy:
Kohn-Sham wavefunction type      ... RKS
Hartree-Fock exchange scaling    ...    0.250
Number of operators              ...    1
Number of atoms                  ...    5
Basis set dimensions             ...   47
Integral neglect threshold       ... 2.5e-11
Integral primitive cutoff        ... 2.5e-12

Nuclear repulsion gradient       ... done
One Electron Gradient            ... done
Pre-screening matrix             ... done
RI-J gradient                    ... done
COSX-gradient                    ... done
Exchange-correlation gradient    ... done
Dispersion correction            ... done

------------------
CARTESIAN GRADIENT
------------------

   1   C   :    0.004609623    0.002960220   -0.002060785
   2   Cl  :   -0.002062294    0.002141345    0.001976061
   3   H   :   -0.000480919   -0.002135042    0.004248433
   4   H   :   -0.004757549   -0.005822851   -0.006144780
   5   H   :    0.001789289    0.004163948    0.002283429

Difference to translation invariance:
           :   -0.0009018496    0.0013076208    0.0003023584

Norm of the cartesian gradient     ...    0.0137801567
RMS gradient                       ...    0.0035580212
MAX gradient                       ...    0.0061447796

-------
TIMINGS
-------

Total SCF gradient time            ...        1.393 sec

One electron gradient       ....       0.005 sec  (  0.3%)
Prescreening matrices       ....       0.013 sec  (  0.9%)
RI-J Coulomb gradient       ....       0.095 sec  (  6.8%)
COSX gradient               ....       0.318 sec  ( 22.8%)
XC gradient                 ....       0.429 sec  ( 30.8%)
CPCM gradient               ....       0.134 sec  (  9.6%)
   A-Matrix (El+Nuc)        ....       0.012 sec  (  0.8%)
   Potential                ....       0.122 sec  (  8.8%)
------------------------------------------------------------------------------
                         ORCA GEOMETRY RELAXATION STEP
------------------------------------------------------------------------------

Reading the OPT-File                    .... done
Getting information on internals        .... done
Copying old internal coords+grads       .... done
Making the new internal coordinates     .... (new redundants).... done
Validating the new internal coordinates .... (new redundants).... done
Calculating the B-matrix                .... done
Calculating the G,G- and P matrices     .... done
Transforming gradient to internals      .... done
Projecting the internal gradient        .... done
Number of atoms                         ....   5
Number of internal coordinates          ....  10
Current Energy                          ....  -499.734046231 Eh
Current gradient norm                   ....     0.013780157 Eh/bohr
Maximum allowed component of the step   ....  0.300
Current trust radius                    ....  0.300
Evaluating the initial hessian          ....  (Almloef) done
Projecting the Hessian                  .... done
Forming the augmented Hessian           .... done
Diagonalizing the augmented Hessian     .... done
Last element of RFO vector              ....  0.999095312
Lowest eigenvalues of augmented Hessian:
 -0.000595264  0.285451543  0.286379802  0.308094173  0.328263586
Length of the computed step             ....  0.042565638
The final length of the internal step   ....  0.042565638
Converting the step to cartesian space:
 Initial RMS(Int)=    0.0134604365
Transforming coordinates:
 Iter   0:  RMS(Cart)=    0.0131305802 RMS(Int)=    0.0134425165
 Iter   1:  RMS(Cart)=    0.0000651408 RMS(Int)=    0.0000853183
 Iter   2:  RMS(Cart)=    0.0000006773 RMS(Int)=    0.0000006980
 Iter   3:  RMS(Cart)=    0.0000000067 RMS(Int)=    0.0000000096
done
Storing new coordinates                 .... done

                                .--------------------.
          ----------------------|Geometry convergence|-------------------------
          Item                value                   Tolerance       Converged
          ---------------------------------------------------------------------
          RMS gradient        0.0044278072            0.0001000000      NO
          MAX gradient        0.0095095688            0.0003000000      NO
          RMS step            0.0134604365            0.0020000000      NO
          MAX step            0.0284072357            0.0040000000      NO
          ........................................................
          Max(Bonds)      0.0150      Max(Angles)    0.85
          Max(Dihed)        0.00      Max(Improp)    0.00
          ---------------------------------------------------------------------

The optimization has not yet converged - more geometry cycles are needed


    ---------------------------------------------------------------------------
                         Redundant Internal Coordinates
                            (Angstroem and degrees)

        Definition                    Value    dE/dq     Step     New-Value
    ----------------------------------------------------------------------------
     1. B(Cl  1,C   0)                1.7805 -0.001934  0.0031    1.7835   
     2. B(H   2,C   0)                1.1037  0.004674 -0.0072    1.0965   
     3. B(H   3,C   0)                1.1103  0.009510 -0.0150    1.0953   
     4. B(H   4,C   0)                1.1009  0.003288 -0.0050    1.0959   
     5. A(Cl  1,C   0,H   3)          110.35  0.004394   -0.75    109.59   
     6. A(H   2,C   0,H   3)          109.56 -0.000659    0.15    109.71   
     7. A(Cl  1,C   0,H   4)          107.20 -0.004651    0.82    108.02   
     8. A(H   2,C   0,H   4)          109.78 -0.000779    0.17    109.95   
     9. A(H   3,C   0,H   4)          112.08  0.004307   -0.85    111.23   
    10. A(Cl  1,C   0,H   2)          107.76 -0.002948    0.53    108.29   
    ----------------------------------------------------------------------------

         *************************************************************
         *                GEOMETRY OPTIMIZATION CYCLE   2            *
         *************************************************************
---------------------------------
CARTESIAN COORDINATES (ANGSTROEM)
---------------------------------
  C     -0.146704    0.003227   -0.003388
  Cl     1.636173   -0.035687   -0.032239
  H     -0.487460   -0.511626    0.902712
  H     -0.539562   -0.508225   -0.888712
  H     -0.462446    1.052310    0.021627

----------------------------
CARTESIAN COORDINATES (A.U.)
----------------------------
  NO LB      ZA    FRAG     MASS         X           Y           Z
   0 C     6.0000    0    12.011   -0.277231    0.006097   -0.006403
   1 Cl   17.0000    0    35.453    3.091918   -0.067438   -0.060922
   2 H     1.0000    0     1.008   -0.921166   -0.966832    1.705878
   3 H     1.0000    0     1.008   -1.019624   -0.960405   -1.679422
   4 H     1.0000    0     1.008   -0.873897    1.988578    0.040869

--------------------------------
INTERNAL COORDINATES (ANGSTROEM)
--------------------------------
 C      0   0   0     0.000000000000     0.00000000     0.00000000
 Cl     1   0   0     1.783534946388     0.00000000     0.00000000
 H      1   2   0     1.096451081401   108.28769382     0.00000000
 H      1   2   3     1.095315713412   109.58929606   240.35665047
 H      1   2   3     1.095853950878   108.01548034   119.02943242

---------------------------
INTERNAL COORDINATES (A.U.)
---------------------------
 C      0   0   0     0.000000000000     0.00000000     0.00000000
 Cl     1   0   0     3.370392598952     0.00000000     0.00000000
 H      1   2   0     2.071992263090   108.28769382     0.00000000
 H      1   2   3     2.069846728529   109.58929606   240.35665047
 H      1   2   3     2.070863849935   108.01548034   119.02943242

 One Electron integrals                  ... done
 Pre-screening matrix                    ... done

Diagonalization of the overlap matrix:
Smallest eigenvalue                        ... 1.132e-02
Time for diagonalization                   ...    0.002 sec
Threshold for overlap eigenvalues          ... 1.000e-08
Number of eigenvalues below threshold      ... 0
Time for construction of square roots      ...    0.001 sec
Total time needed                          ...    0.002 sec

-------------------
DFT GRID GENERATION
-------------------

General Integration Accuracy     IntAcc      ...  4.340
Radial Grid Type                 RadialGrid  ... Gauss-Chebyshev
Angular Grid (max. acc.)         AngularGrid ... Lebedev-110
Angular grid pruning method      GridPruning ... 3 (G Style)
Weight generation scheme         WeightScheme... Becke
Basis function cutoff            BFCut       ...    1.0000e-11
Integration weight cutoff        WCut        ...    1.0000e-14
Grids for H and He will be reduced by one unit

# of grid points (after initial pruning)     ...   5882 (   0.0 sec)
# of grid points (after weights+screening)   ...   5759 (   0.0 sec)
nearest neighbour list constructed           ...    0.0 sec
Grid point re-assignment to atoms done       ...    0.0 sec
Grid point division into batches done        ...    0.0 sec
Reduced shell lists constructed in    0.0 sec

Total number of grid points                  ...     5759
Total number of batches                      ...       93
Average number of points per batch           ...       61
Average number of grid points per atom       ...     1152
Average number of shells per batch           ...    19.39 (84.32%)
Average number of basis functions per batch  ...    40.16 (85.45%)
Average number of large shells per batch     ...    17.84 (91.99%)
Average number of large basis fcns per batch ...    36.61 (91.15%)
Maximum spatial batch extension              ...  21.27, 25.60, 17.62 au
Average spatial batch extension              ...   5.23,  4.92,  4.44 au

Time for grid setup =    0.046 sec

--------------------
COSX GRID GENERATION
--------------------

General Integration Accuracy     IntAcc      ...  3.340
Radial Grid Type                 RadialGrid  ... Gauss-Chebyshev
Angular Grid (max. acc.)         AngularGrid ... Lebedev-50
Angular grid pruning method      GridPruning ... 3 (G Style)
Weight generation scheme         WeightScheme... Becke
Basis function cutoff            BFCut       ...    1.0000e-11
Integration weight cutoff        WCut        ...    1.0000e-14
Grids for H and He will be reduced by one unit

# of grid points (after initial pruning)     ...   2246 (   0.0 sec)
# of grid points (after weights+screening)   ...   2200 (   0.0 sec)
nearest neighbour list constructed           ...    0.0 sec
Grid point re-assignment to atoms done       ...    0.0 sec
Grid point division into batches done        ...    0.0 sec
Reduced shell lists constructed in    0.0 sec

Total number of grid points                  ...     2200
Total number of batches                      ...       38
Average number of points per batch           ...       57
Average number of grid points per atom       ...      440
Average number of shells per batch           ...    20.46 (88.96%)
Average number of basis functions per batch  ...    42.82 (91.11%)
Average number of large shells per batch     ...    19.13 (93.48%)
Average number of large basis fcns per batch ...    39.90 (93.17%)
Maximum spatial batch extension              ...  17.81, 20.70, 18.16 au
Average spatial batch extension              ...   6.93,  6.65,  5.70 au

Overlap Fitting                  UseSFitting ... on
Constructing numerical overlap ... done (      0.0 sec)
Inverting numerical overlap    ... done (      0.0 sec)
Obtaining analytic overlap     ... done (      0.0 sec)
Final contraction and storage  ... done (      0.0 sec)


General Integration Accuracy     IntAcc      ...  3.670
Radial Grid Type                 RadialGrid  ... Gauss-Chebyshev
Angular Grid (max. acc.)         AngularGrid ... Lebedev-50
Angular grid pruning method      GridPruning ... 3 (G Style)
Weight generation scheme         WeightScheme... Becke
Basis function cutoff            BFCut       ...    1.0000e-11
Integration weight cutoff        WCut        ...    1.0000e-14
Grids for H and He will be reduced by one unit

# of grid points (after initial pruning)     ...   2860 (   0.0 sec)
# of grid points (after weights+screening)   ...   2796 (   0.0 sec)
nearest neighbour list constructed           ...    0.0 sec
Grid point re-assignment to atoms done       ...    0.0 sec
Grid point division into batches done        ...    0.0 sec
Reduced shell lists constructed in    0.0 sec

Total number of grid points                  ...     2796
Total number of batches                      ...       46
Average number of points per batch           ...       60
Average number of grid points per atom       ...      559
Average number of shells per batch           ...    20.26 (88.07%)
Average number of basis functions per batch  ...    42.30 (90.00%)
Average number of large shells per batch     ...    18.98 (93.70%)
Average number of large basis fcns per batch ...    39.36 (93.06%)
Maximum spatial batch extension              ...  18.82, 22.63, 20.01 au
Average spatial batch extension              ...   6.42,  6.27,  5.44 au

Overlap Fitting                  UseSFitting ... on
Constructing numerical overlap ... done (      0.0 sec)
Inverting numerical overlap    ... done (      0.0 sec)
Obtaining analytic overlap     ... done (      0.0 sec)
Final contraction and storage  ... done (      0.0 sec)


General Integration Accuracy     IntAcc      ...  4.010
Radial Grid Type                 RadialGrid  ... Gauss-Chebyshev
Angular Grid (max. acc.)         AngularGrid ... Lebedev-110
Angular grid pruning method      GridPruning ... 3 (G Style)
Weight generation scheme         WeightScheme... Becke
Basis function cutoff            BFCut       ...    1.0000e-11
Integration weight cutoff        WCut        ...    1.0000e-14
Grids for H and He will be reduced by one unit

# of grid points (after initial pruning)     ...   5128 (   0.0 sec)
# of grid points (after weights+screening)   ...   5022 (   0.0 sec)
nearest neighbour list constructed           ...    0.0 sec
Grid point re-assignment to atoms done       ...    0.0 sec
Grid point division into batches done        ...    0.0 sec
Reduced shell lists constructed in    0.0 sec

Total number of grid points                  ...     5022
Total number of batches                      ...       80
Average number of points per batch           ...       62
Average number of grid points per atom       ...     1004
Average number of shells per batch           ...    19.56 (85.02%)
Average number of basis functions per batch  ...    40.42 (86.00%)
Average number of large shells per batch     ...    18.15 (92.80%)
Average number of large basis fcns per batch ...    37.41 (92.55%)
Maximum spatial batch extension              ...  20.41, 24.23, 20.15 au
Average spatial batch extension              ...   5.44,  5.21,  4.69 au

Overlap Fitting                  UseSFitting ... on
Constructing numerical overlap ... done (      0.0 sec)
Inverting numerical overlap    ... done (      0.0 sec)
Obtaining analytic overlap     ... done (      0.0 sec)
Final contraction and storage  ... done (      0.0 sec)

Time for X-Grid setup             =    0.189 sec

--------------------
CPCM SOLVATION MODEL
--------------------
CPCM parameters:
  Epsilon                                         ...      80.4000
  Refrac                                          ...       1.3300
  Rsolv                                           ...       1.3000
  Surface type                                    ... GAUSSIAN VDW
  Epsilon function type                           ...         CPCM
Radii:
 Radius for C  used is    3.8550 Bohr (=   2.0400 Ang.)
 Radius for Cl used is    3.9684 Bohr (=   2.1000 Ang.)
 Radius for H  used is    2.4944 Bohr (=   1.3200 Ang.)
Calculating surface                               ...        done! (  0.0s)
GEPOL surface points                              ...          352
GEPOL Volume                                      ...     422.2763
GEPOL Surface-area                                ...     288.7364
Calculating surface distance matrix               ...        done! (  0.0s)
Performing Cholesky decomposition & store         ...        done! (  0.0s)
Overall time for CPCM initialization              ...                 0.0s
--------------
SCF ITERATIONS
--------------
ITER       Energy         Delta-E        Max-DP      RMS-DP      [F,P]     Damp
               ***  Starting incremental Fock matrix formation  ***
                      *** Initiating the SOSCF procedure ***
                      *** Re-Reading the Fockian *** 
                      *** Removing any level shift *** 
ITER      Energy       Delta-E        Grad      Rot      Max-DP    RMS-DP
  0   -499.73218440 -499.7321844034  0.001886  0.001886  0.004896  0.000335
               *** Restarting incremental Fock matrix formation ***
  1   -499.73224959  -0.0000651842  0.000598  0.001658  0.002203  0.000158
  2   -499.73225463  -0.0000050381  0.000444  0.000581  0.000994  0.000069
  3   -499.73225631  -0.0000016827  0.000086  0.000242  0.000281  0.000024
  4   -499.73225666  -0.0000003479  0.000019  0.000020  0.000027  0.000003
  5   -499.73225666  -0.0000000086  0.000009  0.000006  0.000014  0.000001
                  ***Gradient check signals convergence***
              ***Rediagonalizing the Fockian in SOSCF/NRSCF***

               *****************************************************
               *                     SUCCESS                       *
               *           SCF CONVERGED AFTER   6 CYCLES          *
               *****************************************************

Setting up the final grid:

General Integration Accuracy     IntAcc      ...  4.670
Radial Grid Type                 RadialGrid  ... Gauss-Chebyshev
Angular Grid (max. acc.)         AngularGrid ... Lebedev-302
Angular grid pruning method      GridPruning ... 3 (G Style)
Weight generation scheme         WeightScheme... Becke
Basis function cutoff            BFCut       ...    1.0000e-11
Integration weight cutoff        WCut        ...    1.0000e-14
Grids for H and He will be reduced by one unit

# of grid points (after initial pruning)     ...  23132 (   0.0 sec)
# of grid points (after weights+screening)   ...  22577 (   0.0 sec)
nearest neighbour list constructed           ...    0.0 sec
Grid point re-assignment to atoms done       ...    0.0 sec
Grid point division into batches done        ...    0.1 sec
Reduced shell lists constructed in    0.2 sec

Total number of grid points                  ...    22577
Total number of batches                      ...      356
Average number of points per batch           ...       63
Average number of grid points per atom       ...     4515
Average number of shells per batch           ...    17.76 (77.23%)
Average number of basis functions per batch  ...    36.74 (78.18%)
Average number of large shells per batch     ...    16.17 (91.01%)
Average number of large basis fcns per batch ...    33.20 (90.35%)
Maximum spatial batch extension              ...  20.57, 20.64, 19.50 au
Average spatial batch extension              ...   3.38,  3.30,  3.17 au

Final grid set up in    0.2 sec
Final integration                            ... done (   0.1 sec)
Change in XC energy                          ...    -0.000651973
Integrated number of electrons               ...    25.999999784
Previous integrated no of electrons          ...    25.995037020
Old exchange energy                            =     -8.444546385 Eh
New exchange energy                            =     -8.444204249 Eh
Exchange energy change after final integration =      0.000342136 Eh
Total energy after final integration           =   -499.732566497 Eh
Final COS-X integration done in                =     0.344 sec
Total Energy       :         -499.73256650 Eh          -13598.41446 eV
  Last Energy change         ...    4.8155e-09  Tolerance :   1.0000e-08
  Last MAX-Density change    ...    1.7764e-15  Tolerance :   1.0000e-07
             **** THE GBW FILE WAS UPDATED (opt_orca.gbw) ****
             **** DENSITY FILE WAS UPDATED (opt_orca.scfp) ****
             **** ENERGY FILE WAS UPDATED (opt_orca.en.tmp) ****
             **** THE GBW FILE WAS UPDATED (opt_orca.gbw) ****
             **** DENSITY FILE WAS UPDATED (opt_orca.scfp) ****
Total SCF time: 0 days 0 hours 0 min 5 sec 


-------------------------------------------------------------------------------
                          DFT DISPERSION CORRECTION                            
                                                                               
                              DFTD3 V3.1  Rev 1                                
                          USING Becke-Johnson damping                          
-------------------------------------------------------------------------------
-------------------------   ----------------
Dispersion correction           -0.001808571
-------------------------   ----------------


-------------------------   --------------------
FINAL SINGLE POINT ENERGY      -499.734375067632
-------------------------   --------------------

------------------------------------------------------------------------------
                         ORCA SCF GRADIENT CALCULATION
------------------------------------------------------------------------------

Gradient of the Kohn-Sham DFT energy:
Kohn-Sham wavefunction type      ... RKS
Hartree-Fock exchange scaling    ...    0.250
Number of operators              ...    1
Number of atoms                  ...    5
Basis set dimensions             ...   47
Integral neglect threshold       ... 2.5e-11
Integral primitive cutoff        ... 2.5e-12

Nuclear repulsion gradient       ... done
One Electron Gradient            ... done
Pre-screening matrix             ... done
RI-J gradient                    ... done
COSX-gradient                    ... done
Exchange-correlation gradient    ... done
Dispersion correction            ... done

------------------
CARTESIAN GRADIENT
------------------

   1   C   :   -0.000849089    0.000108502   -0.003298142
   2   Cl  :   -0.000408968    0.001325816    0.000991859
   3   H   :    0.000085604    0.000026080    0.000105728
   4   H   :   -0.000870343   -0.000569813    0.001262106
   5   H   :    0.001071487    0.000416861    0.001188968

Difference to translation invariance:
           :   -0.0009713080    0.0013074462    0.0002505198

Norm of the cartesian gradient     ...    0.0044664386
RMS gradient                       ...    0.0011532295
MAX gradient                       ...    0.0032981415

-------
TIMINGS
-------

Total SCF gradient time            ...        1.200 sec

One electron gradient       ....       0.004 sec  (  0.4%)
Prescreening matrices       ....       0.012 sec  (  1.0%)
RI-J Coulomb gradient       ....       0.095 sec  (  7.9%)
COSX gradient               ....       0.314 sec  ( 26.2%)
XC gradient                 ....       0.397 sec  ( 33.1%)
CPCM gradient               ....       0.110 sec  (  9.1%)
   A-Matrix (El+Nuc)        ....       0.009 sec  (  0.7%)
   Potential                ....       0.101 sec  (  8.4%)
------------------------------------------------------------------------------
                         ORCA GEOMETRY RELAXATION STEP
------------------------------------------------------------------------------

Reading the OPT-File                    .... done
Getting information on internals        .... done
Copying old internal coords+grads       .... done
Making the new internal coordinates     .... (new redundants).... done
Validating the new internal coordinates .... (new redundants).... done
Calculating the B-matrix                .... done
Calculating the G,G- and P matrices     .... done
Transforming gradient to internals      .... done
Projecting the internal gradient        .... done
Number of atoms                         ....   5
Number of internal coordinates          ....  10
Current Energy                          ....  -499.734375068 Eh
Current gradient norm                   ....     0.004466439 Eh/bohr
Maximum allowed component of the step   ....  0.300
Current trust radius                    ....  0.300
Updating the Hessian (BFGS)             .... done
Forming the augmented Hessian           .... done
Diagonalizing the augmented Hessian     .... done
Last element of RFO vector              ....  0.999819475
Lowest eigenvalues of augmented Hessian:
 -0.000079311  0.209019259  0.286093725  0.300975989  0.309474076
Length of the computed step             ....  0.019003865
The final length of the internal step   ....  0.019003865
Converting the step to cartesian space:
 Initial RMS(Int)=    0.0060095496
Transforming coordinates:
 Iter   0:  RMS(Cart)=    0.0063087165 RMS(Int)=    0.0059999132
 Iter   1:  RMS(Cart)=    0.0000300910 RMS(Int)=    0.0000380419
 Iter   2:  RMS(Cart)=    0.0000001753 RMS(Int)=    0.0000002002
 Iter   3:  RMS(Cart)=    0.0000000015 RMS(Int)=    0.0000000017
done
Storing new coordinates                 .... done

                                .--------------------.
          ----------------------|Geometry convergence|-------------------------
          Item                value                   Tolerance       Converged
          ---------------------------------------------------------------------
          Energy change      -0.0003288362            0.0000050000      NO
          RMS gradient        0.0013460222            0.0001000000      NO
          MAX gradient        0.0025209438            0.0003000000      NO
          RMS step            0.0060095496            0.0020000000      NO
          MAX step            0.0104564327            0.0040000000      NO
          ........................................................
          Max(Bonds)      0.0008      Max(Angles)    0.60
          Max(Dihed)        0.00      Max(Improp)    0.00
          ---------------------------------------------------------------------

The optimization has not yet converged - more geometry cycles are needed


    ---------------------------------------------------------------------------
                         Redundant Internal Coordinates
                            (Angstroem and degrees)

        Definition                    Value    dE/dq     Step     New-Value
    ----------------------------------------------------------------------------
     1. B(Cl  1,C   0)                1.7835 -0.000253  0.0008    1.7843   
     2. B(H   2,C   0)                1.0965  0.000058 -0.0008    1.0956   
     3. B(H   3,C   0)                1.0953 -0.000357 -0.0008    1.0945   
     4. B(H   4,C   0)                1.0959 -0.000170 -0.0002    1.0957   
     5. A(Cl  1,C   0,H   3)          109.59  0.002521   -0.60    108.99   
     6. A(H   2,C   0,H   3)          109.71 -0.000867    0.23    109.94   
     7. A(Cl  1,C   0,H   4)          108.02 -0.002110    0.53    108.54   
     8. A(H   2,C   0,H   4)          109.94 -0.000593    0.17    110.11   
     9. A(H   3,C   0,H   4)          111.23  0.002145   -0.59    110.64   
    10. A(Cl  1,C   0,H   2)          108.29 -0.001176    0.30    108.59   
    ----------------------------------------------------------------------------

         *************************************************************
         *                GEOMETRY OPTIMIZATION CYCLE   3            *
         *************************************************************
---------------------------------
CARTESIAN COORDINATES (ANGSTROEM)
---------------------------------
  C     -0.146074    0.003974    0.000864
  Cl     1.637321   -0.039775   -0.036333
  H     -0.489301   -0.511546    0.904657
  H     -0.533363   -0.503602   -0.888142
  H     -0.468582    1.050950    0.018955

----------------------------
CARTESIAN COORDINATES (A.U.)
----------------------------
  NO LB      ZA    FRAG     MASS         X           Y           Z
   0 C     6.0000    0    12.011   -0.276040    0.007510    0.001632
   1 Cl   17.0000    0    35.453    3.094087   -0.075165   -0.068660
   2 H     1.0000    0     1.008   -0.924646   -0.966683    1.709554
   3 H     1.0000    0     1.008   -1.007911   -0.951670   -1.678345
   4 H     1.0000    0     1.008   -0.885492    1.986007    0.035819

--------------------------------
INTERNAL COORDINATES (ANGSTROEM)
--------------------------------
 C      0   0   0     0.000000000000     0.00000000     0.00000000
 Cl     1   0   0     1.784318741755     0.00000000     0.00000000
 H      1   2   0     1.095631758670   108.58833031     0.00000000
 H      1   2   3     1.094512415748   108.98740611   240.25426024
 H      1   2   3     1.095671529976   108.54009998   119.69258122

---------------------------
INTERNAL COORDINATES (A.U.)
---------------------------
 C      0   0   0     0.000000000000     0.00000000     0.00000000
 Cl     1   0   0     3.371873757540     0.00000000     0.00000000
 H      1   2   0     2.070443967513   108.58833031     0.00000000
 H      1   2   3     2.068328715941   108.98740611   240.25426024
 H      1   2   3     2.070519124388   108.54009998   119.69258122

 One Electron integrals                  ... done
 Pre-screening matrix                    ... done

Diagonalization of the overlap matrix:
Smallest eigenvalue                        ... 1.134e-02
Time for diagonalization                   ...    0.002 sec
Threshold for overlap eigenvalues          ... 1.000e-08
Number of eigenvalues below threshold      ... 0
Time for construction of square roots      ...    0.001 sec
Total time needed                          ...    0.002 sec

-------------------
DFT GRID GENERATION
-------------------

General Integration Accuracy     IntAcc      ...  4.340
Radial Grid Type                 RadialGrid  ... Gauss-Chebyshev
Angular Grid (max. acc.)         AngularGrid ... Lebedev-110
Angular grid pruning method      GridPruning ... 3 (G Style)
Weight generation scheme         WeightScheme... Becke
Basis function cutoff            BFCut       ...    1.0000e-11
Integration weight cutoff        WCut        ...    1.0000e-14
Grids for H and He will be reduced by one unit

# of grid points (after initial pruning)     ...   5882 (   0.0 sec)
# of grid points (after weights+screening)   ...   5759 (   0.0 sec)
nearest neighbour list constructed           ...    0.0 sec
Grid point re-assignment to atoms done       ...    0.0 sec
Grid point division into batches done        ...    0.0 sec
Reduced shell lists constructed in    0.0 sec

Total number of grid points                  ...     5759
Total number of batches                      ...       93
Average number of points per batch           ...       61
Average number of grid points per atom       ...     1152
Average number of shells per batch           ...    19.43 (84.46%)
Average number of basis functions per batch  ...    40.19 (85.51%)
Average number of large shells per batch     ...    17.84 (91.84%)
Average number of large basis fcns per batch ...    36.59 (91.03%)
Maximum spatial batch extension              ...  21.27, 25.60, 17.62 au
Average spatial batch extension              ...   5.22,  4.87,  4.47 au

Time for grid setup =    0.047 sec

--------------------
COSX GRID GENERATION
--------------------

General Integration Accuracy     IntAcc      ...  3.340
Radial Grid Type                 RadialGrid  ... Gauss-Chebyshev
Angular Grid (max. acc.)         AngularGrid ... Lebedev-50
Angular grid pruning method      GridPruning ... 3 (G Style)
Weight generation scheme         WeightScheme... Becke
Basis function cutoff            BFCut       ...    1.0000e-11
Integration weight cutoff        WCut        ...    1.0000e-14
Grids for H and He will be reduced by one unit

# of grid points (after initial pruning)     ...   2246 (   0.0 sec)
# of grid points (after weights+screening)   ...   2201 (   0.0 sec)
nearest neighbour list constructed           ...    0.0 sec
Grid point re-assignment to atoms done       ...    0.0 sec
Grid point division into batches done        ...    0.0 sec
Reduced shell lists constructed in    0.0 sec

Total number of grid points                  ...     2201
Total number of batches                      ...       38
Average number of points per batch           ...       57
Average number of grid points per atom       ...      440
Average number of shells per batch           ...    20.46 (88.96%)
Average number of basis functions per batch  ...    42.82 (91.11%)
Average number of large shells per batch     ...    19.10 (93.36%)
Average number of large basis fcns per batch ...    39.82 (92.99%)
Maximum spatial batch extension              ...  17.81, 20.70, 18.16 au
Average spatial batch extension              ...   6.94,  6.66,  5.70 au

Overlap Fitting                  UseSFitting ... on
Constructing numerical overlap ... done (      0.0 sec)
Inverting numerical overlap    ... done (      0.0 sec)
Obtaining analytic overlap     ... done (      0.0 sec)
Final contraction and storage  ... done (      0.0 sec)


General Integration Accuracy     IntAcc      ...  3.670
Radial Grid Type                 RadialGrid  ... Gauss-Chebyshev
Angular Grid (max. acc.)         AngularGrid ... Lebedev-50
Angular grid pruning method      GridPruning ... 3 (G Style)
Weight generation scheme         WeightScheme... Becke
Basis function cutoff            BFCut       ...    1.0000e-11
Integration weight cutoff        WCut        ...    1.0000e-14
Grids for H and He will be reduced by one unit

# of grid points (after initial pruning)     ...   2860 (   0.0 sec)
# of grid points (after weights+screening)   ...   2796 (   0.0 sec)
nearest neighbour list constructed           ...    0.0 sec
Grid point re-assignment to atoms done       ...    0.0 sec
Grid point division into batches done        ...    0.0 sec
Reduced shell lists constructed in    0.0 sec

Total number of grid points                  ...     2796
Total number of batches                      ...       46
Average number of points per batch           ...       60
Average number of grid points per atom       ...      559
Average number of shells per batch           ...    20.26 (88.07%)
Average number of basis functions per batch  ...    42.30 (90.00%)
Average number of large shells per batch     ...    18.98 (93.70%)
Average number of large basis fcns per batch ...    39.36 (93.06%)
Maximum spatial batch extension              ...  18.82, 22.63, 20.03 au
Average spatial batch extension              ...   6.49,  6.34,  5.50 au

Overlap Fitting                  UseSFitting ... on
Constructing numerical overlap ... done (      0.0 sec)
Inverting numerical overlap    ... done (      0.0 sec)
Obtaining analytic overlap     ... done (      0.0 sec)
Final contraction and storage  ... done (      0.0 sec)


General Integration Accuracy     IntAcc      ...  4.010
Radial Grid Type                 RadialGrid  ... Gauss-Chebyshev
Angular Grid (max. acc.)         AngularGrid ... Lebedev-110
Angular grid pruning method      GridPruning ... 3 (G Style)
Weight generation scheme         WeightScheme... Becke
Basis function cutoff            BFCut       ...    1.0000e-11
Integration weight cutoff        WCut        ...    1.0000e-14
Grids for H and He will be reduced by one unit

# of grid points (after initial pruning)     ...   5128 (   0.0 sec)
# of grid points (after weights+screening)   ...   5022 (   0.0 sec)
nearest neighbour list constructed           ...    0.0 sec
Grid point re-assignment to atoms done       ...    0.0 sec
Grid point division into batches done        ...    0.0 sec
Reduced shell lists constructed in    0.0 sec

Total number of grid points                  ...     5022
Total number of batches                      ...       80
Average number of points per batch           ...       62
Average number of grid points per atom       ...     1004
Average number of shells per batch           ...    19.53 (84.92%)
Average number of basis functions per batch  ...    40.40 (85.95%)
Average number of large shells per batch     ...    18.15 (92.92%)
Average number of large basis fcns per batch ...    37.46 (92.73%)
[...]
Radial Grid Type                 RadialGrid  ... Gauss-Chebyshev
Angular Grid (max. acc.)         AngularGrid ... Lebedev-110
Angular grid pruning method      GridPruning ... 3 (G Style)
Weight generation scheme         WeightScheme... Becke
Basis function cutoff            BFCut       ...    1.0000e-11
Integration weight cutoff        WCut        ...    1.0000e-14
Grids for H and He will be reduced by one unit

# of grid points (after initial pruning)     ...   5128 (   0.0 sec)
# of grid points (after weights+screening)   ...   5022 (   0.0 sec)
nearest neighbour list constructed           ...    0.0 sec
Grid point re-assignment to atoms done       ...    0.0 sec
Grid point division into batches done        ...    0.0 sec
Reduced shell lists constructed in    0.0 sec

Total number of grid points                  ...     5022
Total number of batches                      ...       80
Average number of points per batch           ...       62
Average number of grid points per atom       ...     1004
Average number of shells per batch           ...    19.56 (85.02%)
Average number of basis functions per batch  ...    40.47 (86.10%)
Average number of large shells per batch     ...    18.15 (92.80%)
Average number of large basis fcns per batch ...    37.46 (92.56%)
Maximum spatial batch extension              ...  20.41, 24.23, 20.15 au
Average spatial batch extension              ...   5.48,  5.13,  4.63 au

Overlap Fitting                  UseSFitting ... on
Constructing numerical overlap ... done (      0.0 sec)
Inverting numerical overlap    ... done (      0.0 sec)
Obtaining analytic overlap     ... done (      0.0 sec)
Final contraction and storage  ... done (      0.0 sec)

Time for X-Grid setup             =    0.177 sec

--------------------
CPCM SOLVATION MODEL
--------------------
CPCM parameters:
  Epsilon                                         ...      80.4000
  Refrac                                          ...       1.3300
  Rsolv                                           ...       1.3000
  Surface type                                    ... GAUSSIAN VDW
  Epsilon function type                           ...         CPCM
Radii:
 Radius for C  used is    3.8550 Bohr (=   2.0400 Ang.)
 Radius for Cl used is    3.9684 Bohr (=   2.1000 Ang.)
 Radius for H  used is    2.4944 Bohr (=   1.3200 Ang.)
Calculating surface                               ...        done! (  0.0s)
GEPOL surface points                              ...          351
GEPOL Volume                                      ...     422.3096
GEPOL Surface-area                                ...     288.7430
Calculating surface distance matrix               ...        done! (  0.0s)
Performing Cholesky decomposition & store         ...        done! (  0.0s)
Overall time for CPCM initialization              ...                 0.0s
--------------
SCF ITERATIONS
--------------
ITER       Energy         Delta-E        Max-DP      RMS-DP      [F,P]     Damp
               ***  Starting incremental Fock matrix formation  ***
                      *** Initiating the SOSCF procedure ***
                      *** Re-Reading the Fockian *** 
                      *** Removing any level shift *** 
ITER      Energy       Delta-E        Grad      Rot      Max-DP    RMS-DP
  0   -499.73229237 -499.7322923666  0.000057  0.000057  0.000083  0.000008
               *** Restarting incremental Fock matrix formation ***
  1   -499.73229249  -0.0000001223  0.000012  0.000021  0.000031  0.000003
  2   -499.73229252  -0.0000000280  0.000003  0.000004  0.000015  0.000001
                  ***Gradient check signals convergence***
              ***Rediagonalizing the Fockian in SOSCF/NRSCF***

               *****************************************************
               *                     SUCCESS                       *
               *           SCF CONVERGED AFTER   3 CYCLES          *
               *****************************************************

Setting up the final grid:

General Integration Accuracy     IntAcc      ...  4.670
Radial Grid Type                 RadialGrid  ... Gauss-Chebyshev
Angular Grid (max. acc.)         AngularGrid ... Lebedev-302
Angular grid pruning method      GridPruning ... 3 (G Style)
Weight generation scheme         WeightScheme... Becke
Basis function cutoff            BFCut       ...    1.0000e-11
Integration weight cutoff        WCut        ...    1.0000e-14
Grids for H and He will be reduced by one unit

# of grid points (after initial pruning)     ...  23132 (   0.0 sec)
# of grid points (after weights+screening)   ...  22572 (   0.0 sec)
nearest neighbour list constructed           ...    0.0 sec
Grid point re-assignment to atoms done       ...    0.0 sec
Grid point division into batches done        ...    0.1 sec
Reduced shell lists constructed in    0.2 sec

Total number of grid points                  ...    22572
Total number of batches                      ...      355
Average number of points per batch           ...       63
Average number of grid points per atom       ...     4514
Average number of shells per batch           ...    17.75 (77.19%)
Average number of basis functions per batch  ...    36.68 (78.04%)
Average number of large shells per batch     ...    16.13 (90.84%)
Average number of large basis fcns per batch ...    33.08 (90.17%)
Maximum spatial batch extension              ...  20.24, 20.64, 19.50 au
Average spatial batch extension              ...   3.41,  3.30,  3.19 au

Final grid set up in    0.2 sec
Final integration                            ... done (   0.1 sec)
Change in XC energy                          ...    -0.000661612
Integrated number of electrons               ...    26.000001253
Previous integrated no of electrons          ...    25.994922371
Old exchange energy                            =     -8.444429938 Eh
New exchange energy                            =     -8.444098430 Eh
Exchange energy change after final integration =      0.000331508 Eh
Total energy after final integration           =   -499.732622628 Eh
Final COS-X integration done in                =     0.321 sec

----------------
TOTAL SCF ENERGY
----------------

Total Energy       :         -499.73262263 Eh          -13598.41599 eV

Components:
Nuclear Repulsion  :           51.20072540 Eh            1393.24257 eV
Electronic Energy  :         -550.93334803 Eh          -14991.65856 eV
One Electron Energy:         -790.06312342 Eh          -21498.71056 eV
Two Electron Energy:          239.12977539 Eh            6507.05200 eV
CPCM Dielectric    :           -0.00451059 Eh              -0.12274 eV

Virial components:
Potential Energy   :         -998.19137468 Eh          -27162.16820 eV
Kinetic Energy     :          498.45875205 Eh           13563.75221 eV
Virial Ratio       :            2.00255562


DFT components:
N(Alpha)           :       13.000000626410 electrons
N(Beta)            :       13.000000626410 electrons
N(Total)           :       26.000001252820 electrons
E(X)               :      -25.182890004448 Eh       
E(C)               :       -0.950193544641 Eh       
E(XC)              :      -26.133083549089 Eh       
DFET-embed. en.    :        0.000000000000 Eh       
CPCM Solvation Model Properties:
Surface-charge          :           -0.00825704
Charge-correction       :            0.00001331 Eh               0.00036 eV
Free-energy (cav+disp)  :            0.00297670 Eh               0.08100 eV
Corrected G(solv)       :         -499.72963261 Eh          -13598.33463 eV

---------------
SCF CONVERGENCE
---------------

  Last Energy change         ...   -6.5405e-09  Tolerance :   1.0000e-08
  Last MAX-Density change    ...    3.1086e-15  Tolerance :   1.0000e-07
  Last RMS-Density change    ...    9.3520e-17  Tolerance :   5.0000e-09
  Last Orbital Gradient      ...    2.2234e-06  Tolerance :   1.0000e-05
  Last Orbital Rotation      ...    1.2920e-06  Tolerance :   1.0000e-05

             **** THE GBW FILE WAS UPDATED (opt_orca.gbw) ****
             **** DENSITY FILE WAS UPDATED (opt_orca.scfp) ****
             **** ENERGY FILE WAS UPDATED (opt_orca.en.tmp) ****
             **** THE GBW FILE WAS UPDATED (opt_orca.gbw) ****
             **** DENSITY FILE WAS UPDATED (opt_orca.scfp) ****
----------------
ORBITAL ENERGIES
----------------

  NO   OCC          E(Eh)            E(eV) 
   0   2.0000    -101.664719     -2766.4376 
   1   2.0000     -10.278395      -279.6893 
   2   2.0000      -9.515683      -258.9349 
   3   2.0000      -7.257222      -197.4791 
   4   2.0000      -7.247420      -197.2123 
   5   2.0000      -7.247413      -197.2121 
   6   2.0000      -0.867503       -23.6060 
   7   2.0000      -0.678286       -18.4571 
   8   2.0000      -0.450031       -12.2460 
   9   2.0000      -0.449847       -12.2410 
  10   2.0000      -0.421966       -11.4823 
  11   2.0000      -0.304759        -8.2929 
  12   2.0000      -0.304661        -8.2903 
  13   0.0000       0.056307         1.5322 
  14   0.0000       0.103303         2.8110 
  15   0.0000       0.144568         3.9339 
  16   0.0000       0.144764         3.9392 
  17   0.0000       0.421679        11.4745 
  18   0.0000       0.435060        11.8386 
  19   0.0000       0.436700        11.8832 
  20   0.0000       0.533794        14.5253 
  21   0.0000       0.663717        18.0607 
  22   0.0000       0.673272        18.3207 
  23   0.0000       0.673395        18.3240 
  24   0.0000       0.785425        21.3725 
  25   0.0000       0.785671        21.3792 
  26   0.0000       0.801147        21.8003 
  27   0.0000       0.814215        22.1559 
  28   0.0000       0.814298        22.1582 
  29   0.0000       0.817001        22.2317 
  30   0.0000       0.918015        24.9805 
  31   0.0000       0.918159        24.9844 
  32   0.0000       1.266987        34.4765 
  33   0.0000       1.267559        34.4920 
  34   0.0000       1.316510        35.8241 
  35   0.0000       1.520239        41.3678 
  36   0.0000       1.730358        47.0854 
  37   0.0000       1.730504        47.0894 
  38   0.0000       1.869726        50.8778 
  39   0.0000       1.965725        53.4901 
  40   0.0000       1.966464        53.5102 
  41   0.0000       2.198009        59.8109 
  42   0.0000       2.413123        65.6644 
  43   0.0000       2.413398        65.6719 
  44   0.0000       2.704024        73.5802 
  45   0.0000       2.895029        78.7777 
  46   0.0000       2.895767        78.7978 

                    ********************************
                    * MULLIKEN POPULATION ANALYSIS *
                    ********************************

-----------------------
MULLIKEN ATOMIC CHARGES
-----------------------
   0 C :   -0.084847
   1 Cl:   -0.243814
   2 H :    0.109553
   3 H :    0.109999
   4 H :    0.109109
Sum of atomic charges:   -0.0000000

--------------------------------
MULLIKEN REDUCED ORBITAL CHARGES
--------------------------------
  0 C s       :     3.122602  s :     3.122602
      pz      :     1.099313  p :     2.929627
      px      :     0.729624
      py      :     1.100689
      dz2     :     0.006463  d :     0.032618
      dxz     :     0.005898
      dyz     :     0.004655
      dx2y2   :     0.010018
      dxy     :     0.005584
  1 Cls       :     5.961632  s :     5.961632
      pz      :     3.978610  p :    11.248930
      px      :     3.291945
      py      :     3.978375
      dz2     :     0.004975  d :     0.033251
      dxz     :     0.006717
      dyz     :     0.000019
      dx2y2   :     0.014868
      dxy     :     0.006672
  2 H s       :     0.866442  s :     0.866442
      pz      :     0.012345  p :     0.024005
      px      :     0.004407
      py      :     0.007254
  3 H s       :     0.865995  s :     0.865995
      pz      :     0.012156  p :     0.024006
      px      :     0.004695
      py      :     0.007155
  4 H s       :     0.866872  s :     0.866872
      pz      :     0.004817  p :     0.024018
      px      :     0.004254
      py      :     0.014947


                     *******************************
                     * LOEWDIN POPULATION ANALYSIS *
                     *******************************

----------------------
LOEWDIN ATOMIC CHARGES
----------------------
   0 C :   -0.101758
   1 Cl:   -0.019715
   2 H :    0.040491
   3 H :    0.040528
   4 H :    0.040454

-------------------------------
LOEWDIN REDUCED ORBITAL CHARGES
-------------------------------
  0 C s       :     2.912811  s :     2.912811
      pz      :     1.122862  p :     3.111260
      px      :     0.865296
      py      :     1.123102
      dz2     :     0.015330  d :     0.077686
      dxz     :     0.014593
      dyz     :     0.011647
      dx2y2   :     0.022437
      dxy     :     0.013679
  1 Cls       :     5.784814  s :     5.784814
      pz      :     3.957192  p :    11.199490
      px      :     3.285300
      py      :     3.956997
      dz2     :     0.005535  d :     0.035411
      dxz     :     0.006673
      dyz     :     0.000017
      dx2y2   :     0.016553
      dxy     :     0.006633
  2 H s       :     0.889538  s :     0.889538
      pz      :     0.035611  p :     0.069971
      px      :     0.013997
      py      :     0.020363
  3 H s       :     0.889477  s :     0.889477
      pz      :     0.034951  p :     0.069995
      px      :     0.014963
      py      :     0.020081
  4 H s       :     0.889611  s :     0.889611
      pz      :     0.013146  p :     0.069936
      px      :     0.013582
      py      :     0.043207


                      *****************************
                      * MAYER POPULATION ANALYSIS *
                      *****************************

  NA   - Mulliken gross atomic population
  ZA   - Total nuclear charge
  QA   - Mulliken gross atomic charge
  VA   - Mayer's total valence
  BVA  - Mayer's bonded valence
  FA   - Mayer's free valence

  ATOM       NA         ZA         QA         VA         BVA        FA
  0 C      6.0848     6.0000    -0.0848     3.8815     3.8815     0.0000
  1 Cl    17.2438    17.0000    -0.2438     0.9906     0.9906     0.0000
  2 H      0.8904     1.0000     0.1096     0.9781     0.9781    -0.0000
  3 H      0.8900     1.0000     0.1100     0.9780     0.9780    -0.0000
  4 H      0.8909     1.0000     0.1091     0.9781     0.9781     0.0000

  Mayer bond orders larger than 0.100000
B(  0-C ,  1-Cl) :   0.9642 B(  0-C ,  2-H ) :   0.9727 B(  0-C ,  3-H ) :   0.9726 
B(  0-C ,  4-H ) :   0.9721 


------------------
HIRSHFELD ANALYSIS
------------------

Total integrated alpha density =     12.997461186
Total integrated beta density  =     12.997461186

  ATOM     CHARGE      SPIN    
   0 C   -0.006954    0.000000
   1 Cl  -0.147352    0.000000
   2 H    0.052983    0.000000
   3 H    0.052943    0.000000
   4 H    0.053457    0.000000

  TOTAL   0.005078    0.000000

-------
TIMINGS
-------

Total SCF time: 0 days 0 hours 0 min 3 sec 

Total time                  ....       3.325 sec
Sum of individual times     ....       3.204 sec  ( 96.4%)

Fock matrix formation       ....       2.783 sec  ( 83.7%)
  Split-RI-J                ....       0.546 sec  ( 19.6% of F)
  Chain of spheres X        ....       1.041 sec  ( 37.4% of F)
  COS-X 1 center corr.      ....       0.000 sec  (  0.0% of F)
  XC integration            ....       0.256 sec  (  9.2% of F)
    Basis function eval.    ....       0.101 sec  ( 39.2% of XC)
    Density eval.           ....       0.037 sec  ( 14.4% of XC)
    XC-Functional eval.     ....       0.055 sec  ( 21.6% of XC)
    XC-Potential eval.      ....       0.043 sec  ( 16.6% of XC)
Diagonalization             ....       0.001 sec  (  0.0%)
Density matrix formation    ....       0.000 sec  (  0.0%)
Population analysis         ....       0.024 sec  (  0.7%)
Initial guess               ....       0.002 sec  (  0.1%)
Orbital Transformation      ....       0.000 sec  (  0.0%)
Orbital Orthonormalization  ....       0.000 sec  (  0.0%)
DIIS solution               ....       0.000 sec  (  0.0%)
SOSCF solution              ....       0.001 sec  (  0.0%)
Grid generation             ....       0.394 sec  ( 11.8%)


-------------------------------------------------------------------------------
                          DFT DISPERSION CORRECTION                            
                                                                               
                              DFTD3 V3.1  Rev 1                                
                          USING Becke-Johnson damping                          
-------------------------------------------------------------------------------
The PBE0 functional is recognized
Active option DFTDOPT                   ...         4   

molecular C6(AA) [au] = 362.755352 


            DFT-D V3
 parameters
 s6 scaling factor         :     1.0000 
 a1 scaling factor         :     0.4145 
 s8 scaling factor         :     1.2177 
 a2 scaling factor         :     4.8593 
 ad hoc parameters k1-k3   :    16.0000     1.3333    -4.0000 

 Edisp/kcal,au: -1.134797311956  -0.001808414435 
 E6   /kcal   :  -0.707348414 
 E8   /kcal   :  -0.427448898 
 % E8         :  37.667422537 

-------------------------   ----------------
Dispersion correction           -0.001808414
-------------------------   ----------------


-------------------------   --------------------
FINAL SINGLE POINT ENERGY      -499.734431042133
-------------------------   --------------------

                                *** OPTIMIZATION RUN DONE ***

                            ***************************************
                            *     ORCA property calculations      *
                            ***************************************

                                    ---------------------
                                    Active property flags
                                    ---------------------
   (+) Dipole Moment


------------------------------------------------------------------------------
                       ORCA ELECTRIC PROPERTIES CALCULATION
------------------------------------------------------------------------------

Dipole Moment Calculation                       ... on
Quadrupole Moment Calculation                   ... off
Polarizability Calculation                      ... off
GBWName                                         ... opt_orca.gbw
Electron density file                           ... opt_orca.scfp
The origin for moment calculation is the CENTER OF MASS  = ( 2.050741, -0.052212 -0.047643)

-------------
DIPOLE MOMENT
-------------
                                X             Y             Z
Electronic contribution:      4.26748      -0.10906      -0.09913
Nuclear contribution   :     -5.19456       0.13216       0.12070
                        -----------------------------------------
Total Dipole Moment    :     -0.92708       0.02310       0.02157
                        -----------------------------------------
Magnitude (a.u.)       :      0.92762
Magnitude (Debye)      :      2.35782



--------------------
Rotational spectrum 
--------------------
 
Rotational constants in cm-1:     5.173067     0.440921     0.440885 
Rotational constants in MHz : 155084.640708 13218.484556 13217.402802 

 Dipole components along the rotational axes: 
x,y,z [a.u.] :    -0.927619    -0.000766     0.000193 
x,y,z [Debye]:    -2.357820    -0.001947     0.000491 

 

Timings for individual modules:

Sum of individual times         ...       36.075 sec (=   0.601 min)
GTO integral calculation        ...        2.389 sec (=   0.040 min)   6.6 %
SCF iterations                  ...       25.662 sec (=   0.428 min)  71.1 %
SCF Gradient evaluation         ...        6.680 sec (=   0.111 min)  18.5 %
Geometry relaxation             ...        1.344 sec (=   0.022 min)   3.7 %
                             ****ORCA TERMINATED NORMALLY****
TOTAL RUN TIME: 0 days 0 hours 0 minutes 38 seconds 82 msec
